
                                 *****************
                                 * O   R   C   A *
                                 *****************

                                            #,                                       
                                            ###                                      
                                            ####                                     
                                            #####                                    
                                            ######                                   
                                           ########,                                 
                                     ,,################,,,,,                         
                               ,,#################################,,                 
                          ,,##########################################,,             
                       ,#########################################, ''#####,          
                    ,#############################################,,   '####,        
                  ,##################################################,,,,####,       
                ,###########''''           ''''###############################       
              ,#####''   ,,,,##########,,,,          '''####'''          '####       
            ,##' ,,,,###########################,,,                        '##       
           ' ,,###''''                  '''############,,,                           
         ,,##''                                '''############,,,,        ,,,,,,###''
      ,#''                                            '''#######################'''  
     '                                                          ''''####''''         
             ,#######,   #######,   ,#######,      ##                                
            ,#'     '#,  ##    ##  ,#'     '#,    #''#        ,####,    ,#,          
            ##       ##  ##   ,#'  ##            #'  '#       #'       ,# #          
            ##       ##  #######   ##           ,######,      #####,      #          
            '#,     ,#'  ##    ##  '#,     ,#' ,#      #,     #,   #      #          
             '#######'   ##     ##  '#######'  #'      '#     '####' #    #          



                #########################################################
                #                        -***-                          #
                #          Department of theory and spectroscopy        #
                #                                                       #
                #                      Frank Neese                      #
                #                                                       #
                #     Directorship, Architecture, Infrastructure        #
                #                    SHARK, DRIVERS                     #
                #        Core code/Algorithms in most modules           #
                #                                                       #
                #        Max Planck Institute fuer Kohlenforschung      #
                #                Kaiser Wilhelm Platz 1                 #
                #                 D-45470 Muelheim/Ruhr                 #
                #                      Germany                          #
                #                                                       #
                #                  All rights reserved                  #
                #                        -***-                          #
                #########################################################


                         Program Version 6.1.1  -  RELEASE   -
                                (GIT: $487d211c$)
                          ($2025-11-21 10:33:24 +0100$)


 With contributions from (in alphabetic order):
[Max-Planck-Institut fuer Kohlenforschung]                               
  Daniel Aravena         : Magnetic Suceptibility                        
  Michael Atanasov       : Ab Initio Ligand Field Theory (pilot matlab implementation)
  Alexander A. Auer      : GIAO ZORA, VPT2 properties, NMR spectrum      
  Ute Becker             : All parallelization in ORCA, NUMFREQ, NUMCALC 
  Giovanni Bistoni       : ED, misc. LED, open-shell LED, HFLD           
  Dmytro Bykov           : pre 5.0 version of the SCF Hessian            
  Marcos Casanova-Páez   : Triplet and SCS-CIS(D). UHF-(DLPNO)-IP/EA/STEOM-CCSD. UHF-CVS-IP/STEOM-CCSD   
  Vijay G. Chilkuri      : MRCI spin determinant printing, contributions to CSF-ICE 
  Pauline Colinet        : FMM embedding                                 
  Dipayan Datta          : RHF DLPNO-CCSD density                        
  Achintya Kumar Dutta   : EOM-CC, STEOM-CC                              
  Nicolas Foglia         : Exact transition moments, OPA infrastructure, MCD improvements    
  Dmitry Ganyushin       : Spin-Orbit,Spin-Spin,Magnetic field MRCI      
  Miquel Garcia-Rates    : C-PCM and meta-GGA Hessian, CCSD/C-PCM, Gaussian charge scheme 
  Tiago L. C. Gouveia    : GS-ROHF, GS-ROCIS                             
  Yang Guo               : DLPNO-NEVPT2, F12-NEVPT2, CIM, IAO-localization        
  Andreas Hansen         : Spin unrestricted coupled pair/coupled cluster methods 
  Ingolf Harden          : AUTO-CI MPn and infrastructure                
  Benjamin Helmich-Paris : MC-RPA, TRAH-(SCF,CASSCF), AVAS, COSX integrals, SCF dyn. polar., MC-PDFT, srDFT 
  Lee Huntington         : MR-EOM, pCC                                   
  Robert Izsak           : Overlap fitted RIJCOSX, COSX-SCS-MP3, EOM     
  Riya Kayal             : Wick's Theorem for AUTO-CI, AUTO-CI UHF-CCSDT 
  Emily Kempfer          : AUTO-CI RHF CISDT and CCSDT, approximate NEVPT4
  Christian Kollmar      : KDIIS, OOCD, Brueckner-CCSD(T), CCSD density, CASPT2, CASPT2-K, improved NEVPT2 
  Axel Koslowski         : Symmetry handling                             
  Simone Kossmann        : meta-GGA functionals, TD-DFT gradient, OOMP2, (MP2 Hessian; deprecated post 5.0) 
  Lucas Lang             : DCDCAS, Hyperfine gauge corrections, ICE-SOC+SSC
  Marvin Lechner         : AUTO-CI (C++ implementation), FIC-MRCC        
  Spencer Leger          : CASSCF response                               
  Dagmar Lenk            : GEPOL surface, SMD, ORCA-2-JSON               
  Dimitrios Liakos       : Extrapolation schemes; Compound Job, Property file
  Dimitrios Manganas     : Further ROCIS development; embedding schemes. LFT, Crystal Embedding 
  Dimitrios Pantazis     : SARC Basis sets                               
  Anastasios Papadopoulos: AUTO-CI, single reference methods and gradients 
  Taras Petrenko         : pre 6.0 DFT Hessian and TD-DFT gradient,  ECA, NRVS 
  Petra Pikulova         : Analytic Raman intensities                    
  Peter Pinski           : DLPNO-MP2, DLPNO-MP2 Gradient                 
  Shashank Vittal Rao    : ES-AILFT, MagRelax                            
  Christoph Reimann      : Effective Core Potentials                     
  Marius Retegan         : Local ZFS, SOC                                
  Christoph Riplinger    : Optimizer, TS searches, QM/MM, DLPNO-CCSD(T), (RO)-DLPNO pert. Triples 
  Michael Roemelt        : Original ROCIS implementation, recursive CI coupling coefficients
  Masaaki Saitow         : Open-shell DLPNO-CCSD energy and density      
  Barbara Sandhoefer     : DKH picture change effects                    
  Yorick L. A. Schmerwitz: GMF and freeze-and-release deltaSCF, NEB S-IDPP initial path                    
  Kantharuban Sivalingam : CASSCF convergence/infrastructure, NEVPT2, NEVPT3, NEVPT4(SD), FIC-MRCI and CEPA variants
  Bernardo de Souza      : ESD, SOC TD-DFT                               
  Georgi L. Stoychev     : AutoAux, RI-MP2 NMR, DLPNO-MP2 response, X2C  
  Van Anh Tran           : RI-MP2 g-tensors                              
  Willem Van den Heuvel  : Paramagnetic NMR                              
  Zikuan Wang            : NOTCH, Electric field optimization            
  Frank Wennmohs         : Technical directorship and infrastructure     
  Hang Xu                : AUTO-CI-Response properties                   
                                                                         
[FACCTs GmbH]                                                            
  Markus Bursch, Nicolas Foglia, Miquel Garcia-Rates, Ingolf Harden, Hagen Neugebauer, Anastasios Papadopoulos, 
  Christoph Riplinger, Bernardo de Souza, Georgi L. Stoychev                                                    
                                                                 
  APM, various basis sets, CI-OPT, improved COSX, DLPNO-Multilevel,           
  DOCKER, DRACO, updates on ESD, Fragmentator, GOAT, IRC, LR-CPCM, L-BFGS, MBIS, meta-GGA TD-DFT gradient, ML-optimized integration grids, 
  MM, NACMEs, nearIR, NEB, NEB-TS, NL-DFT gradient (VV10), 2- and 3-layer-ONIOM, interface openCOSMO-RS, QMMM,   
  Crystal-QMMM, RESP, rigid body optimization, SF, symmetry and pop. for TD-DFT, various functionals, SOLVATOR                                   
                                                                         
[Other institutions]                                                     
  V. Asgeirsson          : NEB                                           
  Christoph Bannwarth    : sTDA-DFT, sTD-DFT, PBEh-3c, B97-3c, D3        
  Giovanni Bistoni       : ETS/NOCV, ADLD/ADEX, COVALED                  
  Martin Brehm           : Molecular dynamics                            
  Ronald Cardenas        : ETS/NOCV                                      
  Martina Colucci        : COVALED                                       
  Sebastian Ehlert       : rSCAN, r2SCAN, r2SCAN-3c, D4, dhf basis sets  
  Marvin Friede          : D4 for Fr, Ra, Ac-Lr                          
  Lars Goerigk           : TD-DFT with DH, B97 family of functionals     
  Stefan Grimme          : VdW corrections, initial TS optimization, DFT functionals, gCP, sTDA/sTD-DF 
  Waldemar Hujo          : DFT-NL                                        
  H. Jonsson             : NEB                                           
  Holger Kruse           : gCP                                           
  Marcel Mueller         : wB97X-3c, vDZP basis set                      
  Hagen Neugebauer       : wr2SCAN, Native XTB                           
  Gianluca Regni         : ADLD/ADEX                                     
  Tobias Risthaus        : pre 6.0 range-separated hybrid DFT and stability analysis
  Lukas Wittmann         : regularized MP2, r2SCAN double-hybrids, wr2SCAN        
                                                                         
We gratefully acknowledge several colleagues who have allowed us to      
interface, adapt or use parts of their codes:                            
  Ed Valeev, F. Pavosevic, A. Kumar             : LibInt (2-el integral package), F12 methods 
  Garnet Chan, S. Sharma, J. Yang, R. Olivares  : DMRG                   
  Ulf Ekstrom                                   : XCFun DFT Library      
  Mihaly Kallay                                 : mrcc  (arbitrary order and MRCC methods)
  Frank Weinhold                                : gennbo (NPA and NBO analysis)           
  Simon Mueller                                 : openCOSMO-RS                            
  Christopher J. Cramer and Donald G. Truhlar   : smd solvation model                     
  S Lehtola, MJT Oliveira, MAL Marques          : LibXC Library                           
  Liviu Ungur et al                             : ANISO software                          


 Your calculation uses the libint2 library for the computation of 2-el integrals
 For citations please refer to: http://libint.valeyev.net

 Your ORCA version has been built with support for libXC version: 7.0.0
 For citations please refer to: https://libxc.gitlab.io

 This ORCA versions uses:
   CBLAS   interface :  Fast vector & matrix operations
   LAPACKE interface :  Fast linear algebra routines
   SCALAPACK package :  Parallel linear algebra routines
   Shared memory     :  Shared parallel matrices
   BLAS/LAPACK       :  OpenBLAS 0.3.29  USE64BITINT DYNAMIC_ARCH NO_AFFINITY Cooperlake SINGLE_THREADED
        Core in use  :  Cooperlake
   Copyright (c) 2011-2014, The OpenBLAS Project


  ***********************************
  * Starting time: Wed May 20 12:36:34 2026
  * Host name:     c1-43
  * Process ID:    3422881
  * Working dir.:  /cluster/projects/nn14654k/ylvaos/basis_set_n_funcs/functionals/gga_x_pw91/LiS/out
  ***********************************

Using LibXC functional ID 109 : Perdew & Wang 91
[ 1]  J. P. Perdew. In P. Ziesche and H. Eschrig, editors, Proceedings of the 75. WE-Heraeus-Seminar and 21st Annual International Symposium on Electronic Structure of Solids, 11. Berlin, 1991. Akademie Verlag.
[ 2]  J. P. Perdew, J. A. Chevary, S. H. Vosko, K. A. Jackson, M. R. Pederson, D. J. Singh, and C. Fiolhais.,  Phys. Rev. B 46, 6671 (1992)
[ 3]  J. P. Perdew, J. A. Chevary, S. H. Vosko, K. A. Jackson, M. R. Pederson, D. J. Singh, and C. Fiolhais.,  Phys. Rev. B 48, 4978 (1993)
Using LibXC functional ID 109 : Perdew & Wang 91
[ 1]  J. P. Perdew. In P. Ziesche and H. Eschrig, editors, Proceedings of the 75. WE-Heraeus-Seminar and 21st Annual International Symposium on Electronic Structure of Solids, 11. Berlin, 1991. Akademie Verlag.
[ 2]  J. P. Perdew, J. A. Chevary, S. H. Vosko, K. A. Jackson, M. R. Pederson, D. J. Singh, and C. Fiolhais.,  Phys. Rev. B 46, 6671 (1992)
[ 3]  J. P. Perdew, J. A. Chevary, S. H. Vosko, K. A. Jackson, M. R. Pederson, D. J. Singh, and C. Fiolhais.,  Phys. Rev. B 48, 4978 (1993)
Your calculation utilizes LibXC
by S. Lehtola, C. Steigemann, M. J. T. Oliveira & M. A. L. Marques
Please cite in your paper:
Lehtola, S.; Steigemann, C.; Oliveira, M.J.T.; Marques, M. A. L. Software X, 7, (2018), 1.
   

================================================================================

----- Orbital basis set information -----
Your calculation utilizes the basis: cc-pVTZ 
       H, B-Ne : Obtained from the ccRepo (grant-hill.group.shef.ac.uk/ccrepo) Feb. 2017
                 T. H. Dunning, Jr., J. Chem. Phys. 90, 1007 (1989)
            He : Obtained from the ccRepo (grant-hill.group.shef.ac.uk/ccrepo) Feb. 2017
                 D. E. Woon, T. H. Dunning, Jr., J. Chem. Phys. 100, 2975 (1994)
  Li-Be, Na-Mg : Obtained from the ccRepo (grant-hill.group.shef.ac.uk/ccrepo) Feb. 2017
                 B. P. Prascher, D. E. Woon, K. A. Peterson, T. H. Dunning, Jr., A. K. Wilson, Theor. Chem. Acc. 128, 69 (2011)
         Al-Ar : Obtained from the ccRepo (grant-hill.group.shef.ac.uk/ccrepo) Feb. 2017
                 D. E. Woon, T. H. Dunning, Jr., J. Chem. Phys. 98, 1358 (1993)
            Ca : Obtained from the Peterson Research Group Website (tyr0.chem.wsu.edu/~kipeters) Feb. 2017
                 J. Koput, K. A. Peterson, J. Phys. Chem. 106, 9595 (2002)
         Sc-Zn : Obtained from the ccRepo (grant-hill.group.shef.ac.uk/ccrepo) Feb. 2017
                 N. B. Balabanov, K. A. Peterson, J. Chem. Phys. 123, 064107 (2005)
                 N. B. Balabanov, K. A. Peterson, J. Chem. Phys. 125, 074110 (2006)
         Ga-Kr : Obtained from the ccRepo (grant-hill.group.shef.ac.uk/ccrepo) Feb. 2017
                 A. K. Wilson, D. E. Woon, K. A. Peterson, T. H. Dunning, Jr., J. Chem. Phys. 110, 7667 (1999)
             Y : Obtained from the ccRepo (grant-hill.group.shef.ac.uk/ccrepo) Feb. 2017
                 K. A. Peterson, D. Figgen, M. Dolg, H. Stoll, J. Chem. Phys. 126, 124101 (2007)
        Ag, Au : Obtained from the Peterson Research Group Website (tyr0.chem.wsu.edu/~kipeters) Feb. 2017
                 K. A. Peterson, C. Puzzarini, Theor. Chem. Acc. 114, 283 (2005)

================================================================================
                                        WARNINGS
                       Please study these warnings very carefully!
================================================================================


WARNING: your system is open-shell and RHF/RKS was chosen
  ===> : WILL SWITCH to UHF/UKS


================================================================================
                                       INPUT FILE
================================================================================
NAME = /cluster/projects/nn14654k/ylvaos/basis_set_n_funcs/functionals/gga_x_pw91/LiS/inp/LiS_gga_x_pw91_ccpvtz.inp
|  1> ! dft cc-pVTZ TightSCF
|  2> %pal nprocs 8 end
|  3> 
|  4> %loc
|  5>   LocMet NewBoys
|  6>   Occ true
|  7> end
|  8> 
|  9> %method
| 10>   exchange gga_x_pw91
| 11>   correlation None
| 12> end
| 13> 
| 14> %elprop
| 15>   Dipole true
| 16>   Quadrupole true
| 17> end
| 18> 
| 19> * xyz 0 2
| 20> Li    0.000000000000   0.000000000000  -1.074850000000
| 21> S    0.000000000000   0.000000000000   1.074850000000
| 22> *
| 23> 
| 24> 
| 25>                          ****END OF INPUT****
================================================================================

                       ****************************
                       * Single Point Calculation *
                       ****************************

---------------------------------
CARTESIAN COORDINATES (ANGSTROEM)
---------------------------------
  Li     0.000000    0.000000   -1.074850
  S      0.000000    0.000000    1.074850

----------------------------
CARTESIAN COORDINATES (A.U.)
----------------------------
  NO LB      ZA    FRAG     MASS         X           Y           Z
   0 Li    3.0000    0     6.941    0.000000    0.000000   -2.031172
   1 S    16.0000    0    32.060    0.000000    0.000000    2.031172

--------------------------------
INTERNAL COORDINATES (ANGSTROEM)
--------------------------------
 Li     0   0   0     0.000000000000     0.00000000     0.00000000
 S      1   0   0     2.149700000000     0.00000000     0.00000000

---------------------------
INTERNAL COORDINATES (A.U.)
---------------------------
 Li     0   0   0     0.000000000000     0.00000000     0.00000000
 S      1   0   0     4.062344270091     0.00000000     0.00000000

---------------------
BASIS SET INFORMATION
---------------------
There are 2 groups of distinct atoms

 Group   1 Type Li  : 20s5p2d1f contracted to 4s3p2d1f pattern {9911/311/11/1}
 Group   2 Type S   : 41s16p2d1f contracted to 5s4p2d1f pattern {13131311/7711/11/1}

Atom   0Li   basis set group =>   1
Atom   1S    basis set group =>   2


           ************************************************************
           *        Program running with 8 parallel MPI-processes     *
           *              working on a common directory               *
           ************************************************************
------------------------------------------------------------------------------
                             ORCA STARTUP CALCULATIONS
------------------------------------------------------------------------------
------------------------------------------------------------------------------
                   ___                                                        
                  /   \      - P O W E R E D   B Y -                         
                 /     \                                                     
                 |  |  |   _    _      __       _____    __    __             
                 |  |  |  | |  | |    /  \     |  _  \  |  |  /  |          
                  \  \/   | |  | |   /    \    | | | |  |  | /  /          
                 / \  \   | |__| |  /  /\  \   | |_| |  |  |/  /          
                |  |  |   |  __  | /  /__\  \  |    /   |      \           
                |  |  |   | |  | | |   __   |  |    \   |  |\   \          
                \     /   | |  | | |  |  |  |  | |\  \  |  | \   \       
                 \___/    |_|  |_| |__|  |__|  |_| \__\ |__|  \__/        
                                                                              
                      - O R C A' S   B I G   F R I E N D -                    
                                      &                                       
                       - I N T E G R A L  F E E D E R -                       
                                                                              
 v1 FN, 2020, v2 2021, v3 2022-2024                                           
------------------------------------------------------------------------------


----------------------
SHARK INTEGRAL PACKAGE
----------------------

Number of atoms                             ...      2
Number of basis functions                   ...     96
Number of shells                            ...     44
Maximum angular momentum                    ...      3
Integral batch strategy                     ... SHARK/LIBINT Hybrid
RI-J (if used) integral strategy            ... SPLIT-RIJ (Revised 2003 algorithm where possible)
Printlevel                                  ...      1
Contraction scheme used                     ... PARTIAL GENERAL contraction
Prescreening option                         ... SCHWARTZ
   Thresh                                   ... 2.500e-11
   Tcut                                     ... 2.500e-12
   Tpresel                                  ... 2.500e-12 
Coulomb Range Separation                    ... NOT USED
Exchange Range Separation                   ... NOT USED
Multipole approximations                    ... NOT USED
Finite Nucleus Model                        ... NOT USED
CABS basis                                  ... NOT available
Auxiliary Coulomb fitting basis             ... NOT available
Auxiliary J/K fitting basis                 ... NOT available
Auxiliary Correlation fitting basis         ... NOT available
Auxiliary 'external' fitting basis          ... NOT available

Checking pre-screening integrals            ... done (  0.0 sec) Dimension = 44
Save PGC pre-screening integrals            ... done (  0.0 sec) Dimension = 44
Calculate PGC overlap integrals             ... done (  0.0 sec) Dimension = 22
Calculating pre-screening integrals (ORCA)  ... done (  0.0 sec) Dimension = 22
Shell pair information
Shell pair cut-off parameter TPreSel        ...   2.5e-12
Total number of shell pairs                 ...       990
Shell pairs after pre-screening             ...       865
Total number of primitive shell pairs       ...      1084
Primitive shell pairs kept                  ...       943
          la=0 lb=0:    268 shell pairs
          la=1 lb=0:    271 shell pairs
          la=1 lb=1:     78 shell pairs
          la=2 lb=0:    104 shell pairs
          la=2 lb=1:     48 shell pairs
          la=2 lb=2:     10 shell pairs
          la=3 lb=0:     51 shell pairs
          la=3 lb=1:     24 shell pairs
          la=3 lb=2:      8 shell pairs
          la=3 lb=3:      3 shell pairs

Checking whether 4 symmetric matrices of dimension 96 fit in memory
:Max Core in MB      =   4096.00
 MB in use           =      2.78
 MB left             =   4093.22
 MB needed           =      0.14
 Data fit in memory  = YES
Calculating Nuclear repulsion               ... done (  0.0 sec) ENN=     11.815837557985 Eh

Diagonalization of the overlap matrix:
Smallest eigenvalue                        ... 4.294e-03
Time for diagonalization                   ...    0.001 sec
Threshold for overlap eigenvalues          ... 1.000e-07
Number of eigenvalues below threshold      ... 0
Time for construction of square roots      ...    0.002 sec
Total time needed                          ...    0.004 sec

-------------------
DFT GRID GENERATION
-------------------

General Integration Accuracy     IntAcc      ... 4.388
Radial Grid Type                 RadialGrid  ... OptM3 with GC (2021)
Angular Grid (max. ang.)         AngularGrid ... 4 (Lebedev-302)
Angular grid pruning method      GridPruning ... 4 (adaptive)
Weight generation scheme         WeightScheme... mBecke (2022)
Basis function cutoff            BFCut       ... 1.0000e-11
Integration weight cutoff        WCut        ... 1.0000e-14
Partially contracted basis set               ... off
Rotationally invariant grid construction     ... off
Angular grids for H and He will be reduced by one unit

Total number of grid points                  ...    13486
Total number of batches                      ...      212
Average number of points per batch           ...       63
Average number of grid points per atom       ...     6743

---------------------
SHARK GRID GENERATION
---------------------

General Integration Accuracy     IntAcc      ... 4.388
Radial Grid Type                 RadialGrid  ... OptM3 with GC (2021)
Angular Grid (max. ang.)         AngularGrid ... 4 (Lebedev-302)
Angular grid pruning method      GridPruning ... 4 (adaptive)
Weight generation scheme         WeightScheme... mBecke (2022)
Basis function cutoff            BFCut       ... 1.0000e-11
Integration weight cutoff        WCut        ... 1.0000e-14
Partially contracted basis set               ... off
Rotationally invariant grid construction     ... off
Angular grids for H and He will be reduced by one unit
Core-polarized basis detected: some atoms will have their core
                               angular grid increased.
Steep s-basis detected: some atoms will have their radial
                        grid points doubled.

Total number of grid points                  ...    31699
Total number of batches                      ...      497
Average number of points per batch           ...       63
Average number of grid points per atom       ...    15850
Grids setup in   1.1 sec
Initializing property integral containers    ... done (  0.0 sec)

SHARK setup successfully completed in   1.2 seconds

Maximum memory used throughout the entire STARTUP-calculation: 47.6 MB


           ************************************************************
           *        Program running with 8 parallel MPI-processes     *
           *              working on a common directory               *
           ************************************************************
-------------------------------------------------------------------------------
                                 ORCA GUESS
                   Start orbitals & Density for SCF / CASSCF
-------------------------------------------------------------------------------

------------
SCF SETTINGS
------------
Hamiltonian:
 Density Functional     Method          .... DFT(GTOs)
  Functional kind                       .... Exchange
  Functional name                       .... Perdew & Wang 91
  Functional family                     .... GGA
  Functional refs                              
    [ 0] J. P. Perdew. In P. Ziesche and H. Eschrig, editors, Proceedings of the 75. WE-Heraeus-Seminar and 21st Annual International Symposium on Electronic Structure of Solids, 11. Berlin, 1991. Akademie Verlag.
    [ 1] J. P. Perdew, J. A. Chevary, S. H. Vosko, K. A. Jackson, M. R. Pederson, D. J. Singh, and C. Fiolhais.,  Phys. Rev. B 46, 6671 (1992), doi: 10.1103/PhysRevB.46.6671
    [ 2] J. P. Perdew, J. A. Chevary, S. H. Vosko, K. A. Jackson, M. R. Pederson, D. J. Singh, and C. Fiolhais.,  Phys. Rev. B 48, 4978 (1993), doi: 10.1103/PhysRevB.48.4978.2
  Functional external parameters        .... 7
    Parameter  0 _a         =  1.964500e-01 : a parameter         
    Parameter  1 _b         =  7.795600e+00 : b parameter         
    Parameter  2 _c         =  2.743000e-01 : c parameter         
    Parameter  3 _d         = -1.508000e-01 : d parameter         
    Parameter  4 _f         =  4.000000e-03 : f parameter         
    Parameter  5 _alpha     =  1.000000e+02 : alpha parameter     
    Parameter  6 _expo      =  4.000000e+00 : exponent            
 Correlation Functional Correlation     .... No Correlation
 Gradients option       PostSCFGGA      .... off


General Settings:
 Integral files         IntName         .... /cluster/projects/nn14654k/ylvaos/basis_set_n_funcs/functionals/gga_x_pw91/LiS/inp/LiS_gga_x_pw91_ccpvtz
 Hartree-Fock type      HFTyp           .... UHF
 Total Charge           Charge          ....    0
 Multiplicity           Mult            ....    2
 Number of Electrons    NEL             ....   19
 Basis Dimension        Dim             ....   64
 Nuclear Repulsion      ENuc            ....     11.8158375580 Eh

Convergence Acceleration:
 AO-DIIS                CNVDIIS         .... on
   Start iteration      DIISMaxIt       ....    12
   Startup error        DIISStart       ....  0.200000
   # of expansion vecs  DIISMaxEq       ....     5
   Bias factor          DIISBfac        ....   1.050
   Max. coefficient     DIISMaxC        ....  10.000
 MO-DIIS                CNVKDIIS        .... off
 Trust-Rad. Augm. Hess. CNVTRAH         .... auto
   Auto Start mean grad. ratio tolernc. ....  1.125000
   Auto Start start iteration           ....    50
   Auto Start num. interpolation iter.  ....    10
   Max. Number of Micro iterations      ....    24
   Max. Number of Macro iterations      .... Maxiter - #DIIS iter
   Number of Davidson start vectors     ....     2
   Converg. threshold    (grad. norm)   ....   1.000e-05
   Grad. Scal. Fac. for Micro threshold ....   0.100
   Minimum threshold for Micro iter.    ....   1.000e-02
   NR start threshold (gradient norm)   ....   1.000e-04
   Initial trust radius                 ....   0.400
   Minimum AH scaling param. (alpha)    ....   1.000
   Maximum AH scaling param. (alpha)    .... 1000.000
   Quad. conv. algorithm                .... NR
   White noise on init. David. guess    .... on
   Maximum white noise                  ....   0.010
   Pseudo random numbers                .... off
   Inactive MOs                         .... canonical
   Orbital update algorithm             .... Taylor
   Preconditioner                       .... Diag
   Full preconditioner red. dimension   ....   250
 SOSCF                 CNVSOSCF           .... on
   Start iteration     SOSCFMaxIt         ....   150
   Startup grad/error  SOSCFStart         ....  0.003300
   Hessian update      SOSCFHessUp        .... L-BFGS
   Autom. constraints  SOSCFAutoConstrain .... off
 Level Shifting         CNVShift        .... on
   Level shift para.    LevelShift      ....    0.2500
   Turn off err/grad.   ShiftErr        ....    0.0010
 Zerner damping         CNVZerner       .... off
 Static damping         CNVDamp         .... on
   Fraction old density DampFac         ....    0.7000
   Max. Damping (<1)    DampMax         ....    0.9800
   Min. Damping (>=0)   DampMin         ....    0.0000
   Turn off err/grad.   DampErr         ....    0.1000

SCF Procedure:
 Maximum # iterations   MaxIter         ....   125
 SCF integral mode      SCFMode         .... Direct
   Integral package                     .... SHARK and LIBINT hybrid scheme
 Reset frequency        DirectResetFreq ....    20
 Integral Threshold     Thresh          ....  2.500e-11 Eh
 Primitive CutOff       TCut            ....  2.500e-12 Eh

Convergence Tolerance:
 Convergence Check Mode ConvCheckMode   .... Total+1el-Energy
 Convergence forced     ConvForced      .... 0
 Energy Change          TolE            ....  1.000e-08 Eh
 1-El. energy change                    ....  1.000e-05 Eh
 Orbital Gradient       TolG            ....  1.000e-05
 Orbital Rotation angle TolX            ....  1.000e-05
 DIIS Error             TolErr          ....  5.000e-07

------------------------------
INITIAL GUESS: MODEL POTENTIAL
------------------------------
Loading Hartree-Fock densities                     ... done
Calculating cut-offs                               ... done
Initializing the effective Hamiltonian             ... done
Setting up the integral package (SHARK)            ... done
Starting the Coulomb interaction                   ... done (   0.0 sec)
Making the grid                                    ... done (   0.0 sec)
Mapping shells                                     ... done
Starting the XC term evaluation                    ... done (   0.0 sec)
  promolecular density results
     # of electrons  =     18.999659774
     EX              =    -26.701291569
     EC              =      0.000000000
     EX+EC           =    -26.701291569
Transforming the Hamiltonian                       ... done (   0.0 sec)
Diagonalizing the Hamiltonian                      ... done (   0.0 sec)
Back transforming the eigenvectors                 ... done (   0.0 sec)
Now organizing SCF variables                       ... done
                      ------------------
                      INITIAL GUESS DONE (   0.1 sec)
                      ------------------
             **** ENERGY FILE WAS UPDATED (/cluster/projects/nn14654k/ylvaos/basis_set_n_funcs/functionals/gga_x_pw91/LiS/inp/LiS_gga_x_pw91_ccpvtz.en.tmp) ****
Finished Guess after   0.1 sec
Maximum memory used throughout the entire GUESS-calculation: 6.4 MB


           ************************************************************
           *        Program running with 8 parallel MPI-processes     *
           *              working on a common directory               *
           ************************************************************

-------------------------------------------------------------------------------------------
                                      ORCA LEAN-SCF
                              memory conserving SCF solver
-------------------------------------------------------------------------------------------

----------------------------------------D-I-I-S--------------------------------------------
Iteration    Energy (Eh)           Delta-E    RMSDP     MaxDP     DIISErr   Damp  Time(sec)
-------------------------------------------------------------------------------------------
               ***  Starting incremental Fock matrix formation  ***
    1    -404.9298093232446831     0.00e+00  3.87e-03  2.46e-02  5.43e-02  0.700   0.1
Warning: op=0 Small HOMO/LUMO gap (   0.030) - skipping pre-diagonalization
         Will do a full diagonalization
    2    -404.9456673585125941    -1.59e-02  3.53e-03  2.29e-02  2.94e-02  0.700   0.1
                               ***Turning on AO-DIIS***
    3    -404.9531136663858319    -7.45e-03  1.61e-03  1.01e-02  1.25e-02  0.700   0.1
    4    -404.9567268977680214    -3.61e-03  2.61e-03  1.37e-02  8.58e-03  0.000   0.1
    5    -404.9648101460435896    -8.08e-03  7.11e-04  4.34e-03  6.15e-03  0.000   0.1
                              *** Initializing SOSCF ***
---------------------------------------S-O-S-C-F--------------------------------------
Iteration    Energy (Eh)           Delta-E    RMSDP     MaxDP     MaxGrad    Time(sec)
--------------------------------------------------------------------------------------
    6    -404.9652118961647602    -4.02e-04  3.01e-04  1.46e-03  3.02e-03     0.1
               *** Restarting incremental Fock matrix formation ***
    7    -404.9653050177163323    -9.31e-05  3.95e-04  1.91e-03  1.44e-03     0.1
    8    -404.9653217033021519    -1.67e-05  2.11e-04  1.20e-03  1.23e-03     0.1
    9    -404.9653402631946051    -1.86e-05  5.01e-05  2.05e-04  2.09e-04     0.1
   10    -404.9653406386892129    -3.75e-07  1.76e-05  1.07e-04  6.91e-05     0.1
   11    -404.9653407253047135    -8.66e-08  7.45e-06  4.42e-05  3.21e-05     0.1
   12    -404.9653407360078177    -1.07e-08  2.92e-06  1.74e-05  1.41e-05     0.1
   13    -404.9653407378648353    -1.86e-09  1.31e-06  8.17e-06  3.20e-06     0.1
                 **** Energy Check signals convergence ****

               *****************************************************
               *                     SUCCESS                       *
               *           SCF CONVERGED AFTER  13 CYCLES          *
               *****************************************************

             **** ENERGY FILE WAS UPDATED (/cluster/projects/nn14654k/ylvaos/basis_set_n_funcs/functionals/gga_x_pw91/LiS/inp/LiS_gga_x_pw91_ccpvtz.en.tmp) ****

----------------
TOTAL SCF ENERGY
----------------

Total Energy       :       -404.96534073814354 Eh          -11019.66715 eV

Components:
Nuclear Repulsion  :         11.81583755798484 Eh             321.52529 eV
Electronic Energy  :       -416.78117829612836 Eh          -11341.19244 eV
One Electron Energy:       -584.07802204953850 Eh          -15893.57099 eV
Two Electron Energy:        167.29684375341017 Eh            4552.37856 eV

Virial components:
Potential Energy   :       -809.13637277241673 Eh          -22017.72006 eV
Kinetic Energy     :        404.17103203427320 Eh           10998.05291 eV
Virial Ratio       :          2.00196527865907

DFT components:
N(Alpha)           :        9.999971975939 electrons
N(Beta)            :        8.999968662429 electrons
N(Total)           :       18.999940638368 electrons
E(X)               :      -26.771207821759 Eh       
E(C)               :        0.000000000000 Eh       
E(XC)              :      -26.771207821759 Eh       

---------------
SCF CONVERGENCE
---------------

  Last Energy change         ...    1.8570e-09  Tolerance :   1.0000e-08
  Last MAX-Density change    ...    8.1733e-06  Tolerance :   1.0000e-07
  Last RMS-Density change    ...    1.3111e-06  Tolerance :   5.0000e-09
  Last DIIS Error            ...    3.0229e-03  Tolerance :   5.0000e-07
  Last Orbital Gradient      ...    3.2027e-06  Tolerance :   1.0000e-05
  Last Orbital Rotation      ...    2.8038e-05  Tolerance :   1.0000e-05


----------------------
UHF SPIN CONTAMINATION
----------------------

Warning: in a DFT calculation there is little theoretical justification to 
         calculate <S**2> as in Hartree-Fock theory. We will do it anyways
         but you should keep in mind that the values have only limited relevance

Expectation value of <S**2>     :     0.756680
Ideal value S*(S+1) for S=0.5   :     0.750000
Deviation                       :     0.006680

----------------
ORBITAL ENERGIES
----------------
                 SPIN UP ORBITALS
  NO   OCC          E(Eh)            E(eV) 
   0   1.0000     -88.053700     -2396.0630 
   1   1.0000      -7.585991      -206.4253 
   2   1.0000      -5.624974      -153.0633 
   3   1.0000      -5.608846      -152.6244 
   4   1.0000      -5.608522      -152.6156 
   5   1.0000      -1.864779       -50.7432 
   6   1.0000      -0.529022       -14.3954 
   7   1.0000      -0.195840        -5.3291 
   8   1.0000      -0.171214        -4.6590 
   9   1.0000      -0.149914        -4.0794 
  10   0.0000      -0.075763        -2.0616 
  11   0.0000      -0.014873        -0.4047 
  12   0.0000      -0.009641        -0.2624 
  13   0.0000       0.010493         0.2855 
  14   0.0000       0.046358         1.2615 
  15   0.0000       0.052040         1.4161 
  16   0.0000       0.055228         1.5028 
  17   0.0000       0.123312         3.3555 
  18   0.0000       0.124518         3.3883 
  19   0.0000       0.126446         3.4408 
  20   0.0000       0.153443         4.1754 

                 SPIN DOWN ORBITALS
  NO   OCC          E(Eh)            E(eV) 
   0   1.0000     -88.049468     -2395.9478 
   1   1.0000      -7.580888      -206.2864 
   2   1.0000      -5.611461      -152.6956 
   3   1.0000      -5.605810      -152.5418 
   4   1.0000      -5.605358      -152.5295 
   5   1.0000      -1.865038       -50.7503 
   6   1.0000      -0.485283       -13.2052 
   7   1.0000      -0.156152        -4.2491 
   8   1.0000      -0.135208        -3.6792 
   9   0.0000      -0.115958        -3.1554 
  10   0.0000      -0.075560        -2.0561 
  11   0.0000      -0.009640        -0.2623 
  12   0.0000      -0.003398        -0.0925 
  13   0.0000       0.013333         0.3628 
  14   0.0000       0.048320         1.3148 
  15   0.0000       0.053110         1.4452 
  16   0.0000       0.059497         1.6190 
  17   0.0000       0.125173         3.4061 
  18   0.0000       0.129342         3.5196 
  19   0.0000       0.130163         3.5419 
*Only the first 10 virtual orbitals were printed.

                    ********************************
                    * MULLIKEN POPULATION ANALYSIS *
                    ********************************

--------------------------------------------
MULLIKEN ATOMIC CHARGES AND SPIN POPULATIONS
--------------------------------------------
   0 Li:    0.254593    0.010585
   1 S :   -0.254593    0.989415
Sum of atomic charges         :   -0.0000000
Sum of atomic spin populations:    1.0000000

-----------------------------------------------------
MULLIKEN REDUCED ORBITAL CHARGES AND SPIN POPULATIONS
-----------------------------------------------------
CHARGE
  0 Lis       :     2.226396  s :     2.226396
      pz      :     0.180068  p :     0.401747
      px      :     0.148941
      py      :     0.072737
      dz2     :     0.040584  d :     0.099578
      dxz     :     0.036457
      dyz     :     0.022467
      dx2y2   :     0.000025
      dxy     :     0.000045
      f0      :     0.004105  f :     0.017687
      f+1     :     0.007885
      f-1     :     0.005611
      f+2     :     0.000017
      f-2     :     0.000031
      f+3     :     0.000015
      f-3     :     0.000022

  1 S s       :     5.872796  s :     5.872796
      pz      :     3.669288  p :    10.371402
      px      :     3.603102
      py      :     3.099012
      dz2     :     0.004836  d :     0.009500
      dxz     :     0.001926
      dyz     :     0.001343
      dx2y2   :     0.000497
      dxy     :     0.000897
      f0      :     0.000266  f :     0.000895
      f+1     :     0.000080
      f-1     :     0.000008
      f+2     :     0.000053
      f-2     :     0.000096
      f+3     :     0.000184
      f-3     :     0.000209


SPIN
  0 Lis       :    -0.023078  s :    -0.023078
      pz      :    -0.010132  p :     0.014751
      px      :    -0.008226
      py      :     0.033109
      dz2     :    -0.002628  d :     0.013810
      dxz     :     0.002482
      dyz     :     0.013902
      dx2y2   :     0.000019
      dxy     :     0.000035
      f0      :    -0.000046  f :     0.005102
      f+1     :     0.001171
      f-1     :     0.003903
      f+2     :     0.000014
      f-2     :     0.000025
      f+3     :     0.000015
      f-3     :     0.000020

  1 S s       :     0.015847  s :     0.015847
      pz      :     0.018959  p :     0.971184
      px      :     0.205605
      py      :     0.746619
      dz2     :     0.000106  d :     0.002163
      dxz     :     0.000241
      dyz     :     0.000918
      dx2y2   :     0.000320
      dxy     :     0.000578
      f0      :    -0.000135  f :     0.000222
      f+1     :    -0.000077
      f-1     :    -0.000031
      f+2     :     0.000041
      f-2     :     0.000075
      f+3     :     0.000182
      f-3     :     0.000166



                     *******************************
                     * LOEWDIN POPULATION ANALYSIS *
                     *******************************

-------------------------------------------
LOEWDIN ATOMIC CHARGES AND SPIN POPULATIONS
-------------------------------------------
   0 Li:   -0.484648    0.150410
   1 S :    0.484648    0.849590

----------------------------------------------------
LOEWDIN REDUCED ORBITAL CHARGES AND SPIN POPULATIONS
----------------------------------------------------
CHARGE
  0 Lis       :     2.250397  s :     2.250397
      pz      :     0.324427  p :     0.628932
      px      :     0.199269
      py      :     0.105236
      dz2     :     0.187237  d :     0.388778
      dxz     :     0.120774
      dyz     :     0.080690
      dx2y2   :     0.000028
      dxy     :     0.000050
      f0      :     0.080721  f :     0.216540
      f+1     :     0.079162
      f-1     :     0.056549
      f+2     :     0.000025
      f-2     :     0.000045
      f+3     :     0.000016
      f-3     :     0.000022

  1 S s       :     5.471244  s :     5.471244
      pz      :     3.676971  p :    10.034131
      px      :     3.398803
      py      :     2.958357
      dz2     :     0.006982  d :     0.008965
      dxz     :     0.000347
      dyz     :     0.000271
      dx2y2   :     0.000487
      dxy     :     0.000878
      f0      :     0.000359  f :     0.001013
      f+1     :     0.000037
      f-1     :     0.000076
      f+2     :     0.000053
      f-2     :     0.000095
      f+3     :     0.000183
      f-3     :     0.000208


SPIN
  0 Lis       :    -0.015010  s :    -0.015010
      pz      :    -0.003366  p :     0.047849
      px      :    -0.002953
      py      :     0.054168
      dz2     :     0.000742  d :     0.067687
      dxz     :     0.013794
      dyz     :     0.053092
      dx2y2   :     0.000021
      dxy     :     0.000038
      f0      :     0.000959  f :     0.049883
      f+1     :     0.011230
      f-1     :     0.037606
      f+2     :     0.000019
      f-2     :     0.000034
      f+3     :     0.000015
      f-3     :     0.000020

  1 S s       :     0.005707  s :     0.005707
      pz      :     0.009753  p :     0.842177
      px      :     0.179079
      py      :     0.653345
      dz2     :     0.000198  d :     0.001263
      dxz     :     0.000041
      dyz     :     0.000144
      dx2y2   :     0.000314
      dxy     :     0.000566
      f0      :    -0.000092  f :     0.000442
      f+1     :     0.000004
      f-1     :     0.000066
      f+2     :     0.000041
      f-2     :     0.000074
      f+3     :     0.000182
      f-3     :     0.000166



                      *****************************
                      * MAYER POPULATION ANALYSIS *
                      *****************************

  NA   - Mulliken gross atomic population
  ZA   - Total nuclear charge
  QA   - Mulliken gross atomic charge
  VA   - Mayer's total valence
  BVA  - Mayer's bonded valence
  FA   - Mayer's free valence

  ATOM       NA         ZA         QA         VA         BVA        FA
  0 Li     2.7454     3.0000     0.2546     1.2794     1.2729     0.0065
  1 S     16.2546    16.0000    -0.2546     2.1477     1.2729     0.8749

  Mayer bond orders larger than 0.100000
B(  0-Li,  1-S ) :   1.2729 

-------
TIMINGS
-------

Total SCF time: 0 days 0 hours 0 min 1 sec 

Total time                  ....       1.388 sec
Sum of individual times     ....       1.298 sec  ( 93.5%)

SCF preparation             ....       0.067 sec  (  4.8%)
Fock matrix formation       ....       0.791 sec  ( 57.0%)
  Startup                   ....       0.017 sec  (  2.1% of F)
  Coulomb formation         ....       0.214 sec  ( 27.1% of F)
  XC integration            ....       0.316 sec  ( 40.0% of F)
    XC Preparation          ....       0.000 sec  (  0.0% of XC)
    Basis function eval.    ....       0.022 sec  (  7.1% of XC)
    Density eval.           ....       0.011 sec  (  3.6% of XC)
    XC-Functional eval.     ....       0.010 sec  (  3.2% of XC)
    XC-Potential eval.      ....       0.030 sec  (  9.6% of XC)
Diagonalization             ....       0.000 sec  (  0.0%)
Density matrix formation    ....       0.107 sec  (  7.7%)
Total Energy calculation    ....       0.023 sec  (  1.6%)
Population analysis         ....       0.015 sec  (  1.1%)
Orbital Transformation      ....       0.020 sec  (  1.4%)
Orbital Orthonormalization  ....       0.000 sec  (  0.0%)
DIIS solution               ....       0.185 sec  ( 13.3%)
SOSCF solution              ....       0.091 sec  (  6.6%)
Finished LeanSCF after   1.7 sec

Maximum memory used throughout the entire LEANSCF-calculation: 10.7 MB


           ************************************************************
           *        Program running with 8 parallel MPI-processes     *
           *              working on a common directory               *
           ************************************************************

------------------------------------------------------------------------------
                         ORCA PROPERTY INTEGRAL CALCULATIONS
------------------------------------------------------------------------------

GBWName                                   ... /cluster/projects/nn14654k/ylvaos/basis_set_n_funcs/functionals/gga_x_pw91/LiS/inp/LiS_gga_x_pw91_ccpvtz.gbw
Number of atoms                           ...      2
Number of basis functions                 ...     96
Max core memory                           ...   4096 MB

Dipole integrals                          ... YES
Quadrupole integrals                      ... YES
Linear momentum integrals                 ...  NO
Angular momentum integrals                ...  NO
Higher moments length integrals           ...  NO
Higher moments velocity integrals         ...  NO
Kinetic energy integrals                  ...  NO
GIAO right hand sides                     ...  NO
GIAO dipole derivative integrals          ...  NO
SOC integrals                             ...  NO
EPR diamagnetic integrals (GIAO)          ...  NO
EPR gauge integrals                       ...  NO
Field gradient integrals                  ...  NO (   0 nuclei)
Spin-dipole/Fermi contact integrals       ...  NO (   0 nuclei)
Contact density integrals                 ...  NO (   0 nuclei)
Nucleus-orbit integrals                   ...  NO (   0 nuclei)
Geometric perturbations                   ...  NO (   2 nuclei)

Choice of electric origin   ... Center of mass
Position of electric origin ... (  0.0000,  0.0000,  1.3082) 
Choice of magnetic origin   ... GIAO
Position of magnetic origin ... (  0.0000,  0.0000,  0.0000) 

Calculating integrals                     ... Electric Dipole (Length)     done (  0.0 sec)
Calculating integrals                     ... Electric Quadrupole (Length) done (  0.0 sec)

Property integrals calculated in   0.0 sec

Maximum memory used throughout the entire PROPINT-calculation: 6.7 MB
------------------------------------------------------------------------------
                           ORCA ORBITAL LOCALIZATION
------------------------------------------------------------------------------

Input orbitals are from                  ... /cluster/projects/nn14654k/ylvaos/basis_set_n_funcs/functionals/gga_x_pw91/LiS/inp/LiS_gga_x_pw91_ccpvtz.gbw
Output orbitals are to                   ... /cluster/projects/nn14654k/ylvaos/basis_set_n_funcs/functionals/gga_x_pw91/LiS/inp/LiS_gga_x_pw91_ccpvtz.loc
Max. number of iterations                ... 128
Localizations seeded randomly            ... on
Convergence tolerance                    ... 1.000e-06
Threshold for strong local MOs           ... 9.500e-01
Threshold for bond MOs                   ... 8.500e-01
Operator                                 ... 0
Orbital range for localization           ... 5 to 9
Localization criterion                   ... NEW-BOYS
Doing the dipole integrals               ... o.k.
Initial value of the localization sum :    12.394387
ITERATION   0 : L=   15.4535102011 DL=  3.06e+00 (AVERGE_DL)=    0.5530934214 
ITERATION   1 : L=   15.6974451544 DL=  2.44e-01 (AVERGE_DL)=    0.1561841712 
ITERATION   2 : L=   15.7501751983 DL=  5.27e-02 (AVERGE_DL)=    0.0726154555 
ITERATION   3 : L=   15.7858241163 DL=  3.56e-02 (AVERGE_DL)=    0.0597067149 
ITERATION   4 : L=   15.7995903281 DL=  1.38e-02 (AVERGE_DL)=    0.0371028459 
ITERATION   5 : L=   15.8060847323 DL=  6.49e-03 (AVERGE_DL)=    0.0254841210 
ITERATION   6 : L=   15.8089907067 DL=  2.91e-03 (AVERGE_DL)=    0.0170469188 
ITERATION   7 : L=   15.8105098943 DL=  1.52e-03 (AVERGE_DL)=    0.0123255329 
ITERATION   8 : L=   15.8114369225 DL=  9.27e-04 (AVERGE_DL)=    0.0096282306 
ITERATION   9 : L=   15.8120998973 DL=  6.63e-04 (AVERGE_DL)=    0.0081423261 
ITERATION  10 : L=   15.8126271440 DL=  5.27e-04 (AVERGE_DL)=    0.0072611755 
ITERATION  11 : L=   15.8130725035 DL=  4.45e-04 (AVERGE_DL)=    0.0066735262 
ITERATION  12 : L=   15.8134604400 DL=  3.88e-04 (AVERGE_DL)=    0.0062284549 
ITERATION  13 : L=   15.8138036079 DL=  3.43e-04 (AVERGE_DL)=    0.0058580535 
ITERATION  14 : L=   15.8141095373 DL=  3.06e-04 (AVERGE_DL)=    0.0055310888 
ITERATION  15 : L=   15.8143832995 DL=  2.74e-04 (AVERGE_DL)=    0.0052322291 
ITERATION  16 : L=   15.8146286419 DL=  2.45e-04 (AVERGE_DL)=    0.0049532051 
ITERATION  17 : L=   15.8148485246 DL=  2.20e-04 (AVERGE_DL)=    0.0046891643 
ITERATION  18 : L=   15.8150454044 DL=  1.97e-04 (AVERGE_DL)=    0.0044371141 
ITERATION  19 : L=   15.8152214001 DL=  1.76e-04 (AVERGE_DL)=    0.0041951847 
ITERATION  20 : L=   15.8153783947 DL=  1.57e-04 (AVERGE_DL)=    0.0039622546 
ITERATION  21 : L=   15.8155180987 DL=  1.40e-04 (AVERGE_DL)=    0.0037376989 
ITERATION  22 : L=   15.8156420888 DL=  1.24e-04 (AVERGE_DL)=    0.0035212229 
ITERATION  23 : L=   15.8157518320 DL=  1.10e-04 (AVERGE_DL)=    0.0033127513 
ITERATION  24 : L=   15.8158486984 DL=  9.69e-05 (AVERGE_DL)=    0.0031123364 
ITERATION  25 : L=   15.8159339667 DL=  8.53e-05 (AVERGE_DL)=    0.0029200741 
ITERATION  26 : L=   15.8160088280 DL=  7.49e-05 (AVERGE_DL)=    0.0027360800 
ITERATION  27 : L=   15.8160743870 DL=  6.56e-05 (AVERGE_DL)=    0.0025604492 
ITERATION  28 : L=   15.8161316632 DL=  5.73e-05 (AVERGE_DL)=    0.0023932444 
ITERATION  29 : L=   15.8161815914 DL=  4.99e-05 (AVERGE_DL)=    0.0022344614 
ITERATION  30 : L=   15.8162250245 DL=  4.34e-05 (AVERGE_DL)=    0.0020840618 
ITERATION  31 : L=   15.8162627352 DL=  3.77e-05 (AVERGE_DL)=    0.0019419228 
ITERATION  32 : L=   15.8162954205 DL=  3.27e-05 (AVERGE_DL)=    0.0018079077 
ITERATION  33 : L=   15.8163237053 DL=  2.83e-05 (AVERGE_DL)=    0.0016818083 
ITERATION  34 : L=   15.8163481469 DL=  2.44e-05 (AVERGE_DL)=    0.0015633832 
ITERATION  35 : L=   15.8163692406 DL=  2.11e-05 (AVERGE_DL)=    0.0014523652 
ITERATION  36 : L=   15.8163874239 DL=  1.82e-05 (AVERGE_DL)=    0.0013484561 
ITERATION  37 : L=   15.8164030823 DL=  1.57e-05 (AVERGE_DL)=    0.0012513352 
ITERATION  38 : L=   15.8164165541 DL=  1.35e-05 (AVERGE_DL)=    0.0011606816 
ITERATION  39 : L=   15.8164281354 DL=  1.16e-05 (AVERGE_DL)=    0.0010761617 
ITERATION  40 : L=   15.8164380842 DL=  9.95e-06 (AVERGE_DL)=    0.0009974374 
ITERATION  41 : L=   15.8164466252 DL=  8.54e-06 (AVERGE_DL)=    0.0009241748 
ITERATION  42 : L=   15.8164539535 DL=  7.33e-06 (AVERGE_DL)=    0.0008560568 
ITERATION  43 : L=   15.8164602380 DL=  6.28e-06 (AVERGE_DL)=    0.0007927486 
ITERATION  44 : L=   15.8164656250 DL=  5.39e-06 (AVERGE_DL)=    0.0007339615 
ITERATION  45 : L=   15.8164702407 DL=  4.62e-06 (AVERGE_DL)=    0.0006793860 
ITERATION  46 : L=   15.8164741939 DL=  3.95e-06 (AVERGE_DL)=    0.0006287508 
ITERATION  47 : L=   15.8164775803 DL=  3.39e-06 (AVERGE_DL)=    0.0005819263 
ITERATION  48 : L=   15.8164804769 DL=  2.90e-06 (AVERGE_DL)=    0.0005381993 
ITERATION  49 : L=   15.8164829553 DL=  2.48e-06 (AVERGE_DL)=    0.0004978310 
ITERATION  50 : L=   15.8164850751 DL=  2.12e-06 (AVERGE_DL)=    0.0004604118 
ITERATION  51 : L=   15.8164868876 DL=  1.81e-06 (AVERGE_DL)=    0.0004257415 
ITERATION  52 : L=   15.8164884370 DL=  1.55e-06 (AVERGE_DL)=    0.0003936180 
ITERATION  53 : L=   15.8164897609 DL=  1.32e-06 (AVERGE_DL)=    0.0003638589 
ITERATION  54 : L=   15.8164908919 DL=  1.13e-06 (AVERGE_DL)=    0.0003363009 
ITERATION  55 : L=   15.8164918576 DL=  9.66e-07 (AVERGE_DL)=    0.0003107664 
LOCALIZATION SUM CONVERGED


--------------------------------------------------------------------------------
                    LOCALIZED MOLECULAR ORBITAL COMPOSITIONS
--------------------------------------------------------------------------------

The Mulliken populations for each LMO on each atom are computed
The LMO`s will be ordered according to atom index and type
  (A) Strongly localized MO`s have populations of >=0.950 on one atom
  (B) Two center bond orbitals have populations of >=0.850 on two atoms
  (C) Other MO`s are considered to be `delocalized`

FOUND  -   2 strongly local MO`s
       -   3 two center bond MO`s
       -   0 significantly delocalized MO`s

Rather strongly localized orbitals:
MO   6:   1S  -   0.955472
MO   5:   0Li -   1.000474
Bond-like localized orbitals:
MO   9:   1S  -   0.870744  and   0Li -   0.129256
MO   8:   1S  -   0.870465  and   0Li -   0.129535
MO   7:   1S  -   0.924781  and   0Li -   0.075219
Localized MO's were stored in: /cluster/projects/nn14654k/ylvaos/basis_set_n_funcs/functionals/gga_x_pw91/LiS/inp/LiS_gga_x_pw91_ccpvtz.loc
------------------------------------------------------------------------------
                           ORCA ORBITAL LOCALIZATION
------------------------------------------------------------------------------

Input orbitals are from                  ... /cluster/projects/nn14654k/ylvaos/basis_set_n_funcs/functionals/gga_x_pw91/LiS/inp/LiS_gga_x_pw91_ccpvtz.loc
Output orbitals are to                   ... /cluster/projects/nn14654k/ylvaos/basis_set_n_funcs/functionals/gga_x_pw91/LiS/inp/LiS_gga_x_pw91_ccpvtz.loc
Max. number of iterations                ... 128
Localizations seeded randomly            ... on
Convergence tolerance                    ... 1.000e-06
Threshold for strong local MOs           ... 9.500e-01
Threshold for bond MOs                   ... 8.500e-01
Operator                                 ... 1
Orbital range for localization           ... 5 to 8
Localization criterion                   ... NEW-BOYS
Doing the dipole integrals               ... o.k.
Initial value of the localization sum :    12.032919
ITERATION   0 : L=   14.6921679447 DL=  2.66e+00 (AVERGE_DL)=    0.6657387827 
ITERATION   1 : L=   14.7384848815 DL=  4.63e-02 (AVERGE_DL)=    0.0878606253 
ITERATION   2 : L=   14.7978273657 DL=  5.93e-02 (AVERGE_DL)=    0.0994505607 
ITERATION   3 : L=   14.9577934801 DL=  1.60e-01 (AVERGE_DL)=    0.1632820231 
ITERATION   4 : L=   15.1675109170 DL=  2.10e-01 (AVERGE_DL)=    0.1869569633 
ITERATION   5 : L=   15.2790484162 DL=  1.12e-01 (AVERGE_DL)=    0.1363436218 
ITERATION   6 : L=   15.3167477033 DL=  3.77e-02 (AVERGE_DL)=    0.0792667302 
ITERATION   7 : L=   15.3280819820 DL=  1.13e-02 (AVERGE_DL)=    0.0434631620 
ITERATION   8 : L=   15.3314375383 DL=  3.36e-03 (AVERGE_DL)=    0.0236486655 
ITERATION   9 : L=   15.3324356239 DL=  9.98e-04 (AVERGE_DL)=    0.0128975817 
ITERATION  10 : L=   15.3327343187 DL=  2.99e-04 (AVERGE_DL)=    0.0070556682 
ITERATION  11 : L=   15.3328240985 DL=  8.98e-05 (AVERGE_DL)=    0.0038682438 
ITERATION  12 : L=   15.3328511564 DL=  2.71e-05 (AVERGE_DL)=    0.0021235947 
ITERATION  13 : L=   15.3328593239 DL=  8.17e-06 (AVERGE_DL)=    0.0011667233 
ITERATION  14 : L=   15.3328617914 DL=  2.47e-06 (AVERGE_DL)=    0.0006412917 
ITERATION  15 : L=   15.3328625371 DL=  7.46e-07 (AVERGE_DL)=    0.0003525428 
LOCALIZATION SUM CONVERGED


--------------------------------------------------------------------------------
                    LOCALIZED MOLECULAR ORBITAL COMPOSITIONS
--------------------------------------------------------------------------------

The Mulliken populations for each LMO on each atom are computed
The LMO`s will be ordered according to atom index and type
  (A) Strongly localized MO`s have populations of >=0.950 on one atom
  (B) Two center bond orbitals have populations of >=0.850 on two atoms
  (C) Other MO`s are considered to be `delocalized`

FOUND  -   2 strongly local MO`s
       -   2 two center bond MO`s
       -   0 significantly delocalized MO`s

Rather strongly localized orbitals:
MO   6:   1S  -   0.962129
MO   5:   0Li -   1.000514
Bond-like localized orbitals:
MO   8:   1S  -   0.834959  and   0Li -   0.165041
MO   7:   1S  -   0.834874  and   0Li -   0.165126
Localized MO's were stored in: /cluster/projects/nn14654k/ylvaos/basis_set_n_funcs/functionals/gga_x_pw91/LiS/inp/LiS_gga_x_pw91_ccpvtz.loc

-------------------------   --------------------
FINAL SINGLE POINT ENERGY      -404.965340738144
-------------------------   --------------------



           ************************************************************
           *        Program running with 8 parallel MPI-processes     *
           *              working on a common directory               *
           ************************************************************

------------------------------------------------------------------------------
                              ORCA PROPERTY CALCULATIONS
------------------------------------------------------------------------------

GBWName                                 ... /cluster/projects/nn14654k/ylvaos/basis_set_n_funcs/functionals/gga_x_pw91/LiS/inp/LiS_gga_x_pw91_ccpvtz.gbw
Number of atoms                         ...      2
Number of basis functions               ...     96
Max core memory                         ...   4096 MB

Electric properties:
Dipole moment                           ... YES
Quadrupole moment                       ... YES
Static polarizability (Dipole/Dipole)   ...  NO
Static polarizability (Dipole/Quad.)    ...  NO
Static polarizability (Quad./Quad.)     ...  NO
Static polarizability (Velocity)        ...  NO
Static hyperpolarizability              ...  NO

Atomic electric properties:
Dipole moment                           ...  NO
Quadrupole moment                       ...  NO
Static polarizability                   ...  NO

Choice of electric origin               ... Center of mass
Position of electric origin             ...     0.000000     0.000000     1.308198

General magnetic properties:
Magnetizability                         ...  NO

EPR properties:
g-Tensor (aka g-matrix)                 ...  NO
Zero-Field splitting spin-orbit         ...  NO
Zero-field splitting spin-spin          ...  NO
Hyperfine couplings                     ...  NO (   0 nuclei)
Quadrupole couplings                    ...  NO (   0 nuclei)
Contact density                         ...  NO (   0 nuclei)

NMR properties:
Chemical shifts                         ...  NO (   0 nuclei)
Spin-rotation constants                 ...  NO (   0 nuclei)
Spin-spin couplings                     ...  NO (   0 nuclei,    0 pairs)

Choice of magnetic origin               ... GIAO
Position of magnetic origin             ...     0.000000     0.000000     0.000000

Properties with geometric perturbations:
SCF Hessian                             ...  NO
IR spectrum                             ...  NO
VCD spectrum                            ...  NO
X-ray spectroscopy properties:
SCF XES/XAS/RIXS spectra                ...  NO

SCF SOC stabilization energy            ...  NO
Diagonal Born-Oppenheimer correction    ...  NO

-------------
DIPOLE MOMENT
-------------

Method             : SCF
Type of density    : Electron Density
Multiplicity       :   2
Irrep              :   0
Energy             :  -404.9653407381435386 Eh
Basis              : AO
                                X                 Y                 Z
Electronic contribution:      0.000000000      -0.000000000      -4.012308756
Nuclear contribution   :      0.000000000       0.000000000       1.549484202
                        -----------------------------------------
Total Dipole Moment    :      0.000000000      -0.000000000      -2.462824554
                        -----------------------------------------
Magnitude (a.u.)       :      2.462824554
Magnitude (Debye)      :      6.260002527



--------------------
Rotational spectrum 
--------------------
 
Rotational constants in cm-1:             0.000000             0.639339             0.639339 
Rotational constants in MHz :             0.000000         19166.891897         19166.891897 

Dipole components along the rotational axes: 
x,y,z [a.u.] :    -2.462825    -0.000000     0.000000 
x,y,z [Debye]:    -6.260003    -0.000000     0.000000 

 

Dipole moment calculation done in   0.0 sec 

-----------------
QUADRUPOLE MOMENT
-----------------

Method             : SCF
Type of density    : Electron Density
Multiplicity       :   2
Irrep              :   0
Energy             :  -404.9653407381435386 Eh
Basis              : AO

                XX              YY              ZZ              XY              XZ              YZ
  NUC        0.000000000     0.000000000    41.817245673     0.000000000     0.000000000     0.000000000
  EL       -14.426621057   -12.769660159   -45.866097587     1.112626757     0.000000001    -0.000000001
  TOT      -14.426621057   -12.769660159    -4.048851914     1.112626757     0.000000001    -0.000000001 (a.u.)
           -19.404298713   -17.175629637    -5.445844295     1.496521040     0.000000002    -0.000000001 (Buckingham)

diagonalized tensor:
           -14.985338559   -12.210942658    -4.048851914 (a.u.)
           -20.155792861   -16.424135489    -5.445844295 (Buckingham)
           -18.441605938    -7.246633822    25.688239760 (traceless form in Buckingham)

             0.893653467    -0.448757708     0.000000000
            -0.448757708    -0.893653467    -0.000000000
            -0.000000000    -0.000000000     1.000000000
        
Isotropic quadrupole :   -10.415044377

Quadrupole moment calculation done in   0.0 sec (  0.0 sec for integrals)

Maximum memory used throughout the entire PROP-calculation: 3.1 MB

--------------------------------
SUGGESTED CITATIONS FOR THIS RUN
--------------------------------

Below you find a list of papers that are relevant to this ORCA run
We neither can nor want to force you to cite these papers, but we appreciate if you do
You receive ORCA, which is the product of decades of hard work by many enthusiastic individuals, for free
The only thing we kindly ask in return is that you cite our papers,
We deeply appreciate it, if you show your appreciation for ORCA by not just citing the generic ORCA reference.

Please note that relegating all ORCA citations to the supporting information does *not* help us.
SI sections are not indexed - citations you put there will not count into any citation statistics
But we need these citations in order to attract the funding resources that allow us to do what we are doing

Therefore, if you are a happy ORCA user, please consider citing a few of the papers listed below in the main body of your paper

In addition to the list printed below, the program has created the file /cluster/projects/nn14654k/ylvaos/basis_set_n_funcs/functionals/gga_x_pw91/LiS/inp/LiS_gga_x_pw91_ccpvtz.bibtex that contains the list in bibtex format
You can import this file easily into all common literature databanks and citation aid programs

It goes without saying that in many instances, there are alternative algorithms to achieve similar
results as the ones you have gotten from ORCA. It is, of course, also the case that in some instances
ORCA just re-implements algorithms worked out by others. We are fully aware of that and we are also
fully appreciative of our colleagues work. Hence this citation list should not be read as indicating
that the listed papers, which are focused on our own work, are the only ones worth citing. It simply
meant to make it easier for users to cite ORCA specific papers. It is not a substitute for doing your
own literature research and citing the relevant literature in a scientifically appropriate manner.

List of essential papers. We consider these as the minimum necessary citations

  1. Neese, F.
     Software update: the ORCA program system, version 6.0
     WIRES Comput. Molec. Sci. 2025 15(1), e70019
     doi.org/10.1002/wcms.70019

List of papers to cite with high priority. The work reported in these papers was absolutely
necessary for this run to complete.
Our perspective: the developers of density functionals and basis sets usually get cited in chemistry papers
Good! But without the algorithms to do something with them, the functionals or basis sets would not do anything.
Hence, in our opinion, the algorithm design and method developments papers are equally worthy of getting cited

  1. Lehtola, S.; Steigemann, C.; Oliveira, M.; Marques, M.
     Recent developments in Libxc - A comprehensive library of functionals for density functional theory
     Software X 2018 7 , 
     doi.org/10.1016/j.softx.2017.11.002
  2. Neese, F.
     The SHARK Integral Generation and Digestion System
     J. Comp. Chem. 2022 44(3), 381
     doi.org/10.1002/jcc.26942

List of suggested additional citations. These are papers that are important in the 'surrounding' of 
of this run, or papers that preceded the highly important papers. If you like your results we are grateful for a citation.

  1. Neese, F.
     The ORCA program system
     WIRES Comput. Molec. Sci. 2012 2(1), 73-78
     doi.org/10.1002/wcms.81
  2. Neese, F.
     Software update: the ORCA program system, version 4.0
     WIRES Comput. Molec. Sci. 2018 8(1), 1-6
     doi.org/10.1002/wcms.1327
  3. Neese, F.; Wennmohs, F.; Becker, U.; Riplinger, C.
     The ORCA quantum chemistry program package
     J. Chem. Phys. 2020 152(22), 224108
     doi.org/10.1063/5.0004608
  4. Neese, F.
     Software update: The ORCA program system—Version 5.0
     WIRES Comput. Molec. Sci. 2022 12(1), e1606
     doi.org/10.1002/wcms.1606

List of optional additional citations

  1. Neese, F.
     Approximate second-order SCF convergence for spin unrestricted wavefunctions
     Chem. Phys. Lett. 2000 325(1-3), 93-98
     doi.org/10.1016/s0009-2614(00)00662-x

Timings for individual modules:

Sum of individual times          ...        4.341 sec (=   0.072 min)
Startup calculation              ...        1.527 sec (=   0.025 min)  35.2 %
SCF iterations                   ...        2.281 sec (=   0.038 min)  52.5 %
Property integrals               ...        0.263 sec (=   0.004 min)   6.1 %
Property calculations            ...        0.264 sec (=   0.004 min)   6.1 %
Orbital localization             ...        0.007 sec (=   0.000 min)   0.2 %
                             ****ORCA TERMINATED NORMALLY****
TOTAL RUN TIME: 0 days 0 hours 0 minutes 5 seconds 214 msec
