
                                 *****************
                                 * O   R   C   A *
                                 *****************

                                            #,                                       
                                            ###                                      
                                            ####                                     
                                            #####                                    
                                            ######                                   
                                           ########,                                 
                                     ,,################,,,,,                         
                               ,,#################################,,                 
                          ,,##########################################,,             
                       ,#########################################, ''#####,          
                    ,#############################################,,   '####,        
                  ,##################################################,,,,####,       
                ,###########''''           ''''###############################       
              ,#####''   ,,,,##########,,,,          '''####'''          '####       
            ,##' ,,,,###########################,,,                        '##       
           ' ,,###''''                  '''############,,,                           
         ,,##''                                '''############,,,,        ,,,,,,###''
      ,#''                                            '''#######################'''  
     '                                                          ''''####''''         
             ,#######,   #######,   ,#######,      ##                                
            ,#'     '#,  ##    ##  ,#'     '#,    #''#        ,####,    ,#,          
            ##       ##  ##   ,#'  ##            #'  '#       #'       ,# #          
            ##       ##  #######   ##           ,######,      #####,      #          
            '#,     ,#'  ##    ##  '#,     ,#' ,#      #,     #,   #      #          
             '#######'   ##     ##  '#######'  #'      '#     '####' #    #          



                #########################################################
                #                        -***-                          #
                #          Department of theory and spectroscopy        #
                #                                                       #
                #                      Frank Neese                      #
                #                                                       #
                #     Directorship, Architecture, Infrastructure        #
                #                    SHARK, DRIVERS                     #
                #        Core code/Algorithms in most modules           #
                #                                                       #
                #        Max Planck Institute fuer Kohlenforschung      #
                #                Kaiser Wilhelm Platz 1                 #
                #                 D-45470 Muelheim/Ruhr                 #
                #                      Germany                          #
                #                                                       #
                #                  All rights reserved                  #
                #                        -***-                          #
                #########################################################


                         Program Version 6.1.1  -  RELEASE   -
                                (GIT: $487d211c$)
                          ($2025-11-21 10:33:24 +0100$)


 With contributions from (in alphabetic order):
[Max-Planck-Institut fuer Kohlenforschung]                               
  Daniel Aravena         : Magnetic Suceptibility                        
  Michael Atanasov       : Ab Initio Ligand Field Theory (pilot matlab implementation)
  Alexander A. Auer      : GIAO ZORA, VPT2 properties, NMR spectrum      
  Ute Becker             : All parallelization in ORCA, NUMFREQ, NUMCALC 
  Giovanni Bistoni       : ED, misc. LED, open-shell LED, HFLD           
  Dmytro Bykov           : pre 5.0 version of the SCF Hessian            
  Marcos Casanova-Páez   : Triplet and SCS-CIS(D). UHF-(DLPNO)-IP/EA/STEOM-CCSD. UHF-CVS-IP/STEOM-CCSD   
  Vijay G. Chilkuri      : MRCI spin determinant printing, contributions to CSF-ICE 
  Pauline Colinet        : FMM embedding                                 
  Dipayan Datta          : RHF DLPNO-CCSD density                        
  Achintya Kumar Dutta   : EOM-CC, STEOM-CC                              
  Nicolas Foglia         : Exact transition moments, OPA infrastructure, MCD improvements    
  Dmitry Ganyushin       : Spin-Orbit,Spin-Spin,Magnetic field MRCI      
  Miquel Garcia-Rates    : C-PCM and meta-GGA Hessian, CCSD/C-PCM, Gaussian charge scheme 
  Tiago L. C. Gouveia    : GS-ROHF, GS-ROCIS                             
  Yang Guo               : DLPNO-NEVPT2, F12-NEVPT2, CIM, IAO-localization        
  Andreas Hansen         : Spin unrestricted coupled pair/coupled cluster methods 
  Ingolf Harden          : AUTO-CI MPn and infrastructure                
  Benjamin Helmich-Paris : MC-RPA, TRAH-(SCF,CASSCF), AVAS, COSX integrals, SCF dyn. polar., MC-PDFT, srDFT 
  Lee Huntington         : MR-EOM, pCC                                   
  Robert Izsak           : Overlap fitted RIJCOSX, COSX-SCS-MP3, EOM     
  Riya Kayal             : Wick's Theorem for AUTO-CI, AUTO-CI UHF-CCSDT 
  Emily Kempfer          : AUTO-CI RHF CISDT and CCSDT, approximate NEVPT4
  Christian Kollmar      : KDIIS, OOCD, Brueckner-CCSD(T), CCSD density, CASPT2, CASPT2-K, improved NEVPT2 
  Axel Koslowski         : Symmetry handling                             
  Simone Kossmann        : meta-GGA functionals, TD-DFT gradient, OOMP2, (MP2 Hessian; deprecated post 5.0) 
  Lucas Lang             : DCDCAS, Hyperfine gauge corrections, ICE-SOC+SSC
  Marvin Lechner         : AUTO-CI (C++ implementation), FIC-MRCC        
  Spencer Leger          : CASSCF response                               
  Dagmar Lenk            : GEPOL surface, SMD, ORCA-2-JSON               
  Dimitrios Liakos       : Extrapolation schemes; Compound Job, Property file
  Dimitrios Manganas     : Further ROCIS development; embedding schemes. LFT, Crystal Embedding 
  Dimitrios Pantazis     : SARC Basis sets                               
  Anastasios Papadopoulos: AUTO-CI, single reference methods and gradients 
  Taras Petrenko         : pre 6.0 DFT Hessian and TD-DFT gradient,  ECA, NRVS 
  Petra Pikulova         : Analytic Raman intensities                    
  Peter Pinski           : DLPNO-MP2, DLPNO-MP2 Gradient                 
  Shashank Vittal Rao    : ES-AILFT, MagRelax                            
  Christoph Reimann      : Effective Core Potentials                     
  Marius Retegan         : Local ZFS, SOC                                
  Christoph Riplinger    : Optimizer, TS searches, QM/MM, DLPNO-CCSD(T), (RO)-DLPNO pert. Triples 
  Michael Roemelt        : Original ROCIS implementation, recursive CI coupling coefficients
  Masaaki Saitow         : Open-shell DLPNO-CCSD energy and density      
  Barbara Sandhoefer     : DKH picture change effects                    
  Yorick L. A. Schmerwitz: GMF and freeze-and-release deltaSCF, NEB S-IDPP initial path                    
  Kantharuban Sivalingam : CASSCF convergence/infrastructure, NEVPT2, NEVPT3, NEVPT4(SD), FIC-MRCI and CEPA variants
  Bernardo de Souza      : ESD, SOC TD-DFT                               
  Georgi L. Stoychev     : AutoAux, RI-MP2 NMR, DLPNO-MP2 response, X2C  
  Van Anh Tran           : RI-MP2 g-tensors                              
  Willem Van den Heuvel  : Paramagnetic NMR                              
  Zikuan Wang            : NOTCH, Electric field optimization            
  Frank Wennmohs         : Technical directorship and infrastructure     
  Hang Xu                : AUTO-CI-Response properties                   
                                                                         
[FACCTs GmbH]                                                            
  Markus Bursch, Nicolas Foglia, Miquel Garcia-Rates, Ingolf Harden, Hagen Neugebauer, Anastasios Papadopoulos, 
  Christoph Riplinger, Bernardo de Souza, Georgi L. Stoychev                                                    
                                                                 
  APM, various basis sets, CI-OPT, improved COSX, DLPNO-Multilevel,           
  DOCKER, DRACO, updates on ESD, Fragmentator, GOAT, IRC, LR-CPCM, L-BFGS, MBIS, meta-GGA TD-DFT gradient, ML-optimized integration grids, 
  MM, NACMEs, nearIR, NEB, NEB-TS, NL-DFT gradient (VV10), 2- and 3-layer-ONIOM, interface openCOSMO-RS, QMMM,   
  Crystal-QMMM, RESP, rigid body optimization, SF, symmetry and pop. for TD-DFT, various functionals, SOLVATOR                                   
                                                                         
[Other institutions]                                                     
  V. Asgeirsson          : NEB                                           
  Christoph Bannwarth    : sTDA-DFT, sTD-DFT, PBEh-3c, B97-3c, D3        
  Giovanni Bistoni       : ETS/NOCV, ADLD/ADEX, COVALED                  
  Martin Brehm           : Molecular dynamics                            
  Ronald Cardenas        : ETS/NOCV                                      
  Martina Colucci        : COVALED                                       
  Sebastian Ehlert       : rSCAN, r2SCAN, r2SCAN-3c, D4, dhf basis sets  
  Marvin Friede          : D4 for Fr, Ra, Ac-Lr                          
  Lars Goerigk           : TD-DFT with DH, B97 family of functionals     
  Stefan Grimme          : VdW corrections, initial TS optimization, DFT functionals, gCP, sTDA/sTD-DF 
  Waldemar Hujo          : DFT-NL                                        
  H. Jonsson             : NEB                                           
  Holger Kruse           : gCP                                           
  Marcel Mueller         : wB97X-3c, vDZP basis set                      
  Hagen Neugebauer       : wr2SCAN, Native XTB                           
  Gianluca Regni         : ADLD/ADEX                                     
  Tobias Risthaus        : pre 6.0 range-separated hybrid DFT and stability analysis
  Lukas Wittmann         : regularized MP2, r2SCAN double-hybrids, wr2SCAN        
                                                                         
We gratefully acknowledge several colleagues who have allowed us to      
interface, adapt or use parts of their codes:                            
  Ed Valeev, F. Pavosevic, A. Kumar             : LibInt (2-el integral package), F12 methods 
  Garnet Chan, S. Sharma, J. Yang, R. Olivares  : DMRG                   
  Ulf Ekstrom                                   : XCFun DFT Library      
  Mihaly Kallay                                 : mrcc  (arbitrary order and MRCC methods)
  Frank Weinhold                                : gennbo (NPA and NBO analysis)           
  Simon Mueller                                 : openCOSMO-RS                            
  Christopher J. Cramer and Donald G. Truhlar   : smd solvation model                     
  S Lehtola, MJT Oliveira, MAL Marques          : LibXC Library                           
  Liviu Ungur et al                             : ANISO software                          


 Your calculation uses the libint2 library for the computation of 2-el integrals
 For citations please refer to: http://libint.valeyev.net

 Your ORCA version has been built with support for libXC version: 7.0.0
 For citations please refer to: https://libxc.gitlab.io

 This ORCA versions uses:
   CBLAS   interface :  Fast vector & matrix operations
   LAPACKE interface :  Fast linear algebra routines
   SCALAPACK package :  Parallel linear algebra routines
   Shared memory     :  Shared parallel matrices
   BLAS/LAPACK       :  OpenBLAS 0.3.29  USE64BITINT DYNAMIC_ARCH NO_AFFINITY Cooperlake SINGLE_THREADED
        Core in use  :  Cooperlake
   Copyright (c) 2011-2014, The OpenBLAS Project


  ***********************************
  * Starting time: Wed May 20 12:36:34 2026
  * Host name:     c1-41
  * Process ID:    4058064
  * Working dir.:  /cluster/projects/nn14654k/ylvaos/basis_set_n_funcs/functionals/gga_x_pw91/LiS/out
  ***********************************

Using LibXC functional ID 109 : Perdew & Wang 91
[ 1]  J. P. Perdew. In P. Ziesche and H. Eschrig, editors, Proceedings of the 75. WE-Heraeus-Seminar and 21st Annual International Symposium on Electronic Structure of Solids, 11. Berlin, 1991. Akademie Verlag.
[ 2]  J. P. Perdew, J. A. Chevary, S. H. Vosko, K. A. Jackson, M. R. Pederson, D. J. Singh, and C. Fiolhais.,  Phys. Rev. B 46, 6671 (1992)
[ 3]  J. P. Perdew, J. A. Chevary, S. H. Vosko, K. A. Jackson, M. R. Pederson, D. J. Singh, and C. Fiolhais.,  Phys. Rev. B 48, 4978 (1993)
Using LibXC functional ID 109 : Perdew & Wang 91
[ 1]  J. P. Perdew. In P. Ziesche and H. Eschrig, editors, Proceedings of the 75. WE-Heraeus-Seminar and 21st Annual International Symposium on Electronic Structure of Solids, 11. Berlin, 1991. Akademie Verlag.
[ 2]  J. P. Perdew, J. A. Chevary, S. H. Vosko, K. A. Jackson, M. R. Pederson, D. J. Singh, and C. Fiolhais.,  Phys. Rev. B 46, 6671 (1992)
[ 3]  J. P. Perdew, J. A. Chevary, S. H. Vosko, K. A. Jackson, M. R. Pederson, D. J. Singh, and C. Fiolhais.,  Phys. Rev. B 48, 4978 (1993)
Your calculation utilizes LibXC
by S. Lehtola, C. Steigemann, M. J. T. Oliveira & M. A. L. Marques
Please cite in your paper:
Lehtola, S.; Steigemann, C.; Oliveira, M.J.T.; Marques, M. A. L. Software X, 7, (2018), 1.
   

================================================================================

----- Orbital basis set information -----
Your calculation utilizes the basis: pcseg-0
   F. Jensen, J. Chem. Theory Comput. 10, 1074 (2014).

================================================================================
                                        WARNINGS
                       Please study these warnings very carefully!
================================================================================


WARNING: your system is open-shell and RHF/RKS was chosen
  ===> : WILL SWITCH to UHF/UKS


================================================================================
                                       INPUT FILE
================================================================================
NAME = /cluster/projects/nn14654k/ylvaos/basis_set_n_funcs/functionals/gga_x_pw91/LiS/inp/LiS_gga_x_pw91_pcseg0.inp
|  1> ! dft pcseg-0 TightSCF
|  2> %pal nprocs 8 end
|  3> 
|  4> %loc
|  5>   LocMet NewBoys
|  6>   Occ true
|  7> end
|  8> 
|  9> %method
| 10>   exchange gga_x_pw91
| 11>   correlation None
| 12> end
| 13> 
| 14> %elprop
| 15>   Dipole true
| 16>   Quadrupole true
| 17> end
| 18> 
| 19> * xyz 0 2
| 20> Li    0.000000000000   0.000000000000  -1.074850000000
| 21> S    0.000000000000   0.000000000000   1.074850000000
| 22> *
| 23> 
| 24> 
| 25>                          ****END OF INPUT****
================================================================================

                       ****************************
                       * Single Point Calculation *
                       ****************************

---------------------------------
CARTESIAN COORDINATES (ANGSTROEM)
---------------------------------
  Li     0.000000    0.000000   -1.074850
  S      0.000000    0.000000    1.074850

----------------------------
CARTESIAN COORDINATES (A.U.)
----------------------------
  NO LB      ZA    FRAG     MASS         X           Y           Z
   0 Li    3.0000    0     6.941    0.000000    0.000000   -2.031172
   1 S    16.0000    0    32.060    0.000000    0.000000    2.031172

--------------------------------
INTERNAL COORDINATES (ANGSTROEM)
--------------------------------
 Li     0   0   0     0.000000000000     0.00000000     0.00000000
 S      1   0   0     2.149700000000     0.00000000     0.00000000

---------------------------
INTERNAL COORDINATES (A.U.)
---------------------------
 Li     0   0   0     0.000000000000     0.00000000     0.00000000
 S      1   0   0     4.062344270091     0.00000000     0.00000000

---------------------
BASIS SET INFORMATION
---------------------
There are 2 groups of distinct atoms

 Group   1 Type Li  : 6s2p contracted to 3s1p pattern {411/2}
 Group   2 Type S   : 9s6p contracted to 4s3p pattern {5211/411}

Atom   0Li   basis set group =>   1
Atom   1S    basis set group =>   2


           ************************************************************
           *        Program running with 8 parallel MPI-processes     *
           *              working on a common directory               *
           ************************************************************
------------------------------------------------------------------------------
                             ORCA STARTUP CALCULATIONS
------------------------------------------------------------------------------
------------------------------------------------------------------------------
                   ___                                                        
                  /   \      - P O W E R E D   B Y -                         
                 /     \                                                     
                 |  |  |   _    _      __       _____    __    __             
                 |  |  |  | |  | |    /  \     |  _  \  |  |  /  |          
                  \  \/   | |  | |   /    \    | | | |  |  | /  /          
                 / \  \   | |__| |  /  /\  \   | |_| |  |  |/  /          
                |  |  |   |  __  | /  /__\  \  |    /   |      \           
                |  |  |   | |  | | |   __   |  |    \   |  |\   \          
                \     /   | |  | | |  |  |  |  | |\  \  |  | \   \       
                 \___/    |_|  |_| |__|  |__|  |_| \__\ |__|  \__/        
                                                                              
                      - O R C A' S   B I G   F R I E N D -                    
                                      &                                       
                       - I N T E G R A L  F E E D E R -                       
                                                                              
 v1 FN, 2020, v2 2021, v3 2022-2024                                           
------------------------------------------------------------------------------


----------------------
SHARK INTEGRAL PACKAGE
----------------------

Number of atoms                             ...      2
Number of basis functions                   ...     19
Number of shells                            ...     11
Maximum angular momentum                    ...      1
Integral batch strategy                     ... SHARK/LIBINT Hybrid
RI-J (if used) integral strategy            ... SPLIT-RIJ (Revised 2003 algorithm where possible)
Printlevel                                  ...      1
Contraction scheme used                     ... SEGMENTED contraction
Prescreening option                         ... SCHWARTZ
   Thresh                                   ... 2.500e-11
   Tcut                                     ... 2.500e-12
   Tpresel                                  ... 2.500e-12 
Coulomb Range Separation                    ... NOT USED
Exchange Range Separation                   ... NOT USED
Multipole approximations                    ... NOT USED
Finite Nucleus Model                        ... NOT USED
CABS basis                                  ... NOT available
Auxiliary Coulomb fitting basis             ... NOT available
Auxiliary J/K fitting basis                 ... NOT available
Auxiliary Correlation fitting basis         ... NOT available
Auxiliary 'external' fitting basis          ... NOT available

Checking pre-screening integrals            ... done (  0.0 sec) Dimension = 11
   => SHARK Basis and OBASIS are compatible. Storing Pre-screening
Shell pair information
Shell pair cut-off parameter TPreSel        ...   2.5e-12
Total number of shell pairs                 ...        66
Shell pairs after pre-screening             ...        66
Total number of primitive shell pairs       ...       300
Primitive shell pairs kept                  ...       271
          la=0 lb=0:     28 shell pairs
          la=1 lb=0:     28 shell pairs
          la=1 lb=1:     10 shell pairs

Checking whether 4 symmetric matrices of dimension 19 fit in memory
:Max Core in MB      =   4096.00
 MB in use           =      0.83
 MB left             =   4095.17
 MB needed           =      0.01
 Data fit in memory  = YES
Calculating Nuclear repulsion               ... done (  0.0 sec) ENN=     11.815837557985 Eh

Diagonalization of the overlap matrix:
Smallest eigenvalue                        ... 5.155e-02
Time for diagonalization                   ...    0.000 sec
Threshold for overlap eigenvalues          ... 1.000e-07
Number of eigenvalues below threshold      ... 0
Time for construction of square roots      ...    0.002 sec
Total time needed                          ...    0.004 sec

-------------------
DFT GRID GENERATION
-------------------

General Integration Accuracy     IntAcc      ... 4.388
Radial Grid Type                 RadialGrid  ... OptM3 with GC (2021)
Angular Grid (max. ang.)         AngularGrid ... 4 (Lebedev-302)
Angular grid pruning method      GridPruning ... 4 (adaptive)
Weight generation scheme         WeightScheme... mBecke (2022)
Basis function cutoff            BFCut       ... 1.0000e-11
Integration weight cutoff        WCut        ... 1.0000e-14
Partially contracted basis set               ... off
Rotationally invariant grid construction     ... off
Angular grids for H and He will be reduced by one unit

Total number of grid points                  ...    13486
Total number of batches                      ...      212
Average number of points per batch           ...       63
Average number of grid points per atom       ...     6743
Grids setup in   0.1 sec
Initializing property integral containers    ... done (  0.0 sec)

SHARK setup successfully completed in   0.1 seconds

Maximum memory used throughout the entire STARTUP-calculation: 4.7 MB


           ************************************************************
           *        Program running with 8 parallel MPI-processes     *
           *              working on a common directory               *
           ************************************************************
-------------------------------------------------------------------------------
                                 ORCA GUESS
                   Start orbitals & Density for SCF / CASSCF
-------------------------------------------------------------------------------

------------
SCF SETTINGS
------------
Hamiltonian:
 Density Functional     Method          .... DFT(GTOs)
  Functional kind                       .... Exchange
  Functional name                       .... Perdew & Wang 91
  Functional family                     .... GGA
  Functional refs                              
    [ 0] J. P. Perdew. In P. Ziesche and H. Eschrig, editors, Proceedings of the 75. WE-Heraeus-Seminar and 21st Annual International Symposium on Electronic Structure of Solids, 11. Berlin, 1991. Akademie Verlag.
    [ 1] J. P. Perdew, J. A. Chevary, S. H. Vosko, K. A. Jackson, M. R. Pederson, D. J. Singh, and C. Fiolhais.,  Phys. Rev. B 46, 6671 (1992), doi: 10.1103/PhysRevB.46.6671
    [ 2] J. P. Perdew, J. A. Chevary, S. H. Vosko, K. A. Jackson, M. R. Pederson, D. J. Singh, and C. Fiolhais.,  Phys. Rev. B 48, 4978 (1993), doi: 10.1103/PhysRevB.48.4978.2
  Functional external parameters        .... 7
    Parameter  0 _a         =  1.964500e-01 : a parameter         
    Parameter  1 _b         =  7.795600e+00 : b parameter         
    Parameter  2 _c         =  2.743000e-01 : c parameter         
    Parameter  3 _d         = -1.508000e-01 : d parameter         
    Parameter  4 _f         =  4.000000e-03 : f parameter         
    Parameter  5 _alpha     =  1.000000e+02 : alpha parameter     
    Parameter  6 _expo      =  4.000000e+00 : exponent            
 Correlation Functional Correlation     .... No Correlation
 Gradients option       PostSCFGGA      .... off


General Settings:
 Integral files         IntName         .... /cluster/projects/nn14654k/ylvaos/basis_set_n_funcs/functionals/gga_x_pw91/LiS/inp/LiS_gga_x_pw91_pcseg0
 Hartree-Fock type      HFTyp           .... UHF
 Total Charge           Charge          ....    0
 Multiplicity           Mult            ....    2
 Number of Electrons    NEL             ....   19
 Basis Dimension        Dim             ....   19
 Nuclear Repulsion      ENuc            ....     11.8158375580 Eh

Convergence Acceleration:
 AO-DIIS                CNVDIIS         .... on
   Start iteration      DIISMaxIt       ....    12
   Startup error        DIISStart       ....  0.200000
   # of expansion vecs  DIISMaxEq       ....     5
   Bias factor          DIISBfac        ....   1.050
   Max. coefficient     DIISMaxC        ....  10.000
 MO-DIIS                CNVKDIIS        .... off
 Trust-Rad. Augm. Hess. CNVTRAH         .... auto
   Auto Start mean grad. ratio tolernc. ....  1.125000
   Auto Start start iteration           ....    50
   Auto Start num. interpolation iter.  ....    10
   Max. Number of Micro iterations      ....    24
   Max. Number of Macro iterations      .... Maxiter - #DIIS iter
   Number of Davidson start vectors     ....     2
   Converg. threshold    (grad. norm)   ....   1.000e-05
   Grad. Scal. Fac. for Micro threshold ....   0.100
   Minimum threshold for Micro iter.    ....   1.000e-02
   NR start threshold (gradient norm)   ....   1.000e-04
   Initial trust radius                 ....   0.400
   Minimum AH scaling param. (alpha)    ....   1.000
   Maximum AH scaling param. (alpha)    .... 1000.000
   Quad. conv. algorithm                .... NR
   White noise on init. David. guess    .... on
   Maximum white noise                  ....   0.010
   Pseudo random numbers                .... off
   Inactive MOs                         .... canonical
   Orbital update algorithm             .... Taylor
   Preconditioner                       .... Diag
   Full preconditioner red. dimension   ....   250
 SOSCF                 CNVSOSCF           .... on
   Start iteration     SOSCFMaxIt         ....   150
   Startup grad/error  SOSCFStart         ....  0.003300
   Hessian update      SOSCFHessUp        .... L-BFGS
   Autom. constraints  SOSCFAutoConstrain .... off
 Level Shifting         CNVShift        .... on
   Level shift para.    LevelShift      ....    0.2500
   Turn off err/grad.   ShiftErr        ....    0.0010
 Zerner damping         CNVZerner       .... off
 Static damping         CNVDamp         .... on
   Fraction old density DampFac         ....    0.7000
   Max. Damping (<1)    DampMax         ....    0.9800
   Min. Damping (>=0)   DampMin         ....    0.0000
   Turn off err/grad.   DampErr         ....    0.1000

SCF Procedure:
 Maximum # iterations   MaxIter         ....   125
 SCF integral mode      SCFMode         .... Direct
   Integral package                     .... SHARK and LIBINT hybrid scheme
 Reset frequency        DirectResetFreq ....    20
 Integral Threshold     Thresh          ....  2.500e-11 Eh
 Primitive CutOff       TCut            ....  2.500e-12 Eh

Convergence Tolerance:
 Convergence Check Mode ConvCheckMode   .... Total+1el-Energy
 Convergence forced     ConvForced      .... 0
 Energy Change          TolE            ....  1.000e-08 Eh
 1-El. energy change                    ....  1.000e-05 Eh
 Orbital Gradient       TolG            ....  1.000e-05
 Orbital Rotation angle TolX            ....  1.000e-05
 DIIS Error             TolErr          ....  5.000e-07

------------------------------
INITIAL GUESS: MODEL POTENTIAL
------------------------------
Loading Hartree-Fock densities                     ... done
Calculating cut-offs                               ... done
Initializing the effective Hamiltonian             ... done
Setting up the integral package (SHARK)            ... done
Starting the Coulomb interaction                   ... done (   0.0 sec)
Making the grid                                    ... done (   0.0 sec)
Mapping shells                                     ... done
Starting the XC term evaluation                    ... done (   0.0 sec)
  promolecular density results
     # of electrons  =     18.999659766
     EX              =    -26.701291569
     EC              =      0.000000000
     EX+EC           =    -26.701291569
Transforming the Hamiltonian                       ... done (   0.0 sec)
Diagonalizing the Hamiltonian                      ... done (   0.0 sec)
Back transforming the eigenvectors                 ... done (   0.0 sec)
Now organizing SCF variables                       ... done
                      ------------------
                      INITIAL GUESS DONE (   0.1 sec)
                      ------------------
             **** ENERGY FILE WAS UPDATED (/cluster/projects/nn14654k/ylvaos/basis_set_n_funcs/functionals/gga_x_pw91/LiS/inp/LiS_gga_x_pw91_pcseg0.en.tmp) ****
Finished Guess after   0.2 sec
Maximum memory used throughout the entire GUESS-calculation: 2.1 MB


           ************************************************************
           *        Program running with 8 parallel MPI-processes     *
           *              working on a common directory               *
           ************************************************************

-------------------------------------------------------------------------------------------
                                      ORCA LEAN-SCF
                              memory conserving SCF solver
-------------------------------------------------------------------------------------------

----------------------------------------D-I-I-S--------------------------------------------
Iteration    Energy (Eh)           Delta-E    RMSDP     MaxDP     DIISErr   Damp  Time(sec)
-------------------------------------------------------------------------------------------
               ***  Starting incremental Fock matrix formation  ***
    1    -404.4392369435989281     0.00e+00  1.73e-02  3.95e-02  4.86e-02  0.700   0.1
Warning: op=0 Small HOMO/LUMO gap (   0.013) - skipping pre-diagonalization
         Will do a full diagonalization
    2    -404.4543698793497697    -1.51e-02  1.67e-02  2.69e-02  2.61e-02  0.700   0.2
                               ***Turning on AO-DIIS***
    3    -404.4616309385292539    -7.26e-03  7.45e-03  1.36e-02  7.95e-03  0.700   0.1
    4    -404.4645731083543296    -2.94e-03  1.24e-02  3.10e-02  5.50e-03  0.000   0.1
    5    -404.4708852984187502    -6.31e-03  3.78e-03  7.57e-03  1.03e-02  0.000   0.1
    6    -404.4718216116984308    -9.36e-04  1.99e-03  4.59e-03  5.67e-03  0.000   0.1
                              *** Initializing SOSCF ***
---------------------------------------S-O-S-C-F--------------------------------------
Iteration    Energy (Eh)           Delta-E    RMSDP     MaxDP     MaxGrad    Time(sec)
--------------------------------------------------------------------------------------
    7    -404.4721129120031833    -2.91e-04  1.13e-03  2.73e-03  3.14e-03     0.1
               *** Restarting incremental Fock matrix formation ***
    8    -404.4722072449077359    -9.43e-05  2.32e-03  4.67e-03  2.23e-03     0.1
    9    -404.4722251959069013    -1.80e-05  1.30e-03  3.16e-03  2.09e-03     0.1
   10    -404.4722567841648697    -3.16e-05  3.17e-04  8.75e-04  2.40e-04     0.1
   11    -404.4722575648743259    -7.81e-07  1.61e-04  5.96e-04  1.15e-04     0.1
   12    -404.4722577533050298    -1.88e-07  4.51e-05  1.11e-04  3.67e-05     0.1
   13    -404.4722577714485965    -1.81e-08  2.59e-05  9.09e-05  1.42e-05     0.1
   14    -404.4722577750537766    -3.61e-09  7.44e-06  2.82e-05  5.34e-06     0.1
                 **** Energy Check signals convergence ****

               *****************************************************
               *                     SUCCESS                       *
               *           SCF CONVERGED AFTER  14 CYCLES          *
               *****************************************************

             **** ENERGY FILE WAS UPDATED (/cluster/projects/nn14654k/ylvaos/basis_set_n_funcs/functionals/gga_x_pw91/LiS/inp/LiS_gga_x_pw91_pcseg0.en.tmp) ****

----------------
TOTAL SCF ENERGY
----------------

Total Energy       :       -404.47225777547845 Eh          -11006.24968 eV

Components:
Nuclear Repulsion  :         11.81583755798484 Eh             321.52529 eV
Electronic Energy  :       -416.28809533346327 Eh          -11327.77497 eV
One Electron Energy:       -583.66815790880560 Eh          -15882.41802 eV
Two Electron Energy:        167.38006257534232 Eh            4554.64306 eV

Virial components:
Potential Energy   :       -808.95972061785665 Eh          -22012.91311 eV
Kinetic Energy     :        404.48746284237814 Eh           11006.66343 eV
Virial Ratio       :          1.99996240905270

DFT components:
N(Alpha)           :        9.999994474486 electrons
N(Beta)            :        8.999995132445 electrons
N(Total)           :       18.999989606931 electrons
E(X)               :      -26.761129201105 Eh       
E(C)               :        0.000000000000 Eh       
E(XC)              :      -26.761129201105 Eh       

---------------
SCF CONVERGENCE
---------------

  Last Energy change         ...    3.6052e-09  Tolerance :   1.0000e-08
  Last MAX-Density change    ...    2.8154e-05  Tolerance :   1.0000e-07
  Last RMS-Density change    ...    7.4433e-06  Tolerance :   5.0000e-09
  Last DIIS Error            ...    3.1363e-03  Tolerance :   5.0000e-07
  Last Orbital Gradient      ...    5.3402e-06  Tolerance :   1.0000e-05
  Last Orbital Rotation      ...    5.2925e-05  Tolerance :   1.0000e-05


----------------------
UHF SPIN CONTAMINATION
----------------------

Warning: in a DFT calculation there is little theoretical justification to 
         calculate <S**2> as in Hartree-Fock theory. We will do it anyways
         but you should keep in mind that the values have only limited relevance

Expectation value of <S**2>     :     0.754244
Ideal value S*(S+1) for S=0.5   :     0.750000
Deviation                       :     0.004244

----------------
ORBITAL ENERGIES
----------------
                 SPIN UP ORBITALS
  NO   OCC          E(Eh)            E(eV) 
   0   1.0000     -87.969442     -2393.7702 
   1   1.0000      -7.469110      -203.2448 
   2   1.0000      -5.616551      -152.8341 
   3   1.0000      -5.600330      -152.3927 
   4   1.0000      -5.598607      -152.3458 
   5   1.0000      -1.861916       -50.6653 
   6   1.0000      -0.509323       -13.8594 
   7   1.0000      -0.183412        -4.9909 
   8   1.0000      -0.158579        -4.3152 
   9   1.0000      -0.138830        -3.7778 
  10   0.0000      -0.068521        -1.8645 
  11   0.0000       0.024017         0.6535 
  12   0.0000       0.033160         0.9023 
  13   0.0000       0.084367         2.2957 
  14   0.0000       0.189469         5.1557 
  15   0.0000       0.561023        15.2662 
  16   0.0000       0.841441        22.8968 
  17   0.0000       0.880930        23.9713 
  18   0.0000       0.976841        26.5812 

                 SPIN DOWN ORBITALS
  NO   OCC          E(Eh)            E(eV) 
   0   1.0000     -87.964812     -2393.6442 
   1   1.0000      -7.463923      -203.1037 
   2   1.0000      -5.603086      -152.4677 
   3   1.0000      -5.596853      -152.2981 
   4   1.0000      -5.595038      -152.2487 
   5   1.0000      -1.862402       -50.6785 
   6   1.0000      -0.466795       -12.7021 
   7   1.0000      -0.139872        -3.8061 
   8   1.0000      -0.120757        -3.2860 
   9   0.0000      -0.110057        -2.9948 
  10   0.0000      -0.068622        -1.8673 
  11   0.0000       0.032042         0.8719 
  12   0.0000       0.035551         0.9674 
  13   0.0000       0.089291         2.4297 
  14   0.0000       0.195031         5.3071 
  15   0.0000       0.586786        15.9672 
  16   0.0000       0.897370        24.4187 
  17   0.0000       0.905546        24.6412 
  18   0.0000       0.995144        27.0792 
*Only the first 10 virtual orbitals were printed.

                    ********************************
                    * MULLIKEN POPULATION ANALYSIS *
                    ********************************

--------------------------------------------
MULLIKEN ATOMIC CHARGES AND SPIN POPULATIONS
--------------------------------------------
   0 Li:    0.392323   -0.011414
   1 S :   -0.392323    1.011414
Sum of atomic charges         :   -0.0000000
Sum of atomic spin populations:    1.0000000

-----------------------------------------------------
MULLIKEN REDUCED ORBITAL CHARGES AND SPIN POPULATIONS
-----------------------------------------------------
CHARGE
  0 Lis       :     2.234390  s :     2.234390
      pz      :     0.088421  p :     0.373287
      px      :     0.181933
      py      :     0.102932

  1 S s       :     5.962593  s :     5.962593
      pz      :     3.714596  p :    10.429730
      px      :     3.563080
      py      :     3.152055


SPIN
  0 Lis       :    -0.033886  s :    -0.033886
      pz      :    -0.007360  p :     0.022471
      px      :    -0.008046
      py      :     0.037878

  1 S s       :     0.012748  s :     0.012748
      pz      :     0.028498  p :     0.998666
      px      :     0.263034
      py      :     0.707135



                     *******************************
                     * LOEWDIN POPULATION ANALYSIS *
                     *******************************

-------------------------------------------
LOEWDIN ATOMIC CHARGES AND SPIN POPULATIONS
-------------------------------------------
   0 Li:    0.203480    0.011620
   1 S :   -0.203480    0.988380

----------------------------------------------------
LOEWDIN REDUCED ORBITAL CHARGES AND SPIN POPULATIONS
----------------------------------------------------
CHARGE
  0 Lis       :     2.304443  s :     2.304443
      pz      :     0.183350  p :     0.492077
      px      :     0.194950
      py      :     0.113778

  1 S s       :     5.811393  s :     5.811393
      pz      :     3.700815  p :    10.392087
      px      :     3.550063
      py      :     3.141210


SPIN
  0 Lis       :    -0.027663  s :    -0.027663
      pz      :    -0.001982  p :     0.039283
      px      :    -0.004307
      py      :     0.045572

  1 S s       :     0.005826  s :     0.005826
      pz      :     0.023819  p :     0.982553
      px      :     0.259294
      py      :     0.699440



                      *****************************
                      * MAYER POPULATION ANALYSIS *
                      *****************************

  NA   - Mulliken gross atomic population
  ZA   - Total nuclear charge
  QA   - Mulliken gross atomic charge
  VA   - Mayer's total valence
  BVA  - Mayer's bonded valence
  FA   - Mayer's free valence

  ATOM       NA         ZA         QA         VA         BVA        FA
  0 Li     2.6077     3.0000     0.3923     1.0672     1.0608     0.0064
  1 S     16.3923    16.0000    -0.3923     1.9433     1.0608     0.8825

  Mayer bond orders larger than 0.100000
B(  0-Li,  1-S ) :   1.0608 

-------
TIMINGS
-------

Total SCF time: 0 days 0 hours 0 min 1 sec 

Total time                  ....       1.931 sec
Sum of individual times     ....       1.822 sec  ( 94.3%)

SCF preparation             ....       0.082 sec  (  4.3%)
Fock matrix formation       ....       1.040 sec  ( 53.8%)
  Startup                   ....       0.024 sec  (  2.3% of F)
  Coulomb formation         ....       0.011 sec  (  1.1% of F)
  XC integration            ....       0.422 sec  ( 40.6% of F)
    XC Preparation          ....       0.000 sec  (  0.0% of XC)
    Basis function eval.    ....       0.006 sec  (  1.5% of XC)
    Density eval.           ....       0.003 sec  (  0.8% of XC)
    XC-Functional eval.     ....       0.010 sec  (  2.5% of XC)
    XC-Potential eval.      ....       0.003 sec  (  0.8% of XC)
Diagonalization             ....       0.000 sec  (  0.0%)
Density matrix formation    ....       0.273 sec  ( 14.1%)
Total Energy calculation    ....       0.064 sec  (  3.3%)
Population analysis         ....       0.019 sec  (  1.0%)
Orbital Transformation      ....       0.060 sec  (  3.1%)
Orbital Orthonormalization  ....       0.000 sec  (  0.0%)
DIIS solution               ....       0.098 sec  (  5.1%)
SOSCF solution              ....       0.184 sec  (  9.5%)
Finished LeanSCF after   2.0 sec

Maximum memory used throughout the entire LEANSCF-calculation: 4.3 MB


           ************************************************************
           *        Program running with 8 parallel MPI-processes     *
           *              working on a common directory               *
           ************************************************************

------------------------------------------------------------------------------
                         ORCA PROPERTY INTEGRAL CALCULATIONS
------------------------------------------------------------------------------

GBWName                                   ... /cluster/projects/nn14654k/ylvaos/basis_set_n_funcs/functionals/gga_x_pw91/LiS/inp/LiS_gga_x_pw91_pcseg0.gbw
Number of atoms                           ...      2
Number of basis functions                 ...     19
Max core memory                           ...   4096 MB

Dipole integrals                          ... YES
Quadrupole integrals                      ... YES
Linear momentum integrals                 ...  NO
Angular momentum integrals                ...  NO
Higher moments length integrals           ...  NO
Higher moments velocity integrals         ...  NO
Kinetic energy integrals                  ...  NO
GIAO right hand sides                     ...  NO
GIAO dipole derivative integrals          ...  NO
SOC integrals                             ...  NO
EPR diamagnetic integrals (GIAO)          ...  NO
EPR gauge integrals                       ...  NO
Field gradient integrals                  ...  NO (   0 nuclei)
Spin-dipole/Fermi contact integrals       ...  NO (   0 nuclei)
Contact density integrals                 ...  NO (   0 nuclei)
Nucleus-orbit integrals                   ...  NO (   0 nuclei)
Geometric perturbations                   ...  NO (   2 nuclei)

Choice of electric origin   ... Center of mass
Position of electric origin ... (  0.0000,  0.0000,  1.3082) 
Choice of magnetic origin   ... GIAO
Position of magnetic origin ... (  0.0000,  0.0000,  0.0000) 

Calculating integrals                     ... Electric Dipole (Length)     done (  0.0 sec)
Calculating integrals                     ... Electric Quadrupole (Length) done (  0.0 sec)

Property integrals calculated in   0.0 sec

Maximum memory used throughout the entire PROPINT-calculation: 2.2 MB
------------------------------------------------------------------------------
                           ORCA ORBITAL LOCALIZATION
------------------------------------------------------------------------------

Input orbitals are from                  ... /cluster/projects/nn14654k/ylvaos/basis_set_n_funcs/functionals/gga_x_pw91/LiS/inp/LiS_gga_x_pw91_pcseg0.gbw
Output orbitals are to                   ... /cluster/projects/nn14654k/ylvaos/basis_set_n_funcs/functionals/gga_x_pw91/LiS/inp/LiS_gga_x_pw91_pcseg0.loc
Max. number of iterations                ... 128
Localizations seeded randomly            ... on
Convergence tolerance                    ... 1.000e-06
Threshold for strong local MOs           ... 9.500e-01
Threshold for bond MOs                   ... 8.500e-01
Operator                                 ... 0
Orbital range for localization           ... 5 to 9
Localization criterion                   ... NEW-BOYS
Doing the dipole integrals               ... o.k.
Initial value of the localization sum :    11.939811
ITERATION   0 : L=   15.7522596620 DL=  3.81e+00 (AVERGE_DL)=    0.6174502544 
ITERATION   1 : L=   15.9382754232 DL=  1.86e-01 (AVERGE_DL)=    0.1363875952 
ITERATION   2 : L=   15.9900285075 DL=  5.18e-02 (AVERGE_DL)=    0.0719396166 
ITERATION   3 : L=   15.9980142855 DL=  7.99e-03 (AVERGE_DL)=    0.0282591188 
ITERATION   4 : L=   15.9995604293 DL=  1.55e-03 (AVERGE_DL)=    0.0124344032 
ITERATION   5 : L=   15.9998189090 DL=  2.58e-04 (AVERGE_DL)=    0.0050840897 
ITERATION   6 : L=   15.9998634282 DL=  4.45e-05 (AVERGE_DL)=    0.0021099569 
ITERATION   7 : L=   15.9998724925 DL=  9.06e-06 (AVERGE_DL)=    0.0009520672 
ITERATION   8 : L=   15.9998758186 DL=  3.33e-06 (AVERGE_DL)=    0.0005767285 
ITERATION   9 : L=   15.9998778643 DL=  2.05e-06 (AVERGE_DL)=    0.0004522859 
ITERATION  10 : L=   15.9998793915 DL=  1.53e-06 (AVERGE_DL)=    0.0003908055 
ITERATION  11 : L=   15.9998806560 DL=  1.26e-06 (AVERGE_DL)=    0.0003555979 
ITERATION  12 : L=   15.9998818029 DL=  1.15e-06 (AVERGE_DL)=    0.0003386499 
ITERATION  13 : L=   15.9998829194 DL=  1.12e-06 (AVERGE_DL)=    0.0003341478 
ITERATION  14 : L=   15.9998840570 DL=  1.14e-06 (AVERGE_DL)=    0.0003372808 
ITERATION  15 : L=   15.9998852465 DL=  1.19e-06 (AVERGE_DL)=    0.0003448853 
ITERATION  16 : L=   15.9998865078 DL=  1.26e-06 (AVERGE_DL)=    0.0003551566 
ITERATION  17 : L=   15.9998878557 DL=  1.35e-06 (AVERGE_DL)=    0.0003671282 
ITERATION  18 : L=   15.9998893019 DL=  1.45e-06 (AVERGE_DL)=    0.0003802904 
ITERATION  19 : L=   15.9998908572 DL=  1.56e-06 (AVERGE_DL)=    0.0003943736 
ITERATION  20 : L=   15.9998925319 DL=  1.67e-06 (AVERGE_DL)=    0.0004092357 
ITERATION  21 : L=   15.9998943365 DL=  1.80e-06 (AVERGE_DL)=    0.0004248044 
ITERATION  22 : L=   15.9998962818 DL=  1.95e-06 (AVERGE_DL)=    0.0004410524 
ITERATION  23 : L=   15.9998983790 DL=  2.10e-06 (AVERGE_DL)=    0.0004579533 
ITERATION  24 : L=   15.9999006403 DL=  2.26e-06 (AVERGE_DL)=    0.0004755282 
ITERATION  25 : L=   15.9999030785 DL=  2.44e-06 (AVERGE_DL)=    0.0004937824 
ITERATION  26 : L=   15.9999057074 DL=  2.63e-06 (AVERGE_DL)=    0.0005127327 
ITERATION  27 : L=   15.9999085419 DL=  2.83e-06 (AVERGE_DL)=    0.0005323996 
ITERATION  28 : L=   15.9999115979 DL=  3.06e-06 (AVERGE_DL)=    0.0005528081 
ITERATION  29 : L=   15.9999148923 DL=  3.29e-06 (AVERGE_DL)=    0.0005739736 
ITERATION  30 : L=   15.9999184438 DL=  3.55e-06 (AVERGE_DL)=    0.0005959371 
ITERATION  31 : L=   15.9999222717 DL=  3.83e-06 (AVERGE_DL)=    0.0006187054 
ITERATION  32 : L=   15.9999263975 DL=  4.13e-06 (AVERGE_DL)=    0.0006423206 
ITERATION  33 : L=   15.9999308438 DL=  4.45e-06 (AVERGE_DL)=    0.0006668042 
ITERATION  34 : L=   15.9999356349 DL=  4.79e-06 (AVERGE_DL)=    0.0006921838 
ITERATION  35 : L=   15.9999407972 DL=  5.16e-06 (AVERGE_DL)=    0.0007184919 
ITERATION  36 : L=   15.9999463586 DL=  5.56e-06 (AVERGE_DL)=    0.0007457452 
ITERATION  37 : L=   15.9999523492 DL=  5.99e-06 (AVERGE_DL)=    0.0007739884 
ITERATION  38 : L=   15.9999588012 DL=  6.45e-06 (AVERGE_DL)=    0.0008032436 
ITERATION  39 : L=   15.9999657491 DL=  6.95e-06 (AVERGE_DL)=    0.0008335400 
ITERATION  40 : L=   15.9999732298 DL=  7.48e-06 (AVERGE_DL)=    0.0008649106 
ITERATION  41 : L=   15.9999812826 DL=  8.05e-06 (AVERGE_DL)=    0.0008973766 
ITERATION  42 : L=   15.9999899497 DL=  8.67e-06 (AVERGE_DL)=    0.0009309740 
ITERATION  43 : L=   15.9999992762 DL=  9.33e-06 (AVERGE_DL)=    0.0009657332 
ITERATION  44 : L=   16.0000093098 DL=  1.00e-05 (AVERGE_DL)=    0.0010016813 
ITERATION  45 : L=   16.0000201017 DL=  1.08e-05 (AVERGE_DL)=    0.0010388396 
ITERATION  46 : L=   16.0000317062 DL=  1.16e-05 (AVERGE_DL)=    0.0010772415 
ITERATION  47 : L=   16.0000441810 DL=  1.25e-05 (AVERGE_DL)=    0.0011169087 
ITERATION  48 : L=   16.0000575877 DL=  1.34e-05 (AVERGE_DL)=    0.0011578707 
ITERATION  49 : L=   16.0000719910 DL=  1.44e-05 (AVERGE_DL)=    0.0012001394 
ITERATION  50 : L=   16.0000874600 DL=  1.55e-05 (AVERGE_DL)=    0.0012437423 
ITERATION  51 : L=   16.0001040673 DL=  1.66e-05 (AVERGE_DL)=    0.0012886962 
ITERATION  52 : L=   16.0001218900 DL=  1.78e-05 (AVERGE_DL)=    0.0013350151 
ITERATION  53 : L=   16.0001410087 DL=  1.91e-05 (AVERGE_DL)=    0.0013827043 
ITERATION  54 : L=   16.0001615085 DL=  2.05e-05 (AVERGE_DL)=    0.0014317759 
ITERATION  55 : L=   16.0001834786 DL=  2.20e-05 (AVERGE_DL)=    0.0014822305 
ITERATION  56 : L=   16.0002070121 DL=  2.35e-05 (AVERGE_DL)=    0.0015340643 
ITERATION  57 : L=   16.0002322065 DL=  2.52e-05 (AVERGE_DL)=    0.0015872746 
ITERATION  58 : L=   16.0002591629 DL=  2.70e-05 (AVERGE_DL)=    0.0016418382 
ITERATION  59 : L=   16.0002879863 DL=  2.88e-05 (AVERGE_DL)=    0.0016977461 
ITERATION  60 : L=   16.0003187848 DL=  3.08e-05 (AVERGE_DL)=    0.0017549508 
ITERATION  61 : L=   16.0003516701 DL=  3.29e-05 (AVERGE_DL)=    0.0018134290 
ITERATION  62 : L=   16.0003867561 DL=  3.51e-05 (AVERGE_DL)=    0.0018731273 
ITERATION  63 : L=   16.0004241592 DL=  3.74e-05 (AVERGE_DL)=    0.0019339880 
ITERATION  64 : L=   16.0004639973 DL=  3.98e-05 (AVERGE_DL)=    0.0019959467 
ITERATION  65 : L=   16.0005063886 DL=  4.24e-05 (AVERGE_DL)=    0.0020589162 
ITERATION  66 : L=   16.0005514514 DL=  4.51e-05 (AVERGE_DL)=    0.0021228008 
ITERATION  67 : L=   16.0005993032 DL=  4.79e-05 (AVERGE_DL)=    0.0021875047 
ITERATION  68 : L=   16.0006500588 DL=  5.08e-05 (AVERGE_DL)=    0.0022529003 
ITERATION  69 : L=   16.0007038292 DL=  5.38e-05 (AVERGE_DL)=    0.0023188449 
ITERATION  70 : L=   16.0007607206 DL=  5.69e-05 (AVERGE_DL)=    0.0023851917 
ITERATION  71 : L=   16.0008208329 DL=  6.01e-05 (AVERGE_DL)=    0.0024517801 
ITERATION  72 : L=   16.0008842564 DL=  6.34e-05 (AVERGE_DL)=    0.0025184032 
ITERATION  73 : L=   16.0009510725 DL=  6.68e-05 (AVERGE_DL)=    0.0025848805 
ITERATION  74 : L=   16.0010213498 DL=  7.03e-05 (AVERGE_DL)=    0.0026509866 
ITERATION  75 : L=   16.0010951423 DL=  7.38e-05 (AVERGE_DL)=    0.0027164778 
ITERATION  76 : L=   16.0011724882 DL=  7.73e-05 (AVERGE_DL)=    0.0027811131 
ITERATION  77 : L=   16.0012534071 DL=  8.09e-05 (AVERGE_DL)=    0.0028446241 
ITERATION  78 : L=   16.0013378975 DL=  8.45e-05 (AVERGE_DL)=    0.0029067241 
ITERATION  79 : L=   16.0014259361 DL=  8.80e-05 (AVERGE_DL)=    0.0029671287 
ITERATION  80 : L=   16.0015174748 DL=  9.15e-05 (AVERGE_DL)=    0.0030255373 
ITERATION  81 : L=   16.0016124389 DL=  9.50e-05 (AVERGE_DL)=    0.0030816244 
ITERATION  82 : L=   16.0017107271 DL=  9.83e-05 (AVERGE_DL)=    0.0031350951 
ITERATION  83 : L=   16.0018122084 DL=  1.01e-04 (AVERGE_DL)=    0.0031856136 
ITERATION  84 : L=   16.0019167231 DL=  1.05e-04 (AVERGE_DL)=    0.0032328730 
ITERATION  85 : L=   16.0020240813 DL=  1.07e-04 (AVERGE_DL)=    0.0032765560 
ITERATION  86 : L=   16.0021340644 DL=  1.10e-04 (AVERGE_DL)=    0.0033163703 
ITERATION  87 : L=   16.0022464242 DL=  1.12e-04 (AVERGE_DL)=    0.0033520110 
ITERATION  88 : L=   16.0023608859 DL=  1.14e-04 (AVERGE_DL)=    0.0033832191 
ITERATION  89 : L=   16.0024771489 DL=  1.16e-04 (AVERGE_DL)=    0.0034097363 
ITERATION  90 : L=   16.0025948908 DL=  1.18e-04 (AVERGE_DL)=    0.0034313530 
ITERATION  91 : L=   16.0027137681 DL=  1.19e-04 (AVERGE_DL)=    0.0034478593 
ITERATION  92 : L=   16.0028334219 DL=  1.20e-04 (AVERGE_DL)=    0.0034591014 
ITERATION  93 : L=   16.0029534809 DL=  1.20e-04 (AVERGE_DL)=    0.0034649519 
ITERATION  94 : L=   16.0030735664 DL=  1.20e-04 (AVERGE_DL)=    0.0034653359 
ITERATION  95 : L=   16.0031932965 DL=  1.20e-04 (AVERGE_DL)=    0.0034602041 
ITERATION  96 : L=   16.0033122911 DL=  1.19e-04 (AVERGE_DL)=    0.0034495592 
ITERATION  97 : L=   16.0034301762 DL=  1.18e-04 (AVERGE_DL)=    0.0034334397 
ITERATION  98 : L=   16.0035465891 DL=  1.16e-04 (AVERGE_DL)=    0.0034119340 
ITERATION  99 : L=   16.0036611828 DL=  1.15e-04 (AVERGE_DL)=    0.0033851684 
ITERATION 100 : L=   16.0037736296 DL=  1.12e-04 (AVERGE_DL)=    0.0033533099 
ITERATION 101 : L=   16.0038836255 DL=  1.10e-04 (AVERGE_DL)=    0.0033165622 
ITERATION 102 : L=   16.0039908924 DL=  1.07e-04 (AVERGE_DL)=    0.0032751629 
ITERATION 103 : L=   16.0040951813 DL=  1.04e-04 (AVERGE_DL)=    0.0032293799 
ITERATION 104 : L=   16.0041962740 DL=  1.01e-04 (AVERGE_DL)=    0.0031795067 
ITERATION 105 : L=   16.0042939839 DL=  9.77e-05 (AVERGE_DL)=    0.0031258581 
ITERATION 106 : L=   16.0043881571 DL=  9.42e-05 (AVERGE_DL)=    0.0030687656 
ITERATION 107 : L=   16.0044786722 DL=  9.05e-05 (AVERGE_DL)=    0.0030085726 
ITERATION 108 : L=   16.0045654395 DL=  8.68e-05 (AVERGE_DL)=    0.0029456295 
ITERATION 109 : L=   16.0046484002 DL=  8.30e-05 (AVERGE_DL)=    0.0028802894 
ITERATION 110 : L=   16.0047275245 DL=  7.91e-05 (AVERGE_DL)=    0.0028129038 
ITERATION 111 : L=   16.0048028098 DL=  7.53e-05 (AVERGE_DL)=    0.0027438184 
ITERATION 112 : L=   16.0048742789 DL=  7.15e-05 (AVERGE_DL)=    0.0026733700 
ITERATION 113 : L=   16.0049419769 DL=  6.77e-05 (AVERGE_DL)=    0.0026018832 
ITERATION 114 : L=   16.0050059691 DL=  6.40e-05 (AVERGE_DL)=    0.0025296680 
ITERATION 115 : L=   16.0050663384 DL=  6.04e-05 (AVERGE_DL)=    0.0024570172 
ITERATION 116 : L=   16.0051231828 DL=  5.68e-05 (AVERGE_DL)=    0.0023842053 
ITERATION 117 : L=   16.0051766124 DL=  5.34e-05 (AVERGE_DL)=    0.0023114859 
ITERATION 118 : L=   16.0052267481 DL=  5.01e-05 (AVERGE_DL)=    0.0022390996 
ITERATION 119 : L=   16.0052737177 DL=  4.70e-05 (AVERGE_DL)=    0.0021672466 
ITERATION 120 : L=   16.0053176557 DL=  4.39e-05 (AVERGE_DL)=    0.0020961402 
ITERATION 121 : L=   16.0053586998 DL=  4.10e-05 (AVERGE_DL)=    0.0020259335 
ITERATION 122 : L=   16.0053969897 DL=  3.83e-05 (AVERGE_DL)=    0.0019567813 
ITERATION 123 : L=   16.0054326662 DL=  3.57e-05 (AVERGE_DL)=    0.0018888212 
ITERATION 124 : L=   16.0054658694 DL=  3.32e-05 (AVERGE_DL)=    0.0018221745 
ITERATION 125 : L=   16.0054967372 DL=  3.09e-05 (AVERGE_DL)=    0.0017569230 
ITERATION 126 : L=   16.0055254052 DL=  2.87e-05 (AVERGE_DL)=    0.0016931629 
ITERATION 127 : L=   16.0055520050 DL=  2.66e-05 (AVERGE_DL)=    0.0016309465 
MAXIMUM NO OF ITERATIONS EXCEEDED - LOCALIZATION NOT CONVERGED


--------------------------------------------------------------------------------
                    LOCALIZED MOLECULAR ORBITAL COMPOSITIONS
--------------------------------------------------------------------------------

The Mulliken populations for each LMO on each atom are computed
The LMO`s will be ordered according to atom index and type
  (A) Strongly localized MO`s have populations of >=0.950 on one atom
  (B) Two center bond orbitals have populations of >=0.850 on two atoms
  (C) Other MO`s are considered to be `delocalized`

FOUND  -   2 strongly local MO`s
       -   3 two center bond MO`s
       -   0 significantly delocalized MO`s

Rather strongly localized orbitals:
MO   6:   1S  -   0.980951
MO   5:   0Li -   1.001716
Bond-like localized orbitals:
MO   9:   1S  -   0.894594  and   0Li -   0.105406
MO   8:   1S  -   0.930407  and   0Li -   0.069593
MO   7:   1S  -   0.897852  and   0Li -   0.102148
Localized MO's were stored in: /cluster/projects/nn14654k/ylvaos/basis_set_n_funcs/functionals/gga_x_pw91/LiS/inp/LiS_gga_x_pw91_pcseg0.loc
------------------------------------------------------------------------------
                           ORCA ORBITAL LOCALIZATION
------------------------------------------------------------------------------

Input orbitals are from                  ... /cluster/projects/nn14654k/ylvaos/basis_set_n_funcs/functionals/gga_x_pw91/LiS/inp/LiS_gga_x_pw91_pcseg0.loc
Output orbitals are to                   ... /cluster/projects/nn14654k/ylvaos/basis_set_n_funcs/functionals/gga_x_pw91/LiS/inp/LiS_gga_x_pw91_pcseg0.loc
Max. number of iterations                ... 128
Localizations seeded randomly            ... on
Convergence tolerance                    ... 1.000e-06
Threshold for strong local MOs           ... 9.500e-01
Threshold for bond MOs                   ... 8.500e-01
Operator                                 ... 1
Orbital range for localization           ... 5 to 8
Localization criterion                   ... NEW-BOYS
Doing the dipole integrals               ... o.k.
Initial value of the localization sum :    11.455775
ITERATION   0 : L=   14.3173366543 DL=  2.86e+00 (AVERGE_DL)=    0.6905989420 
ITERATION   1 : L=   14.4662572459 DL=  1.49e-01 (AVERGE_DL)=    0.1575439577 
ITERATION   2 : L=   15.0176011306 DL=  5.51e-01 (AVERGE_DL)=    0.3031347018 
ITERATION   3 : L=   15.3012086503 DL=  2.84e-01 (AVERGE_DL)=    0.2174118671 
ITERATION   4 : L=   15.3429022436 DL=  4.17e-02 (AVERGE_DL)=    0.0833602556 
ITERATION   5 : L=   15.3487068137 DL=  5.80e-03 (AVERGE_DL)=    0.0311035102 
ITERATION   6 : L=   15.3495501797 DL=  8.43e-04 (AVERGE_DL)=    0.0118558427 
ITERATION   7 : L=   15.3496754498 DL=  1.25e-04 (AVERGE_DL)=    0.0045692832 
ITERATION   8 : L=   15.3496942310 DL=  1.88e-05 (AVERGE_DL)=    0.0017692390 
ITERATION   9 : L=   15.3496970577 DL=  2.83e-06 (AVERGE_DL)=    0.0006863707 
ITERATION  10 : L=   15.3496974835 DL=  4.26e-07 (AVERGE_DL)=    0.0002664171 
LOCALIZATION SUM CONVERGED


--------------------------------------------------------------------------------
                    LOCALIZED MOLECULAR ORBITAL COMPOSITIONS
--------------------------------------------------------------------------------

The Mulliken populations for each LMO on each atom are computed
The LMO`s will be ordered according to atom index and type
  (A) Strongly localized MO`s have populations of >=0.950 on one atom
  (B) Two center bond orbitals have populations of >=0.850 on two atoms
  (C) Other MO`s are considered to be `delocalized`

FOUND  -   2 strongly local MO`s
       -   2 two center bond MO`s
       -   0 significantly delocalized MO`s

Rather strongly localized orbitals:
MO   6:   1S  -   0.989862
MO   5:   0Li -   1.001660
Bond-like localized orbitals:
MO   8:   1S  -   0.851246  and   0Li -   0.148754
MO   7:   1S  -   0.851216  and   0Li -   0.148784
Localized MO's were stored in: /cluster/projects/nn14654k/ylvaos/basis_set_n_funcs/functionals/gga_x_pw91/LiS/inp/LiS_gga_x_pw91_pcseg0.loc

-------------------------   --------------------
FINAL SINGLE POINT ENERGY      -404.472257775478
-------------------------   --------------------



           ************************************************************
           *        Program running with 8 parallel MPI-processes     *
           *              working on a common directory               *
           ************************************************************

------------------------------------------------------------------------------
                              ORCA PROPERTY CALCULATIONS
------------------------------------------------------------------------------

GBWName                                 ... /cluster/projects/nn14654k/ylvaos/basis_set_n_funcs/functionals/gga_x_pw91/LiS/inp/LiS_gga_x_pw91_pcseg0.gbw
Number of atoms                         ...      2
Number of basis functions               ...     19
Max core memory                         ...   4096 MB

Electric properties:
Dipole moment                           ... YES
Quadrupole moment                       ... YES
Static polarizability (Dipole/Dipole)   ...  NO
Static polarizability (Dipole/Quad.)    ...  NO
Static polarizability (Quad./Quad.)     ...  NO
Static polarizability (Velocity)        ...  NO
Static hyperpolarizability              ...  NO

Atomic electric properties:
Dipole moment                           ...  NO
Quadrupole moment                       ...  NO
Static polarizability                   ...  NO

Choice of electric origin               ... Center of mass
Position of electric origin             ...     0.000000     0.000000     1.308198

General magnetic properties:
Magnetizability                         ...  NO

EPR properties:
g-Tensor (aka g-matrix)                 ...  NO
Zero-Field splitting spin-orbit         ...  NO
Zero-field splitting spin-spin          ...  NO
Hyperfine couplings                     ...  NO (   0 nuclei)
Quadrupole couplings                    ...  NO (   0 nuclei)
Contact density                         ...  NO (   0 nuclei)

NMR properties:
Chemical shifts                         ...  NO (   0 nuclei)
Spin-rotation constants                 ...  NO (   0 nuclei)
Spin-spin couplings                     ...  NO (   0 nuclei,    0 pairs)

Choice of magnetic origin               ... GIAO
Position of magnetic origin             ...     0.000000     0.000000     0.000000

Properties with geometric perturbations:
SCF Hessian                             ...  NO
IR spectrum                             ...  NO
VCD spectrum                            ...  NO
X-ray spectroscopy properties:
SCF XES/XAS/RIXS spectra                ...  NO

SCF SOC stabilization energy            ...  NO
Diagonal Born-Oppenheimer correction    ...  NO

-------------
DIPOLE MOMENT
-------------

Method             : SCF
Type of density    : Electron Density
Multiplicity       :   2
Irrep              :   0
Energy             :  -404.4722577754784538 Eh
Basis              : AO
                                X                 Y                 Z
Electronic contribution:     -0.000000000      -0.000000000      -3.980766974
Nuclear contribution   :      0.000000000       0.000000000       1.549484202
                        -----------------------------------------
Total Dipole Moment    :     -0.000000000      -0.000000000      -2.431282772
                        -----------------------------------------
Magnitude (a.u.)       :      2.431282772
Magnitude (Debye)      :      6.179829687



--------------------
Rotational spectrum 
--------------------
 
Rotational constants in cm-1:             0.000000             0.639339             0.639339 
Rotational constants in MHz :             0.000000         19166.891897         19166.891897 

Dipole components along the rotational axes: 
x,y,z [a.u.] :    -2.431283    -0.000000    -0.000000 
x,y,z [Debye]:    -6.179830    -0.000000    -0.000000 

 

Dipole moment calculation done in   0.0 sec 

-----------------
QUADRUPOLE MOMENT
-----------------

Method             : SCF
Type of density    : Electron Density
Multiplicity       :   2
Irrep              :   0
Energy             :  -404.4722577754784538 Eh
Basis              : AO

                XX              YY              ZZ              XY              XZ              YZ
  NUC        0.000000000     0.000000000    41.817245673     0.000000000     0.000000000     0.000000000
  EL       -13.505844213   -12.256709179   -46.224762178    -1.111049881     0.000000000     0.000000000
  TOT      -13.505844213   -12.256709179    -4.407516505    -1.111049881     0.000000000     0.000000000 (a.u.)
           -18.165822366   -16.485693026    -5.928260436    -1.494400088     0.000000000     0.000000000 (Buckingham)

diagonalized tensor:
           -14.155841885   -11.606711507    -4.407516505 (a.u.)
           -19.040091466   -15.611423926    -5.928260436 (Buckingham)
           -16.540498568    -6.254495951    22.794994520 (traceless form in Buckingham)

            -0.863140773    -0.504963371     0.000000000
            -0.504963371     0.863140773     0.000000000
             0.000000000    -0.000000000     1.000000000
        
Isotropic quadrupole :   -10.056689966

Quadrupole moment calculation done in   0.0 sec (  0.0 sec for integrals)

Maximum memory used throughout the entire PROP-calculation: 0.9 MB

--------------------------------
SUGGESTED CITATIONS FOR THIS RUN
--------------------------------

Below you find a list of papers that are relevant to this ORCA run
We neither can nor want to force you to cite these papers, but we appreciate if you do
You receive ORCA, which is the product of decades of hard work by many enthusiastic individuals, for free
The only thing we kindly ask in return is that you cite our papers,
We deeply appreciate it, if you show your appreciation for ORCA by not just citing the generic ORCA reference.

Please note that relegating all ORCA citations to the supporting information does *not* help us.
SI sections are not indexed - citations you put there will not count into any citation statistics
But we need these citations in order to attract the funding resources that allow us to do what we are doing

Therefore, if you are a happy ORCA user, please consider citing a few of the papers listed below in the main body of your paper

In addition to the list printed below, the program has created the file /cluster/projects/nn14654k/ylvaos/basis_set_n_funcs/functionals/gga_x_pw91/LiS/inp/LiS_gga_x_pw91_pcseg0.bibtex that contains the list in bibtex format
You can import this file easily into all common literature databanks and citation aid programs

It goes without saying that in many instances, there are alternative algorithms to achieve similar
results as the ones you have gotten from ORCA. It is, of course, also the case that in some instances
ORCA just re-implements algorithms worked out by others. We are fully aware of that and we are also
fully appreciative of our colleagues work. Hence this citation list should not be read as indicating
that the listed papers, which are focused on our own work, are the only ones worth citing. It simply
meant to make it easier for users to cite ORCA specific papers. It is not a substitute for doing your
own literature research and citing the relevant literature in a scientifically appropriate manner.

List of essential papers. We consider these as the minimum necessary citations

  1. Neese, F.
     Software update: the ORCA program system, version 6.0
     WIRES Comput. Molec. Sci. 2025 15(1), e70019
     doi.org/10.1002/wcms.70019

List of papers to cite with high priority. The work reported in these papers was absolutely
necessary for this run to complete.
Our perspective: the developers of density functionals and basis sets usually get cited in chemistry papers
Good! But without the algorithms to do something with them, the functionals or basis sets would not do anything.
Hence, in our opinion, the algorithm design and method developments papers are equally worthy of getting cited

  1. Lehtola, S.; Steigemann, C.; Oliveira, M.; Marques, M.
     Recent developments in Libxc - A comprehensive library of functionals for density functional theory
     Software X 2018 7 , 
     doi.org/10.1016/j.softx.2017.11.002
  2. Neese, F.
     The SHARK Integral Generation and Digestion System
     J. Comp. Chem. 2022 44(3), 381
     doi.org/10.1002/jcc.26942

List of suggested additional citations. These are papers that are important in the 'surrounding' of 
of this run, or papers that preceded the highly important papers. If you like your results we are grateful for a citation.

  1. Neese, F.
     The ORCA program system
     WIRES Comput. Molec. Sci. 2012 2(1), 73-78
     doi.org/10.1002/wcms.81
  2. Neese, F.
     Software update: the ORCA program system, version 4.0
     WIRES Comput. Molec. Sci. 2018 8(1), 1-6
     doi.org/10.1002/wcms.1327
  3. Neese, F.; Wennmohs, F.; Becker, U.; Riplinger, C.
     The ORCA quantum chemistry program package
     J. Chem. Phys. 2020 152(22), 224108
     doi.org/10.1063/5.0004608
  4. Neese, F.
     Software update: The ORCA program system—Version 5.0
     WIRES Comput. Molec. Sci. 2022 12(1), e1606
     doi.org/10.1002/wcms.1606

List of optional additional citations

  1. Neese, F.
     Approximate second-order SCF convergence for spin unrestricted wavefunctions
     Chem. Phys. Lett. 2000 325(1-3), 93-98
     doi.org/10.1016/s0009-2614(00)00662-x

Timings for individual modules:

Sum of individual times          ...        3.729 sec (=   0.062 min)
Startup calculation              ...        0.413 sec (=   0.007 min)  11.1 %
SCF iterations                   ...        2.593 sec (=   0.043 min)  69.5 %
Property integrals               ...        0.246 sec (=   0.004 min)   6.6 %
Property calculations            ...        0.471 sec (=   0.008 min)  12.6 %
Orbital localization             ...        0.007 sec (=   0.000 min)   0.2 %
                             ****ORCA TERMINATED NORMALLY****
TOTAL RUN TIME: 0 days 0 hours 0 minutes 5 seconds 422 msec
