
                                 *****************
                                 * O   R   C   A *
                                 *****************

                                            #,                                       
                                            ###                                      
                                            ####                                     
                                            #####                                    
                                            ######                                   
                                           ########,                                 
                                     ,,################,,,,,                         
                               ,,#################################,,                 
                          ,,##########################################,,             
                       ,#########################################, ''#####,          
                    ,#############################################,,   '####,        
                  ,##################################################,,,,####,       
                ,###########''''           ''''###############################       
              ,#####''   ,,,,##########,,,,          '''####'''          '####       
            ,##' ,,,,###########################,,,                        '##       
           ' ,,###''''                  '''############,,,                           
         ,,##''                                '''############,,,,        ,,,,,,###''
      ,#''                                            '''#######################'''  
     '                                                          ''''####''''         
             ,#######,   #######,   ,#######,      ##                                
            ,#'     '#,  ##    ##  ,#'     '#,    #''#        ,####,    ,#,          
            ##       ##  ##   ,#'  ##            #'  '#       #'       ,# #          
            ##       ##  #######   ##           ,######,      #####,      #          
            '#,     ,#'  ##    ##  '#,     ,#' ,#      #,     #,   #      #          
             '#######'   ##     ##  '#######'  #'      '#     '####' #    #          



                #########################################################
                #                        -***-                          #
                #          Department of theory and spectroscopy        #
                #                                                       #
                #                      Frank Neese                      #
                #                                                       #
                #     Directorship, Architecture, Infrastructure        #
                #                    SHARK, DRIVERS                     #
                #        Core code/Algorithms in most modules           #
                #                                                       #
                #        Max Planck Institute fuer Kohlenforschung      #
                #                Kaiser Wilhelm Platz 1                 #
                #                 D-45470 Muelheim/Ruhr                 #
                #                      Germany                          #
                #                                                       #
                #                  All rights reserved                  #
                #                        -***-                          #
                #########################################################


                         Program Version 6.1.1  -  RELEASE   -
                                (GIT: $487d211c$)
                          ($2025-11-21 10:33:24 +0100$)


 With contributions from (in alphabetic order):
[Max-Planck-Institut fuer Kohlenforschung]                               
  Daniel Aravena         : Magnetic Suceptibility                        
  Michael Atanasov       : Ab Initio Ligand Field Theory (pilot matlab implementation)
  Alexander A. Auer      : GIAO ZORA, VPT2 properties, NMR spectrum      
  Ute Becker             : All parallelization in ORCA, NUMFREQ, NUMCALC 
  Giovanni Bistoni       : ED, misc. LED, open-shell LED, HFLD           
  Dmytro Bykov           : pre 5.0 version of the SCF Hessian            
  Marcos Casanova-Páez   : Triplet and SCS-CIS(D). UHF-(DLPNO)-IP/EA/STEOM-CCSD. UHF-CVS-IP/STEOM-CCSD   
  Vijay G. Chilkuri      : MRCI spin determinant printing, contributions to CSF-ICE 
  Pauline Colinet        : FMM embedding                                 
  Dipayan Datta          : RHF DLPNO-CCSD density                        
  Achintya Kumar Dutta   : EOM-CC, STEOM-CC                              
  Nicolas Foglia         : Exact transition moments, OPA infrastructure, MCD improvements    
  Dmitry Ganyushin       : Spin-Orbit,Spin-Spin,Magnetic field MRCI      
  Miquel Garcia-Rates    : C-PCM and meta-GGA Hessian, CCSD/C-PCM, Gaussian charge scheme 
  Tiago L. C. Gouveia    : GS-ROHF, GS-ROCIS                             
  Yang Guo               : DLPNO-NEVPT2, F12-NEVPT2, CIM, IAO-localization        
  Andreas Hansen         : Spin unrestricted coupled pair/coupled cluster methods 
  Ingolf Harden          : AUTO-CI MPn and infrastructure                
  Benjamin Helmich-Paris : MC-RPA, TRAH-(SCF,CASSCF), AVAS, COSX integrals, SCF dyn. polar., MC-PDFT, srDFT 
  Lee Huntington         : MR-EOM, pCC                                   
  Robert Izsak           : Overlap fitted RIJCOSX, COSX-SCS-MP3, EOM     
  Riya Kayal             : Wick's Theorem for AUTO-CI, AUTO-CI UHF-CCSDT 
  Emily Kempfer          : AUTO-CI RHF CISDT and CCSDT, approximate NEVPT4
  Christian Kollmar      : KDIIS, OOCD, Brueckner-CCSD(T), CCSD density, CASPT2, CASPT2-K, improved NEVPT2 
  Axel Koslowski         : Symmetry handling                             
  Simone Kossmann        : meta-GGA functionals, TD-DFT gradient, OOMP2, (MP2 Hessian; deprecated post 5.0) 
  Lucas Lang             : DCDCAS, Hyperfine gauge corrections, ICE-SOC+SSC
  Marvin Lechner         : AUTO-CI (C++ implementation), FIC-MRCC        
  Spencer Leger          : CASSCF response                               
  Dagmar Lenk            : GEPOL surface, SMD, ORCA-2-JSON               
  Dimitrios Liakos       : Extrapolation schemes; Compound Job, Property file
  Dimitrios Manganas     : Further ROCIS development; embedding schemes. LFT, Crystal Embedding 
  Dimitrios Pantazis     : SARC Basis sets                               
  Anastasios Papadopoulos: AUTO-CI, single reference methods and gradients 
  Taras Petrenko         : pre 6.0 DFT Hessian and TD-DFT gradient,  ECA, NRVS 
  Petra Pikulova         : Analytic Raman intensities                    
  Peter Pinski           : DLPNO-MP2, DLPNO-MP2 Gradient                 
  Shashank Vittal Rao    : ES-AILFT, MagRelax                            
  Christoph Reimann      : Effective Core Potentials                     
  Marius Retegan         : Local ZFS, SOC                                
  Christoph Riplinger    : Optimizer, TS searches, QM/MM, DLPNO-CCSD(T), (RO)-DLPNO pert. Triples 
  Michael Roemelt        : Original ROCIS implementation, recursive CI coupling coefficients
  Masaaki Saitow         : Open-shell DLPNO-CCSD energy and density      
  Barbara Sandhoefer     : DKH picture change effects                    
  Yorick L. A. Schmerwitz: GMF and freeze-and-release deltaSCF, NEB S-IDPP initial path                    
  Kantharuban Sivalingam : CASSCF convergence/infrastructure, NEVPT2, NEVPT3, NEVPT4(SD), FIC-MRCI and CEPA variants
  Bernardo de Souza      : ESD, SOC TD-DFT                               
  Georgi L. Stoychev     : AutoAux, RI-MP2 NMR, DLPNO-MP2 response, X2C  
  Van Anh Tran           : RI-MP2 g-tensors                              
  Willem Van den Heuvel  : Paramagnetic NMR                              
  Zikuan Wang            : NOTCH, Electric field optimization            
  Frank Wennmohs         : Technical directorship and infrastructure     
  Hang Xu                : AUTO-CI-Response properties                   
                                                                         
[FACCTs GmbH]                                                            
  Markus Bursch, Nicolas Foglia, Miquel Garcia-Rates, Ingolf Harden, Hagen Neugebauer, Anastasios Papadopoulos, 
  Christoph Riplinger, Bernardo de Souza, Georgi L. Stoychev                                                    
                                                                 
  APM, various basis sets, CI-OPT, improved COSX, DLPNO-Multilevel,           
  DOCKER, DRACO, updates on ESD, Fragmentator, GOAT, IRC, LR-CPCM, L-BFGS, MBIS, meta-GGA TD-DFT gradient, ML-optimized integration grids, 
  MM, NACMEs, nearIR, NEB, NEB-TS, NL-DFT gradient (VV10), 2- and 3-layer-ONIOM, interface openCOSMO-RS, QMMM,   
  Crystal-QMMM, RESP, rigid body optimization, SF, symmetry and pop. for TD-DFT, various functionals, SOLVATOR                                   
                                                                         
[Other institutions]                                                     
  V. Asgeirsson          : NEB                                           
  Christoph Bannwarth    : sTDA-DFT, sTD-DFT, PBEh-3c, B97-3c, D3        
  Giovanni Bistoni       : ETS/NOCV, ADLD/ADEX, COVALED                  
  Martin Brehm           : Molecular dynamics                            
  Ronald Cardenas        : ETS/NOCV                                      
  Martina Colucci        : COVALED                                       
  Sebastian Ehlert       : rSCAN, r2SCAN, r2SCAN-3c, D4, dhf basis sets  
  Marvin Friede          : D4 for Fr, Ra, Ac-Lr                          
  Lars Goerigk           : TD-DFT with DH, B97 family of functionals     
  Stefan Grimme          : VdW corrections, initial TS optimization, DFT functionals, gCP, sTDA/sTD-DF 
  Waldemar Hujo          : DFT-NL                                        
  H. Jonsson             : NEB                                           
  Holger Kruse           : gCP                                           
  Marcel Mueller         : wB97X-3c, vDZP basis set                      
  Hagen Neugebauer       : wr2SCAN, Native XTB                           
  Gianluca Regni         : ADLD/ADEX                                     
  Tobias Risthaus        : pre 6.0 range-separated hybrid DFT and stability analysis
  Lukas Wittmann         : regularized MP2, r2SCAN double-hybrids, wr2SCAN        
                                                                         
We gratefully acknowledge several colleagues who have allowed us to      
interface, adapt or use parts of their codes:                            
  Ed Valeev, F. Pavosevic, A. Kumar             : LibInt (2-el integral package), F12 methods 
  Garnet Chan, S. Sharma, J. Yang, R. Olivares  : DMRG                   
  Ulf Ekstrom                                   : XCFun DFT Library      
  Mihaly Kallay                                 : mrcc  (arbitrary order and MRCC methods)
  Frank Weinhold                                : gennbo (NPA and NBO analysis)           
  Simon Mueller                                 : openCOSMO-RS                            
  Christopher J. Cramer and Donald G. Truhlar   : smd solvation model                     
  S Lehtola, MJT Oliveira, MAL Marques          : LibXC Library                           
  Liviu Ungur et al                             : ANISO software                          


 Your calculation uses the libint2 library for the computation of 2-el integrals
 For citations please refer to: http://libint.valeyev.net

 Your ORCA version has been built with support for libXC version: 7.0.0
 For citations please refer to: https://libxc.gitlab.io

 This ORCA versions uses:
   CBLAS   interface :  Fast vector & matrix operations
   LAPACKE interface :  Fast linear algebra routines
   SCALAPACK package :  Parallel linear algebra routines
   Shared memory     :  Shared parallel matrices
   BLAS/LAPACK       :  OpenBLAS 0.3.29  USE64BITINT DYNAMIC_ARCH NO_AFFINITY Cooperlake SINGLE_THREADED
        Core in use  :  Cooperlake
   Copyright (c) 2011-2014, The OpenBLAS Project


  ***********************************
  * Starting time: Wed May 20 12:36:34 2026
  * Host name:     c1-5
  * Process ID:    916269
  * Working dir.:  /cluster/projects/nn14654k/ylvaos/basis_set_n_funcs/functionals/gga_x_pw91/LiS/out
  ***********************************

Using LibXC functional ID 109 : Perdew & Wang 91
[ 1]  J. P. Perdew. In P. Ziesche and H. Eschrig, editors, Proceedings of the 75. WE-Heraeus-Seminar and 21st Annual International Symposium on Electronic Structure of Solids, 11. Berlin, 1991. Akademie Verlag.
[ 2]  J. P. Perdew, J. A. Chevary, S. H. Vosko, K. A. Jackson, M. R. Pederson, D. J. Singh, and C. Fiolhais.,  Phys. Rev. B 46, 6671 (1992)
[ 3]  J. P. Perdew, J. A. Chevary, S. H. Vosko, K. A. Jackson, M. R. Pederson, D. J. Singh, and C. Fiolhais.,  Phys. Rev. B 48, 4978 (1993)
Using LibXC functional ID 109 : Perdew & Wang 91
[ 1]  J. P. Perdew. In P. Ziesche and H. Eschrig, editors, Proceedings of the 75. WE-Heraeus-Seminar and 21st Annual International Symposium on Electronic Structure of Solids, 11. Berlin, 1991. Akademie Verlag.
[ 2]  J. P. Perdew, J. A. Chevary, S. H. Vosko, K. A. Jackson, M. R. Pederson, D. J. Singh, and C. Fiolhais.,  Phys. Rev. B 46, 6671 (1992)
[ 3]  J. P. Perdew, J. A. Chevary, S. H. Vosko, K. A. Jackson, M. R. Pederson, D. J. Singh, and C. Fiolhais.,  Phys. Rev. B 48, 4978 (1993)
Your calculation utilizes LibXC
by S. Lehtola, C. Steigemann, M. J. T. Oliveira & M. A. L. Marques
Please cite in your paper:
Lehtola, S.; Steigemann, C.; Oliveira, M.J.T.; Marques, M. A. L. Software X, 7, (2018), 1.
   

================================================================================

----- Orbital basis set information -----
Your calculation utilizes the basis: aug-cc-pVQZ 
    H, B-Ne : Obtained from the ccRepo (grant-hill.group.shef.ac.uk/ccrepo) Feb. 2017
              R. A. Kendall, T. H. Dunning, Jr., R. J. Harrison, J. Chem. Phys. 96, 6796 (1992)
         He : Obtained from the ccRepo (grant-hill.group.shef.ac.uk/ccrepo) Feb. 2017
              D. E. Woon, T. H. Dunning, Jr., J. Chem. Phys. 100, 2975 (1994)
  Li-Be, Na : Obtained from the ccRepo (grant-hill.group.shef.ac.uk/ccrepo) Feb. 2017
              B. P. Prascher, D. E. Woon, K. A. Peterson, T. H. Dunning, Jr., A. K. Wilson, Theor. Chem. Acc. 128, 69 (2011)
         Mg : Obtained from the Peterson Research Group Website (tyr0.chem.wsu.edu/~kipeters) Feb. 2017
              B. P. Prascher, D. E. Woon, K. A. Peterson, T. H. Dunning, Jr., A. K. Wilson, Theor. Chem. Acc. 128, 69 (2011)
      Al-Ar : Obtained from the ccRepo (grant-hill.group.shef.ac.uk/ccrepo) Feb. 2017
              D. E. Woon, T. H. Dunning, Jr., J. Chem. Phys. 98, 1358 (1993)
      Sc-Zn : Obtained from the ccRepo (grant-hill.group.shef.ac.uk/ccrepo) Feb. 2017
              N. B. Balabanov, K. A. Peterson, J. Chem. Phys. 123, 064107 (2005)
              N. B. Balabanov, K. A. Peterson, J. Chem. Phys. 125, 074110 (2006)
      Ga-Kr : Obtained from the ccRepo (grant-hill.group.shef.ac.uk/ccrepo) Feb. 2017
              A. K. Wilson, D. E. Woon, K. A. Peterson, T. H. Dunning, Jr., J. Chem. Phys. 110, 7667 (1999)

================================================================================
                                        WARNINGS
                       Please study these warnings very carefully!
================================================================================


WARNING: your system is open-shell and RHF/RKS was chosen
  ===> : WILL SWITCH to UHF/UKS


================================================================================
                                       INPUT FILE
================================================================================
NAME = /cluster/projects/nn14654k/ylvaos/basis_set_n_funcs/functionals/gga_x_pw91/LiS/inp/LiS_gga_x_pw91_augccpvqz.inp
|  1> ! dft aug-cc-pVQZ TightSCF
|  2> %pal nprocs 8 end
|  3> 
|  4> %loc
|  5>   LocMet NewBoys
|  6>   Occ true
|  7> end
|  8> 
|  9> %method
| 10>   exchange gga_x_pw91
| 11>   correlation None
| 12> end
| 13> 
| 14> %elprop
| 15>   Dipole true
| 16>   Quadrupole true
| 17> end
| 18> 
| 19> * xyz 0 2
| 20> Li    0.000000000000   0.000000000000  -1.074850000000
| 21> S    0.000000000000   0.000000000000   1.074850000000
| 22> *
| 23> 
| 24> 
| 25>                          ****END OF INPUT****
================================================================================

                       ****************************
                       * Single Point Calculation *
                       ****************************

---------------------------------
CARTESIAN COORDINATES (ANGSTROEM)
---------------------------------
  Li     0.000000    0.000000   -1.074850
  S      0.000000    0.000000    1.074850

----------------------------
CARTESIAN COORDINATES (A.U.)
----------------------------
  NO LB      ZA    FRAG     MASS         X           Y           Z
   0 Li    3.0000    0     6.941    0.000000    0.000000   -2.031172
   1 S    16.0000    0    32.060    0.000000    0.000000    2.031172

--------------------------------
INTERNAL COORDINATES (ANGSTROEM)
--------------------------------
 Li     0   0   0     0.000000000000     0.00000000     0.00000000
 S      1   0   0     2.149700000000     0.00000000     0.00000000

---------------------------
INTERNAL COORDINATES (A.U.)
---------------------------
 Li     0   0   0     0.000000000000     0.00000000     0.00000000
 S      1   0   0     4.062344270091     0.00000000     0.00000000

---------------------
BASIS SET INFORMATION
---------------------
There are 2 groups of distinct atoms

 Group   1 Type Li  : 22s7p4d3f2g contracted to 6s5p4d3f2g pattern {991111/31111/1111/111/11}
 Group   2 Type S   : 43s20p4d3f2g contracted to 7s6p4d3f2g pattern {1313131111/881111/1111/111/11}

Atom   0Li   basis set group =>   1
Atom   1S    basis set group =>   2


           ************************************************************
           *        Program running with 8 parallel MPI-processes     *
           *              working on a common directory               *
           ************************************************************
------------------------------------------------------------------------------
                             ORCA STARTUP CALCULATIONS
------------------------------------------------------------------------------
------------------------------------------------------------------------------
                   ___                                                        
                  /   \      - P O W E R E D   B Y -                         
                 /     \                                                     
                 |  |  |   _    _      __       _____    __    __             
                 |  |  |  | |  | |    /  \     |  _  \  |  |  /  |          
                  \  \/   | |  | |   /    \    | | | |  |  | /  /          
                 / \  \   | |__| |  /  /\  \   | |_| |  |  |/  /          
                |  |  |   |  __  | /  /__\  \  |    /   |      \           
                |  |  |   | |  | | |   __   |  |    \   |  |\   \          
                \     /   | |  | | |  |  |  |  | |\  \  |  | \   \       
                 \___/    |_|  |_| |__|  |__|  |_| \__\ |__|  \__/        
                                                                              
                      - O R C A' S   B I G   F R I E N D -                    
                                      &                                       
                       - I N T E G R A L  F E E D E R -                       
                                                                              
 v1 FN, 2020, v2 2021, v3 2022-2024                                           
------------------------------------------------------------------------------


----------------------
SHARK INTEGRAL PACKAGE
----------------------

Number of atoms                             ...      2
Number of basis functions                   ...    199
Number of shells                            ...     65
Maximum angular momentum                    ...      4
Integral batch strategy                     ... SHARK/LIBINT Hybrid
RI-J (if used) integral strategy            ... SPLIT-RIJ (Revised 2003 algorithm where possible)
Printlevel                                  ...      1
Contraction scheme used                     ... PARTIAL GENERAL contraction
Prescreening option                         ... SCHWARTZ
   Thresh                                   ... 2.500e-11
   Tcut                                     ... 2.500e-12
   Tpresel                                  ... 2.500e-12 
Coulomb Range Separation                    ... NOT USED
Exchange Range Separation                   ... NOT USED
Multipole approximations                    ... NOT USED
Finite Nucleus Model                        ... NOT USED
CABS basis                                  ... NOT available
Auxiliary Coulomb fitting basis             ... NOT available
Auxiliary J/K fitting basis                 ... NOT available
Auxiliary Correlation fitting basis         ... NOT available
Auxiliary 'external' fitting basis          ... NOT available

Checking pre-screening integrals            ... done (  0.0 sec) Dimension = 65
Save PGC pre-screening integrals            ... done (  0.0 sec) Dimension = 65
Calculate PGC overlap integrals             ... done (  0.0 sec) Dimension = 42
Calculating pre-screening integrals (ORCA)  ... done (  0.1 sec) Dimension = 42
Shell pair information
Shell pair cut-off parameter TPreSel        ...   2.5e-12
Total number of shell pairs                 ...      2145
Shell pairs after pre-screening             ...      1997
Total number of primitive shell pairs       ...      2281
Primitive shell pairs kept                  ...      2114
          la=0 lb=0:    376 shell pairs
          la=1 lb=0:    461 shell pairs
          la=1 lb=1:    153 shell pairs
          la=2 lb=0:    240 shell pairs
          la=2 lb=1:    136 shell pairs
          la=2 lb=2:     36 shell pairs
          la=3 lb=0:    176 shell pairs
          la=3 lb=1:    102 shell pairs
          la=3 lb=2:     48 shell pairs
          la=3 lb=3:     21 shell pairs
          la=4 lb=0:    114 shell pairs
          la=4 lb=1:     68 shell pairs
          la=4 lb=2:     32 shell pairs
          la=4 lb=3:     24 shell pairs
          la=4 lb=4:     10 shell pairs

Checking whether 4 symmetric matrices of dimension 199 fit in memory
:Max Core in MB      =   4096.00
 MB in use           =      5.51
 MB left             =   4090.49
 MB needed           =      0.61
 Data fit in memory  = YES
Calculating Nuclear repulsion               ... done (  0.0 sec) ENN=     11.815837557985 Eh

Diagonalization of the overlap matrix:
Smallest eigenvalue                        ... 8.338e-05
Time for diagonalization                   ...    0.002 sec
Threshold for overlap eigenvalues          ... 1.000e-07
Number of eigenvalues below threshold      ... 0
Time for construction of square roots      ...    0.004 sec
Total time needed                          ...    0.008 sec

-------------------
DFT GRID GENERATION
-------------------

General Integration Accuracy     IntAcc      ... 4.388
Radial Grid Type                 RadialGrid  ... OptM3 with GC (2021)
Angular Grid (max. ang.)         AngularGrid ... 4 (Lebedev-302)
Angular grid pruning method      GridPruning ... 4 (adaptive)
Weight generation scheme         WeightScheme... mBecke (2022)
Basis function cutoff            BFCut       ... 1.0000e-11
Integration weight cutoff        WCut        ... 1.0000e-14
Partially contracted basis set               ... off
Rotationally invariant grid construction     ... off
Angular grids for H and He will be reduced by one unit
Diffuse basis detected: some atoms will have their outermost
                        angular grid increased by 1.

Total number of grid points                  ...    14126
Total number of batches                      ...      221
Average number of points per batch           ...       63
Average number of grid points per atom       ...     7063

---------------------
SHARK GRID GENERATION
---------------------

General Integration Accuracy     IntAcc      ... 4.388
Radial Grid Type                 RadialGrid  ... OptM3 with GC (2021)
Angular Grid (max. ang.)         AngularGrid ... 4 (Lebedev-302)
Angular grid pruning method      GridPruning ... 4 (adaptive)
Weight generation scheme         WeightScheme... mBecke (2022)
Basis function cutoff            BFCut       ... 1.0000e-11
Integration weight cutoff        WCut        ... 1.0000e-14
Partially contracted basis set               ... off
Rotationally invariant grid construction     ... off
Angular grids for H and He will be reduced by one unit
Diffuse basis detected: some atoms will have their outermost
                        angular grid increased by 1.
Core-polarized basis detected: some atoms will have their core
                               angular grid increased.
Steep s-basis detected: some atoms will have their radial
                        grid points doubled.

Total number of grid points                  ...    33087
Total number of batches                      ...      518
Average number of points per batch           ...       63
Average number of grid points per atom       ...    16544
Grids setup in   0.8 sec
Initializing property integral containers    ... done (  0.0 sec)

SHARK setup successfully completed in   1.0 seconds

Maximum memory used throughout the entire STARTUP-calculation: 59.0 MB


           ************************************************************
           *        Program running with 8 parallel MPI-processes     *
           *              working on a common directory               *
           ************************************************************
-------------------------------------------------------------------------------
                                 ORCA GUESS
                   Start orbitals & Density for SCF / CASSCF
-------------------------------------------------------------------------------

------------
SCF SETTINGS
------------
Hamiltonian:
 Density Functional     Method          .... DFT(GTOs)
  Functional kind                       .... Exchange
  Functional name                       .... Perdew & Wang 91
  Functional family                     .... GGA
  Functional refs                              
    [ 0] J. P. Perdew. In P. Ziesche and H. Eschrig, editors, Proceedings of the 75. WE-Heraeus-Seminar and 21st Annual International Symposium on Electronic Structure of Solids, 11. Berlin, 1991. Akademie Verlag.
    [ 1] J. P. Perdew, J. A. Chevary, S. H. Vosko, K. A. Jackson, M. R. Pederson, D. J. Singh, and C. Fiolhais.,  Phys. Rev. B 46, 6671 (1992), doi: 10.1103/PhysRevB.46.6671
    [ 2] J. P. Perdew, J. A. Chevary, S. H. Vosko, K. A. Jackson, M. R. Pederson, D. J. Singh, and C. Fiolhais.,  Phys. Rev. B 48, 4978 (1993), doi: 10.1103/PhysRevB.48.4978.2
  Functional external parameters        .... 7
    Parameter  0 _a         =  1.964500e-01 : a parameter         
    Parameter  1 _b         =  7.795600e+00 : b parameter         
    Parameter  2 _c         =  2.743000e-01 : c parameter         
    Parameter  3 _d         = -1.508000e-01 : d parameter         
    Parameter  4 _f         =  4.000000e-03 : f parameter         
    Parameter  5 _alpha     =  1.000000e+02 : alpha parameter     
    Parameter  6 _expo      =  4.000000e+00 : exponent            
 Correlation Functional Correlation     .... No Correlation
 Gradients option       PostSCFGGA      .... off


General Settings:
 Integral files         IntName         .... /cluster/projects/nn14654k/ylvaos/basis_set_n_funcs/functionals/gga_x_pw91/LiS/inp/LiS_gga_x_pw91_augccpvqz
 Hartree-Fock type      HFTyp           .... UHF
 Total Charge           Charge          ....    0
 Multiplicity           Mult            ....    2
 Number of Electrons    NEL             ....   19
 Basis Dimension        Dim             ....  164
 Nuclear Repulsion      ENuc            ....     11.8158375580 Eh

Convergence Acceleration:
 AO-DIIS                CNVDIIS         .... on
   Start iteration      DIISMaxIt       ....    12
   Startup error        DIISStart       ....  0.200000
   # of expansion vecs  DIISMaxEq       ....     5
   Bias factor          DIISBfac        ....   1.050
   Max. coefficient     DIISMaxC        ....  10.000
 MO-DIIS                CNVKDIIS        .... off
 Trust-Rad. Augm. Hess. CNVTRAH         .... auto
   Auto Start mean grad. ratio tolernc. ....  1.125000
   Auto Start start iteration           ....    50
   Auto Start num. interpolation iter.  ....    10
   Max. Number of Micro iterations      ....    24
   Max. Number of Macro iterations      .... Maxiter - #DIIS iter
   Number of Davidson start vectors     ....     2
   Converg. threshold    (grad. norm)   ....   1.000e-05
   Grad. Scal. Fac. for Micro threshold ....   0.100
   Minimum threshold for Micro iter.    ....   1.000e-02
   NR start threshold (gradient norm)   ....   1.000e-04
   Initial trust radius                 ....   0.400
   Minimum AH scaling param. (alpha)    ....   1.000
   Maximum AH scaling param. (alpha)    .... 1000.000
   Quad. conv. algorithm                .... NR
   White noise on init. David. guess    .... on
   Maximum white noise                  ....   0.010
   Pseudo random numbers                .... off
   Inactive MOs                         .... canonical
   Orbital update algorithm             .... Taylor
   Preconditioner                       .... Diag
   Full preconditioner red. dimension   ....   250
 SOSCF                 CNVSOSCF           .... on
   Start iteration     SOSCFMaxIt         ....   150
   Startup grad/error  SOSCFStart         ....  0.003300
   Hessian update      SOSCFHessUp        .... L-BFGS
   Autom. constraints  SOSCFAutoConstrain .... off
 Level Shifting         CNVShift        .... on
   Level shift para.    LevelShift      ....    0.2500
   Turn off err/grad.   ShiftErr        ....    0.0010
 Zerner damping         CNVZerner       .... off
 Static damping         CNVDamp         .... on
   Fraction old density DampFac         ....    0.7000
   Max. Damping (<1)    DampMax         ....    0.9800
   Min. Damping (>=0)   DampMin         ....    0.0000
   Turn off err/grad.   DampErr         ....    0.1000

SCF Procedure:
 Maximum # iterations   MaxIter         ....   125
 SCF integral mode      SCFMode         .... Direct
   Integral package                     .... SHARK and LIBINT hybrid scheme
 Reset frequency        DirectResetFreq ....    20
 Integral Threshold     Thresh          ....  2.500e-11 Eh
 Primitive CutOff       TCut            ....  2.500e-12 Eh

Convergence Tolerance:
 Convergence Check Mode ConvCheckMode   .... Total+1el-Energy
 Convergence forced     ConvForced      .... 0
 Energy Change          TolE            ....  1.000e-08 Eh
 1-El. energy change                    ....  1.000e-05 Eh
 Orbital Gradient       TolG            ....  1.000e-05
 Orbital Rotation angle TolX            ....  1.000e-05
 DIIS Error             TolErr          ....  5.000e-07

------------------------------
INITIAL GUESS: MODEL POTENTIAL
------------------------------
Loading Hartree-Fock densities                     ... done
Calculating cut-offs                               ... done
Initializing the effective Hamiltonian             ... done
Setting up the integral package (SHARK)            ... done
Starting the Coulomb interaction                   ... done (   0.0 sec)
Making the grid                                    ... done (   0.0 sec)
Mapping shells                                     ... done
Starting the XC term evaluation                    ... done (   0.0 sec)
  promolecular density results
     # of electrons  =     18.999681821
     EX              =    -26.701294417
     EC              =      0.000000000
     EX+EC           =    -26.701294417
Transforming the Hamiltonian                       ... done (   0.0 sec)
Diagonalizing the Hamiltonian                      ... done (   0.0 sec)
Back transforming the eigenvectors                 ... done (   0.0 sec)
Now organizing SCF variables                       ... done
                      ------------------
                      INITIAL GUESS DONE (   0.1 sec)
                      ------------------
             **** ENERGY FILE WAS UPDATED (/cluster/projects/nn14654k/ylvaos/basis_set_n_funcs/functionals/gga_x_pw91/LiS/inp/LiS_gga_x_pw91_augccpvqz.en.tmp) ****
Finished Guess after   0.1 sec
Maximum memory used throughout the entire GUESS-calculation: 12.1 MB


           ************************************************************
           *        Program running with 8 parallel MPI-processes     *
           *              working on a common directory               *
           ************************************************************

-------------------------------------------------------------------------------------------
                                      ORCA LEAN-SCF
                              memory conserving SCF solver
-------------------------------------------------------------------------------------------

----------------------------------------D-I-I-S--------------------------------------------
Iteration    Energy (Eh)           Delta-E    RMSDP     MaxDP     DIISErr   Damp  Time(sec)
-------------------------------------------------------------------------------------------
               ***  Starting incremental Fock matrix formation  ***
    1    -404.9359790143061559     0.00e+00  1.83e-03  2.62e-02  5.87e-02  0.700   0.4
Warning: op=0 Small HOMO/LUMO gap (   0.036) - skipping pre-diagonalization
         Will do a full diagonalization
    2    -404.9518504147736166    -1.59e-02  1.80e-03  2.09e-02  3.31e-02  0.700   0.4
                               ***Turning on AO-DIIS***
    3    -404.9591967765526306    -7.35e-03  9.15e-04  1.09e-02  1.57e-02  0.700   0.4
    4    -404.9628427025754718    -3.65e-03  1.38e-03  1.65e-02  1.08e-02  0.000   0.4
    5    -404.9710798632703472    -8.24e-03  5.16e-04  6.67e-03  4.57e-03  0.000   0.4
                              *** Initializing SOSCF ***
---------------------------------------S-O-S-C-F--------------------------------------
Iteration    Energy (Eh)           Delta-E    RMSDP     MaxDP     MaxGrad    Time(sec)
--------------------------------------------------------------------------------------
    6    -404.9713387911550058    -2.59e-04  1.68e-04  2.54e-03  2.38e-03     0.5
               *** Restarting incremental Fock matrix formation ***
    7    -404.9714128772823187    -7.41e-05  1.17e-04  1.19e-03  1.01e-03     0.4
    8    -404.9714250214154276    -1.21e-05  9.22e-05  1.08e-03  6.26e-04     0.4
    9    -404.9714343661009366    -9.34e-06  4.88e-05  5.10e-04  2.05e-04     0.4
   10    -404.9714347096174265    -3.44e-07  1.05e-05  1.26e-04  6.68e-05     0.4
   11    -404.9714347882518837    -7.86e-08  5.32e-06  8.28e-05  2.81e-05     0.3
   12    -404.9714347990045553    -1.08e-08  1.85e-06  2.78e-05  1.60e-05     0.4
   13    -404.9714348011165157    -2.11e-09  9.62e-07  1.31e-05  2.94e-06     0.3
                 **** Energy Check signals convergence ****

               *****************************************************
               *                     SUCCESS                       *
               *           SCF CONVERGED AFTER  13 CYCLES          *
               *****************************************************

             **** ENERGY FILE WAS UPDATED (/cluster/projects/nn14654k/ylvaos/basis_set_n_funcs/functionals/gga_x_pw91/LiS/inp/LiS_gga_x_pw91_augccpvqz.en.tmp) ****

----------------
TOTAL SCF ENERGY
----------------

Total Energy       :       -404.97143480136418 Eh          -11019.83298 eV

Components:
Nuclear Repulsion  :         11.81583755798484 Eh             321.52529 eV
Electronic Energy  :       -416.78727235934900 Eh          -11341.35826 eV
One Electron Energy:       -583.98808565549234 Eh          -15891.12370 eV
Two Electron Energy:        167.20081329614331 Eh            4549.76544 eV

Virial components:
Potential Energy   :       -809.10369602873573 Eh          -22016.83088 eV
Kinetic Energy     :        404.13226122737154 Eh           10996.99790 eV
Virial Ratio       :          2.00207648251452

DFT components:
N(Alpha)           :       10.000006893842 electrons
N(Beta)            :        9.000006898627 electrons
N(Total)           :       19.000013792469 electrons
E(X)               :      -26.763265622113 Eh       
E(C)               :        0.000000000000 Eh       
E(XC)              :      -26.763265622113 Eh       

---------------
SCF CONVERGENCE
---------------

  Last Energy change         ...    2.1120e-09  Tolerance :   1.0000e-08
  Last MAX-Density change    ...    1.3149e-05  Tolerance :   1.0000e-07
  Last RMS-Density change    ...    9.6228e-07  Tolerance :   5.0000e-09
  Last DIIS Error            ...    2.3789e-03  Tolerance :   5.0000e-07
  Last Orbital Gradient      ...    2.9380e-06  Tolerance :   1.0000e-05
  Last Orbital Rotation      ...    2.8236e-05  Tolerance :   1.0000e-05


----------------------
UHF SPIN CONTAMINATION
----------------------

Warning: in a DFT calculation there is little theoretical justification to 
         calculate <S**2> as in Hartree-Fock theory. We will do it anyways
         but you should keep in mind that the values have only limited relevance

Expectation value of <S**2>     :     0.757256
Ideal value S*(S+1) for S=0.5   :     0.750000
Deviation                       :     0.007256

----------------
ORBITAL ENERGIES
----------------
                 SPIN UP ORBITALS
  NO   OCC          E(Eh)            E(eV) 
   0   1.0000     -88.064824     -2396.3657 
   1   1.0000      -7.592412      -206.6000 
   2   1.0000      -5.632090      -153.2570 
   3   1.0000      -5.616070      -152.8210 
   4   1.0000      -5.615766      -152.8128 
   5   1.0000      -1.868245       -50.8375 
   6   1.0000      -0.532108       -14.4794 
   7   1.0000      -0.198841        -5.4107 
   8   1.0000      -0.174156        -4.7390 
   9   1.0000      -0.153006        -4.1635 
  10   0.0000      -0.076496        -2.0816 
  11   0.0000      -0.015233        -0.4145 
  12   0.0000      -0.010389        -0.2827 
  13   0.0000       0.002102         0.0572 
  14   0.0000       0.006272         0.1707 
  15   0.0000       0.017680         0.4811 
  16   0.0000       0.018979         0.5165 
  17   0.0000       0.032775         0.8918 
  18   0.0000       0.042969         1.1692 
  19   0.0000       0.043430         1.1818 
  20   0.0000       0.048468         1.3189 

                 SPIN DOWN ORBITALS
  NO   OCC          E(Eh)            E(eV) 
   0   1.0000     -88.060603     -2396.2508 
   1   1.0000      -7.587284      -206.4605 
   2   1.0000      -5.618479      -152.8866 
   3   1.0000      -5.613035      -152.7385 
   4   1.0000      -5.612605      -152.7267 
   5   1.0000      -1.868488       -50.8441 
   6   1.0000      -0.488351       -13.2887 
   7   1.0000      -0.159315        -4.3352 
   8   1.0000      -0.138648        -3.7728 
   9   0.0000      -0.118571        -3.2265 
  10   0.0000      -0.076616        -2.0848 
  11   0.0000      -0.011716        -0.3188 
  12   0.0000      -0.008331        -0.2267 
  13   0.0000       0.004079         0.1110 
  14   0.0000       0.006186         0.1683 
  15   0.0000       0.018534         0.5043 
  16   0.0000       0.018930         0.5151 
  17   0.0000       0.033823         0.9204 
  18   0.0000       0.043531         1.1845 
  19   0.0000       0.045131         1.2281 
*Only the first 10 virtual orbitals were printed.

                    ********************************
                    * MULLIKEN POPULATION ANALYSIS *
                    ********************************

--------------------------------------------
MULLIKEN ATOMIC CHARGES AND SPIN POPULATIONS
--------------------------------------------
   0 Li:    0.193466    0.022035
   1 S :   -0.193466    0.977965
Sum of atomic charges         :    0.0000000
Sum of atomic spin populations:    1.0000000

-----------------------------------------------------
MULLIKEN REDUCED ORBITAL CHARGES AND SPIN POPULATIONS
-----------------------------------------------------
CHARGE
  0 Lis       :     2.414700  s :     2.414700
      pz      :     0.133720  p :     0.300751
      px      :     0.035191
      py      :     0.131840
      dz2     :     0.020941  d :     0.065459
      dxz     :     0.012534
      dyz     :     0.031944
      dx2y2   :     0.000039
      dxy     :     0.000001
      f0      :     0.007470  f :     0.020915
      f+1     :     0.004077
      f-1     :     0.009335
      f+2     :     0.000011
      f-2     :     0.000000
      f+3     :     0.000008
      f-3     :     0.000014
      g0      :     0.002163  g :     0.004709
      g+1     :     0.000804
      g-1     :     0.001731
      g+2     :    -0.000002
      g-2     :    -0.000000
      g+3     :     0.000005
      g-3     :     0.000008
      g+4     :     0.000000
      g-4     :     0.000000

  1 S s       :     5.924797  s :     5.924797
      pz      :     3.530303  p :    10.297305
      px      :     2.948706
      py      :     3.818296
      dz2     :    -0.032539  d :    -0.026611
      dxz     :     0.001797
      dyz     :     0.002664
      dx2y2   :     0.001447
      dxy     :     0.000020
      f0      :    -0.003803  f :    -0.002577
      f+1     :    -0.000080
      f-1     :     0.000267
      f+2     :     0.000272
      f-2     :     0.000004
      f+3     :     0.000346
      f-3     :     0.000418
      g0      :     0.000452  g :     0.000552
      g+1     :     0.000019
      g-1     :     0.000072
      g+2     :     0.000004
      g-2     :     0.000000
      g+3     :     0.000001
      g-3     :     0.000002
      g+4     :     0.000002
      g-4     :     0.000000


SPIN
  0 Lis       :    -0.013690  s :    -0.013690
      pz      :     0.000217  p :     0.019597
      px      :     0.034749
      py      :    -0.015370
      dz2     :    -0.001114  d :     0.011255
      dxz     :     0.012539
      dyz     :    -0.000196
      dx2y2   :     0.000026
      dxy     :     0.000000
      f0      :    -0.000630  f :     0.003983
      f+1     :     0.004134
      f-1     :     0.000457
      f+2     :     0.000002
      f-2     :     0.000000
      f+3     :     0.000008
      f-3     :     0.000013
      g0      :    -0.000143  g :     0.000890
      g+1     :     0.000840
      g-1     :     0.000183
      g+2     :    -0.000002
      g-2     :    -0.000000
      g+3     :     0.000005
      g-3     :     0.000007
      g+4     :    -0.000000
      g-4     :    -0.000000

  1 S s       :    -0.001586  s :    -0.001586
      pz      :     0.015386  p :     0.975897
      px      :     0.942249
      py      :     0.018262
      dz2     :     0.000306  d :     0.002995
      dxz     :     0.001787
      dyz     :    -0.000032
      dx2y2   :     0.000921
      dxy     :     0.000013
      f0      :     0.000063  f :     0.000637
      f+1     :    -0.000082
      f-1     :    -0.000254
      f+2     :     0.000216
      f-2     :     0.000003
      f+3     :     0.000343
      f-3     :     0.000348
      g0      :     0.000016  g :     0.000022
      g+1     :     0.000019
      g-1     :    -0.000013
      g+2     :     0.000001
      g-2     :     0.000000
      g+3     :     0.000001
      g-3     :     0.000001
      g+4     :    -0.000002
      g-4     :    -0.000000



                     *******************************
                     * LOEWDIN POPULATION ANALYSIS *
                     *******************************

-------------------------------------------
LOEWDIN ATOMIC CHARGES AND SPIN POPULATIONS
-------------------------------------------
   0 Li:   -0.829612    0.245880
   1 S :    0.829612    0.754120

----------------------------------------------------
LOEWDIN REDUCED ORBITAL CHARGES AND SPIN POPULATIONS
----------------------------------------------------
CHARGE
  0 Lis       :     2.158137  s :     2.158137
      pz      :     0.342816  p :     0.605413
      px      :     0.067016
      py      :     0.195581
      dz2     :     0.248656  d :     0.490323
      dxz     :     0.080842
      dyz     :     0.160775
      dx2y2   :     0.000050
      dxy     :     0.000001
      f0      :     0.158575  f :     0.369916
      f+1     :     0.074211
      f-1     :     0.137043
      f+2     :     0.000056
      f-2     :     0.000001
      f+3     :     0.000011
      f-3     :     0.000019
      g0      :     0.075621  g :     0.205823
      g+1     :     0.047024
      g-1     :     0.083082
      g+2     :     0.000061
      g-2     :     0.000001
      g+3     :     0.000014
      g-3     :     0.000020
      g+4     :     0.000000
      g-4     :     0.000000

  1 S s       :     5.324728  s :     5.324728
      pz      :     3.620906  p :     9.763143
      px      :     2.730826
      py      :     3.411410
      dz2     :     0.026910  d :     0.035622
      dxz     :     0.002062
      dyz     :     0.005293
      dx2y2   :     0.001339
      dxy     :     0.000018
      f0      :     0.028945  f :     0.033849
      f+1     :     0.001044
      f-1     :     0.002858
      f+2     :     0.000262
      f-2     :     0.000004
      f+3     :     0.000334
      f-3     :     0.000402
      g0      :     0.012907  g :     0.013046
      g+1     :     0.000023
      g-1     :     0.000108
      g+2     :     0.000003
      g-2     :     0.000000
      g+3     :     0.000001
      g-3     :     0.000001
      g+4     :     0.000002
      g-4     :     0.000000


SPIN
  0 Lis       :    -0.011180  s :    -0.011180
      pz      :    -0.001501  p :     0.048932
      px      :     0.066275
      py      :    -0.015842
      dz2     :     0.000672  d :     0.081963
      dxz     :     0.080178
      dyz     :     0.001079
      dx2y2   :     0.000034
      dxy     :     0.000000
      f0      :     0.001128  f :     0.077523
      f+1     :     0.073316
      f-1     :     0.003013
      f+2     :     0.000037
      f-2     :     0.000001
      f+3     :     0.000011
      f-3     :     0.000017
      g0      :     0.000480  g :     0.048642
      g+1     :     0.045729
      g-1     :     0.002359
      g+2     :     0.000042
      g-2     :     0.000001
      g+3     :     0.000014
      g-3     :     0.000017
      g+4     :    -0.000000
      g-4     :    -0.000000

  1 S s       :     0.002645  s :     0.002645
      pz      :     0.005465  p :     0.746389
      px      :     0.727644
      py      :     0.013281
      dz2     :     0.000946  d :     0.003386
      dxz     :     0.002041
      dyz     :    -0.000453
      dx2y2   :     0.000841
      dxy     :     0.000012
      f0      :     0.000178  f :     0.001708
      f+1     :     0.001032
      f-1     :    -0.000379
      f+2     :     0.000209
      f-2     :     0.000003
      f+3     :     0.000331
      f-3     :     0.000334
      g0      :    -0.000009  g :    -0.000009
      g+1     :     0.000022
      g-1     :    -0.000021
      g+2     :    -0.000000
      g-2     :    -0.000000
      g+3     :     0.000001
      g-3     :     0.000001
      g+4     :    -0.000002
      g-4     :    -0.000000



                      *****************************
                      * MAYER POPULATION ANALYSIS *
                      *****************************

  NA   - Mulliken gross atomic population
  ZA   - Total nuclear charge
  QA   - Mulliken gross atomic charge
  VA   - Mayer's total valence
  BVA  - Mayer's bonded valence
  FA   - Mayer's free valence

  ATOM       NA         ZA         QA         VA         BVA        FA
  0 Li     2.8065     3.0000     0.1935     0.8134     0.8100     0.0033
  1 S     16.1935    16.0000    -0.1935     1.7192     0.8100     0.9091

  Mayer bond orders larger than 0.100000
B(  0-Li,  1-S ) :   0.8100 

-------
TIMINGS
-------

Total SCF time: 0 days 0 hours 0 min 5 sec 

Total time                  ....       5.531 sec
Sum of individual times     ....       5.211 sec  ( 94.2%)

SCF preparation             ....       0.126 sec  (  2.3%)
Fock matrix formation       ....       4.591 sec  ( 83.0%)
  Startup                   ....       0.020 sec  (  0.4% of F)
  Coulomb formation         ....       3.914 sec  ( 85.3% of F)
  XC integration            ....       0.601 sec  ( 13.1% of F)
    XC Preparation          ....       0.000 sec  (  0.0% of XC)
    Basis function eval.    ....       0.046 sec  (  7.7% of XC)
    Density eval.           ....       0.063 sec  ( 10.5% of XC)
    XC-Functional eval.     ....       0.012 sec  (  2.0% of XC)
    XC-Potential eval.      ....       0.208 sec  ( 34.5% of XC)
Diagonalization             ....       0.000 sec  (  0.0%)
Density matrix formation    ....       0.110 sec  (  2.0%)
Total Energy calculation    ....       0.036 sec  (  0.7%)
Population analysis         ....       0.015 sec  (  0.3%)
Orbital Transformation      ....       0.051 sec  (  0.9%)
Orbital Orthonormalization  ....       0.000 sec  (  0.0%)
DIIS solution               ....       0.127 sec  (  2.3%)
SOSCF solution              ....       0.154 sec  (  2.8%)
Finished LeanSCF after   5.6 sec

Maximum memory used throughout the entire LEANSCF-calculation: 22.4 MB


           ************************************************************
           *        Program running with 8 parallel MPI-processes     *
           *              working on a common directory               *
           ************************************************************

------------------------------------------------------------------------------
                         ORCA PROPERTY INTEGRAL CALCULATIONS
------------------------------------------------------------------------------

GBWName                                   ... /cluster/projects/nn14654k/ylvaos/basis_set_n_funcs/functionals/gga_x_pw91/LiS/inp/LiS_gga_x_pw91_augccpvqz.gbw
Number of atoms                           ...      2
Number of basis functions                 ...    199
Max core memory                           ...   4096 MB

Dipole integrals                          ... YES
Quadrupole integrals                      ... YES
Linear momentum integrals                 ...  NO
Angular momentum integrals                ...  NO
Higher moments length integrals           ...  NO
Higher moments velocity integrals         ...  NO
Kinetic energy integrals                  ...  NO
GIAO right hand sides                     ...  NO
GIAO dipole derivative integrals          ...  NO
SOC integrals                             ...  NO
EPR diamagnetic integrals (GIAO)          ...  NO
EPR gauge integrals                       ...  NO
Field gradient integrals                  ...  NO (   0 nuclei)
Spin-dipole/Fermi contact integrals       ...  NO (   0 nuclei)
Contact density integrals                 ...  NO (   0 nuclei)
Nucleus-orbit integrals                   ...  NO (   0 nuclei)
Geometric perturbations                   ...  NO (   2 nuclei)

Choice of electric origin   ... Center of mass
Position of electric origin ... (  0.0000,  0.0000,  1.3082) 
Choice of magnetic origin   ... GIAO
Position of magnetic origin ... (  0.0000,  0.0000,  0.0000) 

Calculating integrals                     ... Electric Dipole (Length)     done (  0.0 sec)
Calculating integrals                     ... Electric Quadrupole (Length) done (  0.0 sec)

Property integrals calculated in   0.0 sec

Maximum memory used throughout the entire PROPINT-calculation: 13.0 MB
------------------------------------------------------------------------------
                           ORCA ORBITAL LOCALIZATION
------------------------------------------------------------------------------

Input orbitals are from                  ... /cluster/projects/nn14654k/ylvaos/basis_set_n_funcs/functionals/gga_x_pw91/LiS/inp/LiS_gga_x_pw91_augccpvqz.gbw
Output orbitals are to                   ... /cluster/projects/nn14654k/ylvaos/basis_set_n_funcs/functionals/gga_x_pw91/LiS/inp/LiS_gga_x_pw91_augccpvqz.loc
Max. number of iterations                ... 128
Localizations seeded randomly            ... on
Convergence tolerance                    ... 1.000e-06
Threshold for strong local MOs           ... 9.500e-01
Threshold for bond MOs                   ... 8.500e-01
Operator                                 ... 0
Orbital range for localization           ... 5 to 9
Localization criterion                   ... NEW-BOYS
Doing the dipole integrals               ... o.k.
Initial value of the localization sum :    12.497578
ITERATION   0 : L=   15.5186431729 DL=  3.02e+00 (AVERGE_DL)=    0.5496421892 
ITERATION   1 : L=   15.7558784649 DL=  2.37e-01 (AVERGE_DL)=    0.1540244435 
ITERATION   2 : L=   15.8022203546 DL=  4.63e-02 (AVERGE_DL)=    0.0680748776 
ITERATION   3 : L=   15.8337681631 DL=  3.15e-02 (AVERGE_DL)=    0.0561674359 
ITERATION   4 : L=   15.8461085431 DL=  1.23e-02 (AVERGE_DL)=    0.0351288770 
ITERATION   5 : L=   15.8516006771 DL=  5.49e-03 (AVERGE_DL)=    0.0234353023 
ITERATION   6 : L=   15.8537513959 DL=  2.15e-03 (AVERGE_DL)=    0.0146653295 
ITERATION   7 : L=   15.8546025900 DL=  8.51e-04 (AVERGE_DL)=    0.0092260181 
ITERATION   8 : L=   15.8549392164 DL=  3.37e-04 (AVERGE_DL)=    0.0058019513 
ITERATION   9 : L=   15.8550806800 DL=  1.41e-04 (AVERGE_DL)=    0.0037611648 
ITERATION  10 : L=   15.8551484489 DL=  6.78e-05 (AVERGE_DL)=    0.0026032453 
ITERATION  11 : L=   15.8551880189 DL=  3.96e-05 (AVERGE_DL)=    0.0019892205 
ITERATION  12 : L=   15.8552159364 DL=  2.79e-05 (AVERGE_DL)=    0.0016708547 
ITERATION  13 : L=   15.8552381014 DL=  2.22e-05 (AVERGE_DL)=    0.0014887899 
ITERATION  14 : L=   15.8552566386 DL=  1.85e-05 (AVERGE_DL)=    0.0013615138 
ITERATION  15 : L=   15.8552723998 DL=  1.58e-05 (AVERGE_DL)=    0.0012554355 
ITERATION  16 : L=   15.8552858333 DL=  1.34e-05 (AVERGE_DL)=    0.0011590310 
ITERATION  17 : L=   15.8552972648 DL=  1.14e-05 (AVERGE_DL)=    0.0010691808 
ITERATION  18 : L=   15.8553069747 DL=  9.71e-06 (AVERGE_DL)=    0.0009853907 
ITERATION  19 : L=   15.8553152146 DL=  8.24e-06 (AVERGE_DL)=    0.0009077375 
ITERATION  20 : L=   15.8553222087 DL=  6.99e-06 (AVERGE_DL)=    0.0008363078 
ITERATION  21 : L=   15.8553281524 DL=  5.94e-06 (AVERGE_DL)=    0.0007709560 
ITERATION  22 : L=   15.8553332133 DL=  5.06e-06 (AVERGE_DL)=    0.0007113976 
ITERATION  23 : L=   15.8553375326 DL=  4.32e-06 (AVERGE_DL)=    0.0006572162 
ITERATION  24 : L=   15.8553412287 DL=  3.70e-06 (AVERGE_DL)=    0.0006079501 
ITERATION  25 : L=   15.8553444002 DL=  3.17e-06 (AVERGE_DL)=    0.0005631624 
ITERATION  26 : L=   15.8553471292 DL=  2.73e-06 (AVERGE_DL)=    0.0005223972 
ITERATION  27 : L=   15.8553494838 DL=  2.35e-06 (AVERGE_DL)=    0.0004852477 
ITERATION  28 : L=   15.8553515208 DL=  2.04e-06 (AVERGE_DL)=    0.0004513290 
ITERATION  29 : L=   15.8553532873 DL=  1.77e-06 (AVERGE_DL)=    0.0004202905 
ITERATION  30 : L=   15.8553548226 DL=  1.54e-06 (AVERGE_DL)=    0.0003918393 
ITERATION  31 : L=   15.8553561600 DL=  1.34e-06 (AVERGE_DL)=    0.0003656976 
ITERATION  32 : L=   15.8553573272 DL=  1.17e-06 (AVERGE_DL)=    0.0003416474 
ITERATION  33 : L=   15.8553583475 DL=  1.02e-06 (AVERGE_DL)=    0.0003194207 
ITERATION  34 : L=   15.8553592409 DL=  8.93e-07 (AVERGE_DL)=    0.0002989036 
LOCALIZATION SUM CONVERGED


--------------------------------------------------------------------------------
                    LOCALIZED MOLECULAR ORBITAL COMPOSITIONS
--------------------------------------------------------------------------------

The Mulliken populations for each LMO on each atom are computed
The LMO`s will be ordered according to atom index and type
  (A) Strongly localized MO`s have populations of >=0.950 on one atom
  (B) Two center bond orbitals have populations of >=0.850 on two atoms
  (C) Other MO`s are considered to be `delocalized`

FOUND  -   2 strongly local MO`s
       -   3 two center bond MO`s
       -   0 significantly delocalized MO`s

Rather strongly localized orbitals:
MO   6:   1S  -   0.961437
MO   5:   0Li -   1.083764
Bond-like localized orbitals:
MO   9:   1S  -   0.880659  and   0Li -   0.119341
MO   8:   1S  -   0.880264  and   0Li -   0.119736
MO   7:   1S  -   0.946613  and   0Li -   0.053387
Localized MO's were stored in: /cluster/projects/nn14654k/ylvaos/basis_set_n_funcs/functionals/gga_x_pw91/LiS/inp/LiS_gga_x_pw91_augccpvqz.loc
------------------------------------------------------------------------------
                           ORCA ORBITAL LOCALIZATION
------------------------------------------------------------------------------

Input orbitals are from                  ... /cluster/projects/nn14654k/ylvaos/basis_set_n_funcs/functionals/gga_x_pw91/LiS/inp/LiS_gga_x_pw91_augccpvqz.loc
Output orbitals are to                   ... /cluster/projects/nn14654k/ylvaos/basis_set_n_funcs/functionals/gga_x_pw91/LiS/inp/LiS_gga_x_pw91_augccpvqz.loc
Max. number of iterations                ... 128
Localizations seeded randomly            ... on
Convergence tolerance                    ... 1.000e-06
Threshold for strong local MOs           ... 9.500e-01
Threshold for bond MOs                   ... 8.500e-01
Operator                                 ... 1
Orbital range for localization           ... 5 to 8
Localization criterion                   ... NEW-BOYS
Doing the dipole integrals               ... o.k.
Initial value of the localization sum :    12.153393
ITERATION   0 : L=   14.8780126721 DL=  2.72e+00 (AVERGE_DL)=    0.6738718578 
ITERATION   1 : L=   15.1785878189 DL=  3.01e-01 (AVERGE_DL)=    0.2238210397 
ITERATION   2 : L=   15.2693255552 DL=  9.07e-02 (AVERGE_DL)=    0.1229754287 
ITERATION   3 : L=   15.3276439147 DL=  5.83e-02 (AVERGE_DL)=    0.0985886737 
ITERATION   4 : L=   15.3525609754 DL=  2.49e-02 (AVERGE_DL)=    0.0644425593 
ITERATION   5 : L=   15.3625108677 DL=  9.95e-03 (AVERGE_DL)=    0.0407224187 
ITERATION   6 : L=   15.3662247340 DL=  3.71e-03 (AVERGE_DL)=    0.0248792628 
ITERATION   7 : L=   15.3675753778 DL=  1.35e-03 (AVERGE_DL)=    0.0150035762 
ITERATION   8 : L=   15.3680597026 DL=  4.84e-04 (AVERGE_DL)=    0.0089844753 
ITERATION   9 : L=   15.3682321603 DL=  1.72e-04 (AVERGE_DL)=    0.0053612465 
ITERATION  10 : L=   15.3682933357 DL=  6.12e-05 (AVERGE_DL)=    0.0031931013 
ITERATION  11 : L=   15.3683149908 DL=  2.17e-05 (AVERGE_DL)=    0.0018997843 
ITERATION  12 : L=   15.3683226474 DL=  7.66e-06 (AVERGE_DL)=    0.0011296444 
ITERATION  13 : L=   15.3683253525 DL=  2.71e-06 (AVERGE_DL)=    0.0006714548 
ITERATION  14 : L=   15.3683263077 DL=  9.55e-07 (AVERGE_DL)=    0.0003990026 
LOCALIZATION SUM CONVERGED


--------------------------------------------------------------------------------
                    LOCALIZED MOLECULAR ORBITAL COMPOSITIONS
--------------------------------------------------------------------------------

The Mulliken populations for each LMO on each atom are computed
The LMO`s will be ordered according to atom index and type
  (A) Strongly localized MO`s have populations of >=0.950 on one atom
  (B) Two center bond orbitals have populations of >=0.850 on two atoms
  (C) Other MO`s are considered to be `delocalized`

FOUND  -   2 strongly local MO`s
       -   2 two center bond MO`s
       -   0 significantly delocalized MO`s

Rather strongly localized orbitals:
MO   6:   1S  -   0.977285
MO   5:   0Li -   1.083953
Bond-like localized orbitals:
MO   8:   1S  -   0.856829  and   0Li -   0.143171
MO   7:   1S  -   0.857012  and   0Li -   0.142988
Localized MO's were stored in: /cluster/projects/nn14654k/ylvaos/basis_set_n_funcs/functionals/gga_x_pw91/LiS/inp/LiS_gga_x_pw91_augccpvqz.loc

-------------------------   --------------------
FINAL SINGLE POINT ENERGY      -404.971434801364
-------------------------   --------------------



           ************************************************************
           *        Program running with 8 parallel MPI-processes     *
           *              working on a common directory               *
           ************************************************************

------------------------------------------------------------------------------
                              ORCA PROPERTY CALCULATIONS
------------------------------------------------------------------------------

GBWName                                 ... /cluster/projects/nn14654k/ylvaos/basis_set_n_funcs/functionals/gga_x_pw91/LiS/inp/LiS_gga_x_pw91_augccpvqz.gbw
Number of atoms                         ...      2
Number of basis functions               ...    199
Max core memory                         ...   4096 MB

Electric properties:
Dipole moment                           ... YES
Quadrupole moment                       ... YES
Static polarizability (Dipole/Dipole)   ...  NO
Static polarizability (Dipole/Quad.)    ...  NO
Static polarizability (Quad./Quad.)     ...  NO
Static polarizability (Velocity)        ...  NO
Static hyperpolarizability              ...  NO

Atomic electric properties:
Dipole moment                           ...  NO
Quadrupole moment                       ...  NO
Static polarizability                   ...  NO

Choice of electric origin               ... Center of mass
Position of electric origin             ...     0.000000     0.000000     1.308198

General magnetic properties:
Magnetizability                         ...  NO

EPR properties:
g-Tensor (aka g-matrix)                 ...  NO
Zero-Field splitting spin-orbit         ...  NO
Zero-field splitting spin-spin          ...  NO
Hyperfine couplings                     ...  NO (   0 nuclei)
Quadrupole couplings                    ...  NO (   0 nuclei)
Contact density                         ...  NO (   0 nuclei)

NMR properties:
Chemical shifts                         ...  NO (   0 nuclei)
Spin-rotation constants                 ...  NO (   0 nuclei)
Spin-spin couplings                     ...  NO (   0 nuclei,    0 pairs)

Choice of magnetic origin               ... GIAO
Position of magnetic origin             ...     0.000000     0.000000     0.000000

Properties with geometric perturbations:
SCF Hessian                             ...  NO
IR spectrum                             ...  NO
VCD spectrum                            ...  NO
X-ray spectroscopy properties:
SCF XES/XAS/RIXS spectra                ...  NO

SCF SOC stabilization energy            ...  NO
Diagonal Born-Oppenheimer correction    ...  NO

-------------
DIPOLE MOMENT
-------------

Method             : SCF
Type of density    : Electron Density
Multiplicity       :   2
Irrep              :   0
Energy             :  -404.9714348013641825 Eh
Basis              : AO
                                X                 Y                 Z
Electronic contribution:      0.000000003      -0.000000001      -4.147822581
Nuclear contribution   :      0.000000000       0.000000000       1.549484202
                        -----------------------------------------
Total Dipole Moment    :      0.000000003      -0.000000001      -2.598338379
                        -----------------------------------------
Magnitude (a.u.)       :      2.598338379
Magnitude (Debye)      :      6.604451296



--------------------
Rotational spectrum 
--------------------
 
Rotational constants in cm-1:             0.000000             0.639339             0.639339 
Rotational constants in MHz :             0.000000         19166.891897         19166.891897 

Dipole components along the rotational axes: 
x,y,z [a.u.] :    -2.598338    -0.000000     0.000000 
x,y,z [Debye]:    -6.604451    -0.000000     0.000000 

 

Dipole moment calculation done in   0.0 sec 

-----------------
QUADRUPOLE MOMENT
-----------------

Method             : SCF
Type of density    : Electron Density
Multiplicity       :   2
Irrep              :   0
Energy             :  -404.9714348013641825 Eh
Basis              : AO

                XX              YY              ZZ              XY              XZ              YZ
  NUC        0.000000000     0.000000000    41.817245673     0.000000000     0.000000000     0.000000000
  EL       -12.371842427   -15.020043539   -45.916778054     0.155354378     0.000000002    -0.000000001
  TOT      -12.371842427   -15.020043539    -4.099532381     0.155354378     0.000000002    -0.000000001 (a.u.)
           -16.640551181   -20.202472245    -5.514011256     0.208956951     0.000000002    -0.000000001 (Buckingham)

diagonalized tensor:
           -15.029126116   -12.362759850    -4.099532381 (a.u.)
           -20.214688621   -16.628334805    -5.514011256 (Buckingham)
           -18.287031182    -7.527969732    25.815000913 (traceless form in Buckingham)

             0.058363944    -0.998295372     0.000000000
            -0.998295372    -0.058363944    -0.000000000
            -0.000000000     0.000000000     1.000000000
        
Isotropic quadrupole :   -10.497139449

Quadrupole moment calculation done in   0.0 sec (  0.0 sec for integrals)

Maximum memory used throughout the entire PROP-calculation: 7.6 MB

--------------------------------
SUGGESTED CITATIONS FOR THIS RUN
--------------------------------

Below you find a list of papers that are relevant to this ORCA run
We neither can nor want to force you to cite these papers, but we appreciate if you do
You receive ORCA, which is the product of decades of hard work by many enthusiastic individuals, for free
The only thing we kindly ask in return is that you cite our papers,
We deeply appreciate it, if you show your appreciation for ORCA by not just citing the generic ORCA reference.

Please note that relegating all ORCA citations to the supporting information does *not* help us.
SI sections are not indexed - citations you put there will not count into any citation statistics
But we need these citations in order to attract the funding resources that allow us to do what we are doing

Therefore, if you are a happy ORCA user, please consider citing a few of the papers listed below in the main body of your paper

In addition to the list printed below, the program has created the file /cluster/projects/nn14654k/ylvaos/basis_set_n_funcs/functionals/gga_x_pw91/LiS/inp/LiS_gga_x_pw91_augccpvqz.bibtex that contains the list in bibtex format
You can import this file easily into all common literature databanks and citation aid programs

It goes without saying that in many instances, there are alternative algorithms to achieve similar
results as the ones you have gotten from ORCA. It is, of course, also the case that in some instances
ORCA just re-implements algorithms worked out by others. We are fully aware of that and we are also
fully appreciative of our colleagues work. Hence this citation list should not be read as indicating
that the listed papers, which are focused on our own work, are the only ones worth citing. It simply
meant to make it easier for users to cite ORCA specific papers. It is not a substitute for doing your
own literature research and citing the relevant literature in a scientifically appropriate manner.

List of essential papers. We consider these as the minimum necessary citations

  1. Neese, F.
     Software update: the ORCA program system, version 6.0
     WIRES Comput. Molec. Sci. 2025 15(1), e70019
     doi.org/10.1002/wcms.70019

List of papers to cite with high priority. The work reported in these papers was absolutely
necessary for this run to complete.
Our perspective: the developers of density functionals and basis sets usually get cited in chemistry papers
Good! But without the algorithms to do something with them, the functionals or basis sets would not do anything.
Hence, in our opinion, the algorithm design and method developments papers are equally worthy of getting cited

  1. Lehtola, S.; Steigemann, C.; Oliveira, M.; Marques, M.
     Recent developments in Libxc - A comprehensive library of functionals for density functional theory
     Software X 2018 7 , 
     doi.org/10.1016/j.softx.2017.11.002
  2. Neese, F.
     The SHARK Integral Generation and Digestion System
     J. Comp. Chem. 2022 44(3), 381
     doi.org/10.1002/jcc.26942

List of suggested additional citations. These are papers that are important in the 'surrounding' of 
of this run, or papers that preceded the highly important papers. If you like your results we are grateful for a citation.

  1. Neese, F.
     The ORCA program system
     WIRES Comput. Molec. Sci. 2012 2(1), 73-78
     doi.org/10.1002/wcms.81
  2. Neese, F.
     Software update: the ORCA program system, version 4.0
     WIRES Comput. Molec. Sci. 2018 8(1), 1-6
     doi.org/10.1002/wcms.1327
  3. Neese, F.; Wennmohs, F.; Becker, U.; Riplinger, C.
     The ORCA quantum chemistry program package
     J. Chem. Phys. 2020 152(22), 224108
     doi.org/10.1063/5.0004608
  4. Neese, F.
     Software update: The ORCA program system—Version 5.0
     WIRES Comput. Molec. Sci. 2022 12(1), e1606
     doi.org/10.1002/wcms.1606

List of optional additional citations

  1. Neese, F.
     Approximate second-order SCF convergence for spin unrestricted wavefunctions
     Chem. Phys. Lett. 2000 325(1-3), 93-98
     doi.org/10.1016/s0009-2614(00)00662-x

Timings for individual modules:

Sum of individual times          ...        7.932 sec (=   0.132 min)
Startup calculation              ...        1.249 sec (=   0.021 min)  15.7 %
SCF iterations                   ...        6.123 sec (=   0.102 min)  77.2 %
Property integrals               ...        0.245 sec (=   0.004 min)   3.1 %
Property calculations            ...        0.307 sec (=   0.005 min)   3.9 %
Orbital localization             ...        0.008 sec (=   0.000 min)   0.1 %
                             ****ORCA TERMINATED NORMALLY****
TOTAL RUN TIME: 0 days 0 hours 0 minutes 8 seconds 671 msec
