
                                 *****************
                                 * O   R   C   A *
                                 *****************

                                            #,                                       
                                            ###                                      
                                            ####                                     
                                            #####                                    
                                            ######                                   
                                           ########,                                 
                                     ,,################,,,,,                         
                               ,,#################################,,                 
                          ,,##########################################,,             
                       ,#########################################, ''#####,          
                    ,#############################################,,   '####,        
                  ,##################################################,,,,####,       
                ,###########''''           ''''###############################       
              ,#####''   ,,,,##########,,,,          '''####'''          '####       
            ,##' ,,,,###########################,,,                        '##       
           ' ,,###''''                  '''############,,,                           
         ,,##''                                '''############,,,,        ,,,,,,###''
      ,#''                                            '''#######################'''  
     '                                                          ''''####''''         
             ,#######,   #######,   ,#######,      ##                                
            ,#'     '#,  ##    ##  ,#'     '#,    #''#        ,####,    ,#,          
            ##       ##  ##   ,#'  ##            #'  '#       #'       ,# #          
            ##       ##  #######   ##           ,######,      #####,      #          
            '#,     ,#'  ##    ##  '#,     ,#' ,#      #,     #,   #      #          
             '#######'   ##     ##  '#######'  #'      '#     '####' #    #          



                #########################################################
                #                        -***-                          #
                #          Department of theory and spectroscopy        #
                #                                                       #
                #                      Frank Neese                      #
                #                                                       #
                #     Directorship, Architecture, Infrastructure        #
                #                    SHARK, DRIVERS                     #
                #        Core code/Algorithms in most modules           #
                #                                                       #
                #        Max Planck Institute fuer Kohlenforschung      #
                #                Kaiser Wilhelm Platz 1                 #
                #                 D-45470 Muelheim/Ruhr                 #
                #                      Germany                          #
                #                                                       #
                #                  All rights reserved                  #
                #                        -***-                          #
                #########################################################


                         Program Version 6.1.1  -  RELEASE   -
                                (GIT: $487d211c$)
                          ($2025-11-21 10:33:24 +0100$)


 With contributions from (in alphabetic order):
[Max-Planck-Institut fuer Kohlenforschung]                               
  Daniel Aravena         : Magnetic Suceptibility                        
  Michael Atanasov       : Ab Initio Ligand Field Theory (pilot matlab implementation)
  Alexander A. Auer      : GIAO ZORA, VPT2 properties, NMR spectrum      
  Ute Becker             : All parallelization in ORCA, NUMFREQ, NUMCALC 
  Giovanni Bistoni       : ED, misc. LED, open-shell LED, HFLD           
  Dmytro Bykov           : pre 5.0 version of the SCF Hessian            
  Marcos Casanova-Páez   : Triplet and SCS-CIS(D). UHF-(DLPNO)-IP/EA/STEOM-CCSD. UHF-CVS-IP/STEOM-CCSD   
  Vijay G. Chilkuri      : MRCI spin determinant printing, contributions to CSF-ICE 
  Pauline Colinet        : FMM embedding                                 
  Dipayan Datta          : RHF DLPNO-CCSD density                        
  Achintya Kumar Dutta   : EOM-CC, STEOM-CC                              
  Nicolas Foglia         : Exact transition moments, OPA infrastructure, MCD improvements    
  Dmitry Ganyushin       : Spin-Orbit,Spin-Spin,Magnetic field MRCI      
  Miquel Garcia-Rates    : C-PCM and meta-GGA Hessian, CCSD/C-PCM, Gaussian charge scheme 
  Tiago L. C. Gouveia    : GS-ROHF, GS-ROCIS                             
  Yang Guo               : DLPNO-NEVPT2, F12-NEVPT2, CIM, IAO-localization        
  Andreas Hansen         : Spin unrestricted coupled pair/coupled cluster methods 
  Ingolf Harden          : AUTO-CI MPn and infrastructure                
  Benjamin Helmich-Paris : MC-RPA, TRAH-(SCF,CASSCF), AVAS, COSX integrals, SCF dyn. polar., MC-PDFT, srDFT 
  Lee Huntington         : MR-EOM, pCC                                   
  Robert Izsak           : Overlap fitted RIJCOSX, COSX-SCS-MP3, EOM     
  Riya Kayal             : Wick's Theorem for AUTO-CI, AUTO-CI UHF-CCSDT 
  Emily Kempfer          : AUTO-CI RHF CISDT and CCSDT, approximate NEVPT4
  Christian Kollmar      : KDIIS, OOCD, Brueckner-CCSD(T), CCSD density, CASPT2, CASPT2-K, improved NEVPT2 
  Axel Koslowski         : Symmetry handling                             
  Simone Kossmann        : meta-GGA functionals, TD-DFT gradient, OOMP2, (MP2 Hessian; deprecated post 5.0) 
  Lucas Lang             : DCDCAS, Hyperfine gauge corrections, ICE-SOC+SSC
  Marvin Lechner         : AUTO-CI (C++ implementation), FIC-MRCC        
  Spencer Leger          : CASSCF response                               
  Dagmar Lenk            : GEPOL surface, SMD, ORCA-2-JSON               
  Dimitrios Liakos       : Extrapolation schemes; Compound Job, Property file
  Dimitrios Manganas     : Further ROCIS development; embedding schemes. LFT, Crystal Embedding 
  Dimitrios Pantazis     : SARC Basis sets                               
  Anastasios Papadopoulos: AUTO-CI, single reference methods and gradients 
  Taras Petrenko         : pre 6.0 DFT Hessian and TD-DFT gradient,  ECA, NRVS 
  Petra Pikulova         : Analytic Raman intensities                    
  Peter Pinski           : DLPNO-MP2, DLPNO-MP2 Gradient                 
  Shashank Vittal Rao    : ES-AILFT, MagRelax                            
  Christoph Reimann      : Effective Core Potentials                     
  Marius Retegan         : Local ZFS, SOC                                
  Christoph Riplinger    : Optimizer, TS searches, QM/MM, DLPNO-CCSD(T), (RO)-DLPNO pert. Triples 
  Michael Roemelt        : Original ROCIS implementation, recursive CI coupling coefficients
  Masaaki Saitow         : Open-shell DLPNO-CCSD energy and density      
  Barbara Sandhoefer     : DKH picture change effects                    
  Yorick L. A. Schmerwitz: GMF and freeze-and-release deltaSCF, NEB S-IDPP initial path                    
  Kantharuban Sivalingam : CASSCF convergence/infrastructure, NEVPT2, NEVPT3, NEVPT4(SD), FIC-MRCI and CEPA variants
  Bernardo de Souza      : ESD, SOC TD-DFT                               
  Georgi L. Stoychev     : AutoAux, RI-MP2 NMR, DLPNO-MP2 response, X2C  
  Van Anh Tran           : RI-MP2 g-tensors                              
  Willem Van den Heuvel  : Paramagnetic NMR                              
  Zikuan Wang            : NOTCH, Electric field optimization            
  Frank Wennmohs         : Technical directorship and infrastructure     
  Hang Xu                : AUTO-CI-Response properties                   
                                                                         
[FACCTs GmbH]                                                            
  Markus Bursch, Nicolas Foglia, Miquel Garcia-Rates, Ingolf Harden, Hagen Neugebauer, Anastasios Papadopoulos, 
  Christoph Riplinger, Bernardo de Souza, Georgi L. Stoychev                                                    
                                                                 
  APM, various basis sets, CI-OPT, improved COSX, DLPNO-Multilevel,           
  DOCKER, DRACO, updates on ESD, Fragmentator, GOAT, IRC, LR-CPCM, L-BFGS, MBIS, meta-GGA TD-DFT gradient, ML-optimized integration grids, 
  MM, NACMEs, nearIR, NEB, NEB-TS, NL-DFT gradient (VV10), 2- and 3-layer-ONIOM, interface openCOSMO-RS, QMMM,   
  Crystal-QMMM, RESP, rigid body optimization, SF, symmetry and pop. for TD-DFT, various functionals, SOLVATOR                                   
                                                                         
[Other institutions]                                                     
  V. Asgeirsson          : NEB                                           
  Christoph Bannwarth    : sTDA-DFT, sTD-DFT, PBEh-3c, B97-3c, D3        
  Giovanni Bistoni       : ETS/NOCV, ADLD/ADEX, COVALED                  
  Martin Brehm           : Molecular dynamics                            
  Ronald Cardenas        : ETS/NOCV                                      
  Martina Colucci        : COVALED                                       
  Sebastian Ehlert       : rSCAN, r2SCAN, r2SCAN-3c, D4, dhf basis sets  
  Marvin Friede          : D4 for Fr, Ra, Ac-Lr                          
  Lars Goerigk           : TD-DFT with DH, B97 family of functionals     
  Stefan Grimme          : VdW corrections, initial TS optimization, DFT functionals, gCP, sTDA/sTD-DF 
  Waldemar Hujo          : DFT-NL                                        
  H. Jonsson             : NEB                                           
  Holger Kruse           : gCP                                           
  Marcel Mueller         : wB97X-3c, vDZP basis set                      
  Hagen Neugebauer       : wr2SCAN, Native XTB                           
  Gianluca Regni         : ADLD/ADEX                                     
  Tobias Risthaus        : pre 6.0 range-separated hybrid DFT and stability analysis
  Lukas Wittmann         : regularized MP2, r2SCAN double-hybrids, wr2SCAN        
                                                                         
We gratefully acknowledge several colleagues who have allowed us to      
interface, adapt or use parts of their codes:                            
  Ed Valeev, F. Pavosevic, A. Kumar             : LibInt (2-el integral package), F12 methods 
  Garnet Chan, S. Sharma, J. Yang, R. Olivares  : DMRG                   
  Ulf Ekstrom                                   : XCFun DFT Library      
  Mihaly Kallay                                 : mrcc  (arbitrary order and MRCC methods)
  Frank Weinhold                                : gennbo (NPA and NBO analysis)           
  Simon Mueller                                 : openCOSMO-RS                            
  Christopher J. Cramer and Donald G. Truhlar   : smd solvation model                     
  S Lehtola, MJT Oliveira, MAL Marques          : LibXC Library                           
  Liviu Ungur et al                             : ANISO software                          


 Your calculation uses the libint2 library for the computation of 2-el integrals
 For citations please refer to: http://libint.valeyev.net

 Your ORCA version has been built with support for libXC version: 7.0.0
 For citations please refer to: https://libxc.gitlab.io

 This ORCA versions uses:
   CBLAS   interface :  Fast vector & matrix operations
   LAPACKE interface :  Fast linear algebra routines
   SCALAPACK package :  Parallel linear algebra routines
   Shared memory     :  Shared parallel matrices
   BLAS/LAPACK       :  OpenBLAS 0.3.29  USE64BITINT DYNAMIC_ARCH NO_AFFINITY Cooperlake SINGLE_THREADED
        Core in use  :  Cooperlake
   Copyright (c) 2011-2014, The OpenBLAS Project


  ***********************************
  * Starting time: Wed May 20 12:33:45 2026
  * Host name:     c1-51
  * Process ID:    2892692
  * Working dir.:  /cluster/projects/nn14654k/ylvaos/basis_set_n_funcs/functionals/pw91/CH3COOH/out
  ***********************************

Using LibXC functional ID 109 : Perdew & Wang 91
[ 1]  J. P. Perdew. In P. Ziesche and H. Eschrig, editors, Proceedings of the 75. WE-Heraeus-Seminar and 21st Annual International Symposium on Electronic Structure of Solids, 11. Berlin, 1991. Akademie Verlag.
[ 2]  J. P. Perdew, J. A. Chevary, S. H. Vosko, K. A. Jackson, M. R. Pederson, D. J. Singh, and C. Fiolhais.,  Phys. Rev. B 46, 6671 (1992)
[ 3]  J. P. Perdew, J. A. Chevary, S. H. Vosko, K. A. Jackson, M. R. Pederson, D. J. Singh, and C. Fiolhais.,  Phys. Rev. B 48, 4978 (1993)
Using LibXC functional ID 134 : Perdew & Wang 91
[ 1]  J. P. Perdew. In P. Ziesche and H. Eschrig, editors, Proceedings of the 75. WE-Heraeus-Seminar and 21st Annual International Symposium on Electronic Structure of Solids, 11. Berlin, 1991. Akademie Verlag.
[ 2]  J. P. Perdew, J. A. Chevary, S. H. Vosko, K. A. Jackson, M. R. Pederson, D. J. Singh, and C. Fiolhais.,  Phys. Rev. B 46, 6671 (1992)
[ 3]  J. P. Perdew, J. A. Chevary, S. H. Vosko, K. A. Jackson, M. R. Pederson, D. J. Singh, and C. Fiolhais.,  Phys. Rev. B 48, 4978 (1993)
Using LibXC functional ID 109 : Perdew & Wang 91
[ 1]  J. P. Perdew. In P. Ziesche and H. Eschrig, editors, Proceedings of the 75. WE-Heraeus-Seminar and 21st Annual International Symposium on Electronic Structure of Solids, 11. Berlin, 1991. Akademie Verlag.
[ 2]  J. P. Perdew, J. A. Chevary, S. H. Vosko, K. A. Jackson, M. R. Pederson, D. J. Singh, and C. Fiolhais.,  Phys. Rev. B 46, 6671 (1992)
[ 3]  J. P. Perdew, J. A. Chevary, S. H. Vosko, K. A. Jackson, M. R. Pederson, D. J. Singh, and C. Fiolhais.,  Phys. Rev. B 48, 4978 (1993)
Using LibXC functional ID 134 : Perdew & Wang 91
[ 1]  J. P. Perdew. In P. Ziesche and H. Eschrig, editors, Proceedings of the 75. WE-Heraeus-Seminar and 21st Annual International Symposium on Electronic Structure of Solids, 11. Berlin, 1991. Akademie Verlag.
[ 2]  J. P. Perdew, J. A. Chevary, S. H. Vosko, K. A. Jackson, M. R. Pederson, D. J. Singh, and C. Fiolhais.,  Phys. Rev. B 46, 6671 (1992)
[ 3]  J. P. Perdew, J. A. Chevary, S. H. Vosko, K. A. Jackson, M. R. Pederson, D. J. Singh, and C. Fiolhais.,  Phys. Rev. B 48, 4978 (1993)
Your calculation utilizes LibXC
by S. Lehtola, C. Steigemann, M. J. T. Oliveira & M. A. L. Marques
Please cite in your paper:
Lehtola, S.; Steigemann, C.; Oliveira, M.J.T.; Marques, M. A. L. Software X, 7, (2018), 1.
   

================================================================================

----- Orbital basis set information -----
Your calculation utilizes the basis: aug-cc-pVQZ 
    H, B-Ne : Obtained from the ccRepo (grant-hill.group.shef.ac.uk/ccrepo) Feb. 2017
              R. A. Kendall, T. H. Dunning, Jr., R. J. Harrison, J. Chem. Phys. 96, 6796 (1992)
         He : Obtained from the ccRepo (grant-hill.group.shef.ac.uk/ccrepo) Feb. 2017
              D. E. Woon, T. H. Dunning, Jr., J. Chem. Phys. 100, 2975 (1994)
  Li-Be, Na : Obtained from the ccRepo (grant-hill.group.shef.ac.uk/ccrepo) Feb. 2017
              B. P. Prascher, D. E. Woon, K. A. Peterson, T. H. Dunning, Jr., A. K. Wilson, Theor. Chem. Acc. 128, 69 (2011)
         Mg : Obtained from the Peterson Research Group Website (tyr0.chem.wsu.edu/~kipeters) Feb. 2017
              B. P. Prascher, D. E. Woon, K. A. Peterson, T. H. Dunning, Jr., A. K. Wilson, Theor. Chem. Acc. 128, 69 (2011)
      Al-Ar : Obtained from the ccRepo (grant-hill.group.shef.ac.uk/ccrepo) Feb. 2017
              D. E. Woon, T. H. Dunning, Jr., J. Chem. Phys. 98, 1358 (1993)
      Sc-Zn : Obtained from the ccRepo (grant-hill.group.shef.ac.uk/ccrepo) Feb. 2017
              N. B. Balabanov, K. A. Peterson, J. Chem. Phys. 123, 064107 (2005)
              N. B. Balabanov, K. A. Peterson, J. Chem. Phys. 125, 074110 (2006)
      Ga-Kr : Obtained from the ccRepo (grant-hill.group.shef.ac.uk/ccrepo) Feb. 2017
              A. K. Wilson, D. E. Woon, K. A. Peterson, T. H. Dunning, Jr., J. Chem. Phys. 110, 7667 (1999)

================================================================================
                                        WARNINGS
                       Please study these warnings very carefully!
================================================================================


================================================================================
                                       INPUT FILE
================================================================================
NAME = /cluster/projects/nn14654k/ylvaos/basis_set_n_funcs/functionals/pw91/CH3COOH/inp/CH3COOH_pw91_augccpvqz.inp
|  1> ! dft aug-cc-pVQZ TightSCF
|  2> %pal nprocs 8 end
|  3> 
|  4> %loc
|  5>   LocMet NewBoys
|  6>   Occ true
|  7> end
|  8> 
|  9> %method
| 10>   exchange gga_x_pw91
| 11>   correlation gga_c_pw91
| 12> end
| 13> 
| 14> %elprop
| 15>   Dipole true
| 16>   Quadrupole true
| 17> end
| 18> 
| 19> * xyz 0 1
| 20> C    0.000000000000   0.154560000000   0.000000000000
| 21> C    1.073776000000  -0.892748000000   0.000000000000
| 22> O    0.166384000000   1.360084000000   0.000000000000
| 23> O   -1.236449000000  -0.415036000000   0.000000000000
| 24> H   -1.867646000000   0.333582000000   0.000000000000
| 25> H    2.048189000000  -0.408135000000   0.000000000000
| 26> H    0.968661000000  -1.528353000000   0.881747000000
| 27> H    0.968661000000  -1.528353000000  -0.881747000000
| 28> *
| 29> 
| 30> 
| 31>                          ****END OF INPUT****
================================================================================

                       ****************************
                       * Single Point Calculation *
                       ****************************

---------------------------------
CARTESIAN COORDINATES (ANGSTROEM)
---------------------------------
  C      0.000000    0.154560    0.000000
  C      1.073776   -0.892748    0.000000
  O      0.166384    1.360084    0.000000
  O     -1.236449   -0.415036    0.000000
  H     -1.867646    0.333582    0.000000
  H      2.048189   -0.408135    0.000000
  H      0.968661   -1.528353    0.881747
  H      0.968661   -1.528353   -0.881747

----------------------------
CARTESIAN COORDINATES (A.U.)
----------------------------
  NO LB      ZA    FRAG     MASS         X           Y           Z
   0 C     6.0000    0    12.011    0.000000    0.292076    0.000000
   1 C     6.0000    0    12.011    2.029143   -1.687049    0.000000
   2 O     8.0000    0    15.999    0.314420    2.570186    0.000000
   3 O     8.0000    0    15.999   -2.336550   -0.784304    0.000000
   4 H     1.0000    0     1.008   -3.529339    0.630379    0.000000
   5 H     1.0000    0     1.008    3.870516   -0.771263    0.000000
   6 H     1.0000    0     1.008    1.830504   -2.888169    1.666260
   7 H     1.0000    0     1.008    1.830504   -2.888169   -1.666260

--------------------------------
INTERNAL COORDINATES (ANGSTROEM)
--------------------------------
 C      0   0   0     0.000000000000     0.00000000     0.00000000
 C      1   0   0     1.499949647502     0.00000000     0.00000000
 O      1   2   0     1.216951827326   126.42686784     0.00000000
 O      1   2   3     1.361339683113   110.98078396   180.00000000
 H      4   1   2     0.979203024267   105.40175469   180.00000085
 H      2   1   3     1.088269476893   109.27200725     0.00000000
 H      2   1   3     1.092025938913   109.72406365   120.93315147
 H      2   1   3     1.092025938913   109.72406365   239.06684853

---------------------------
INTERNAL COORDINATES (A.U.)
---------------------------
 C      0   0   0     0.000000000000     0.00000000     0.00000000
 C      1   0   0     2.834494048450     0.00000000     0.00000000
 O      1   2   0     2.299705671821   126.42686784     0.00000000
 O      1   2   3     2.572559176322   110.98078396   180.00000000
 H      4   1   2     1.850425545371   105.40175469   180.00000085
 H      2   1   3     2.056531271234   109.27200725     0.00000000
 H      2   1   3     2.063629955684   109.72406365   120.93315147
 H      2   1   3     2.063629955684   109.72406365   239.06684853

---------------------
BASIS SET INFORMATION
---------------------
There are 3 groups of distinct atoms

 Group   1 Type C   : 22s7p4d3f2g contracted to 6s5p4d3f2g pattern {991111/31111/1111/111/11}
 Group   2 Type O   : 22s7p4d3f2g contracted to 6s5p4d3f2g pattern {991111/31111/1111/111/11}
 Group   3 Type H   : 7s4p3d2f contracted to 5s4p3d2f pattern {31111/1111/111/11}

Atom   0C    basis set group =>   1
Atom   1C    basis set group =>   1
Atom   2O    basis set group =>   2
Atom   3O    basis set group =>   2
Atom   4H    basis set group =>   3
Atom   5H    basis set group =>   3
Atom   6H    basis set group =>   3
Atom   7H    basis set group =>   3


           ************************************************************
           *        Program running with 8 parallel MPI-processes     *
           *              working on a common directory               *
           ************************************************************
------------------------------------------------------------------------------
                             ORCA STARTUP CALCULATIONS
------------------------------------------------------------------------------
------------------------------------------------------------------------------
                   ___                                                        
                  /   \      - P O W E R E D   B Y -                         
                 /     \                                                     
                 |  |  |   _    _      __       _____    __    __             
                 |  |  |  | |  | |    /  \     |  _  \  |  |  /  |          
                  \  \/   | |  | |   /    \    | | | |  |  | /  /          
                 / \  \   | |__| |  /  /\  \   | |_| |  |  |/  /          
                |  |  |   |  __  | /  /__\  \  |    /   |      \           
                |  |  |   | |  | | |   __   |  |    \   |  |\   \          
                \     /   | |  | | |  |  |  |  | |\  \  |  | \   \       
                 \___/    |_|  |_| |__|  |__|  |_| \__\ |__|  \__/        
                                                                              
                      - O R C A' S   B I G   F R I E N D -                    
                                      &                                       
                       - I N T E G R A L  F E E D E R -                       
                                                                              
 v1 FN, 2020, v2 2021, v3 2022-2024                                           
------------------------------------------------------------------------------


----------------------
SHARK INTEGRAL PACKAGE
----------------------

Number of atoms                             ...      8
Number of basis functions                   ...    532
Number of shells                            ...    164
Maximum angular momentum                    ...      4
Integral batch strategy                     ... SHARK/LIBINT Hybrid
RI-J (if used) integral strategy            ... SPLIT-RIJ (Revised 2003 algorithm where possible)
Printlevel                                  ...      1
Contraction scheme used                     ... PARTIAL GENERAL contraction
Prescreening option                         ... SCHWARTZ
   Thresh                                   ... 2.500e-11
   Tcut                                     ... 2.500e-12
   Tpresel                                  ... 2.500e-12 
Coulomb Range Separation                    ... NOT USED
Exchange Range Separation                   ... NOT USED
Multipole approximations                    ... NOT USED
Finite Nucleus Model                        ... NOT USED
CABS basis                                  ... NOT available
Auxiliary Coulomb fitting basis             ... NOT available
Auxiliary J/K fitting basis                 ... NOT available
Auxiliary Correlation fitting basis         ... NOT available
Auxiliary 'external' fitting basis          ... NOT available

Checking pre-screening integrals            ... done (  0.0 sec) Dimension = 164
Save PGC pre-screening integrals            ... done (  0.0 sec) Dimension = 164
Calculate PGC overlap integrals             ... done (  0.0 sec) Dimension = 136
Calculating pre-screening integrals (ORCA)  ... done (  0.1 sec) Dimension = 136
Shell pair information
Shell pair cut-off parameter TPreSel        ...   2.5e-12
Total number of shell pairs                 ...     13530
Shell pairs after pre-screening             ...     12315
Total number of primitive shell pairs       ...     16314
Primitive shell pairs kept                  ...     14239
          la=0 lb=0:   2022 shell pairs
          la=1 lb=0:   2362 shell pairs
          la=1 lb=1:    648 shell pairs
          la=2 lb=0:   1853 shell pairs
          la=2 lb=1:    983 shell pairs
          la=2 lb=2:    398 shell pairs
          la=3 lb=0:   1334 shell pairs
          la=3 lb=1:    708 shell pairs
          la=3 lb=2:    548 shell pairs
          la=3 lb=3:    209 shell pairs
          la=4 lb=0:    546 shell pairs
          la=4 lb=1:    285 shell pairs
          la=4 lb=2:    223 shell pairs
          la=4 lb=3:    160 shell pairs
          la=4 lb=4:     36 shell pairs

Checking whether 4 symmetric matrices of dimension 532 fit in memory
:Max Core in MB      =   4096.00
 MB in use           =     18.46
 MB left             =   4077.54
 MB needed           =      4.33
 Data fit in memory  = YES
Calculating Nuclear repulsion               ... done (  0.0 sec) ENN=    120.693288504615 Eh

Diagonalization of the overlap matrix:
Smallest eigenvalue                        ... 5.493e-06
Time for diagonalization                   ...    0.018 sec
Threshold for overlap eigenvalues          ... 1.000e-07
Number of eigenvalues below threshold      ... 0
Time for construction of square roots      ...    0.011 sec
Total time needed                          ...    0.032 sec

-------------------
DFT GRID GENERATION
-------------------

General Integration Accuracy     IntAcc      ... 4.388
Radial Grid Type                 RadialGrid  ... OptM3 with GC (2021)
Angular Grid (max. ang.)         AngularGrid ... 4 (Lebedev-302)
Angular grid pruning method      GridPruning ... 4 (adaptive)
Weight generation scheme         WeightScheme... mBecke (2022)
Basis function cutoff            BFCut       ... 1.0000e-11
Integration weight cutoff        WCut        ... 1.0000e-14
Partially contracted basis set               ... off
Rotationally invariant grid construction     ... off
Angular grids for H and He will be reduced by one unit
Diffuse basis detected: some atoms will have their outermost
                        angular grid increased by 1.

Total number of grid points                  ...    39456
Total number of batches                      ...      622
Average number of points per batch           ...       63
Average number of grid points per atom       ...     4932

---------------------
SHARK GRID GENERATION
---------------------

General Integration Accuracy     IntAcc      ... 4.388
Radial Grid Type                 RadialGrid  ... OptM3 with GC (2021)
Angular Grid (max. ang.)         AngularGrid ... 4 (Lebedev-302)
Angular grid pruning method      GridPruning ... 4 (adaptive)
Weight generation scheme         WeightScheme... mBecke (2022)
Basis function cutoff            BFCut       ... 1.0000e-11
Integration weight cutoff        WCut        ... 1.0000e-14
Partially contracted basis set               ... off
Rotationally invariant grid construction     ... off
Angular grids for H and He will be reduced by one unit
Diffuse basis detected: some atoms will have their outermost
                        angular grid increased by 1.
Steep s-basis detected: some atoms will have their radial
                        grid points doubled.

Total number of grid points                  ...    65362
Total number of batches                      ...     1026
Average number of points per batch           ...       63
Average number of grid points per atom       ...     8170
Grids setup in   0.5 sec
Initializing property integral containers    ... done (  0.0 sec)

SHARK setup successfully completed in   0.9 seconds

Maximum memory used throughout the entire STARTUP-calculation: 44.5 MB


           ************************************************************
           *        Program running with 8 parallel MPI-processes     *
           *              working on a common directory               *
           ************************************************************
-------------------------------------------------------------------------------
                                 ORCA GUESS
                   Start orbitals & Density for SCF / CASSCF
-------------------------------------------------------------------------------

------------
SCF SETTINGS
------------
Hamiltonian:
 Density Functional     Method          .... DFT(GTOs)
  Functional kind                       .... Exchange
  Functional name                       .... Perdew & Wang 91
  Functional family                     .... GGA
  Functional refs                              
    [ 0] J. P. Perdew. In P. Ziesche and H. Eschrig, editors, Proceedings of the 75. WE-Heraeus-Seminar and 21st Annual International Symposium on Electronic Structure of Solids, 11. Berlin, 1991. Akademie Verlag.
    [ 1] J. P. Perdew, J. A. Chevary, S. H. Vosko, K. A. Jackson, M. R. Pederson, D. J. Singh, and C. Fiolhais.,  Phys. Rev. B 46, 6671 (1992), doi: 10.1103/PhysRevB.46.6671
    [ 2] J. P. Perdew, J. A. Chevary, S. H. Vosko, K. A. Jackson, M. R. Pederson, D. J. Singh, and C. Fiolhais.,  Phys. Rev. B 48, 4978 (1993), doi: 10.1103/PhysRevB.48.4978.2
  Functional external parameters        .... 7
    Parameter  0 _a         =  1.964500e-01 : a parameter         
    Parameter  1 _b         =  7.795600e+00 : b parameter         
    Parameter  2 _c         =  2.743000e-01 : c parameter         
    Parameter  3 _d         = -1.508000e-01 : d parameter         
    Parameter  4 _f         =  4.000000e-03 : f parameter         
    Parameter  5 _alpha     =  1.000000e+02 : alpha parameter     
    Parameter  6 _expo      =  4.000000e+00 : exponent            
  Functional kind                       .... Correlation
  Functional name                       .... Perdew & Wang 91
  Functional family                     .... GGA
  Functional refs                              
    [ 0] J. P. Perdew. In P. Ziesche and H. Eschrig, editors, Proceedings of the 75. WE-Heraeus-Seminar and 21st Annual International Symposium on Electronic Structure of Solids, 11. Berlin, 1991. Akademie Verlag.
    [ 1] J. P. Perdew, J. A. Chevary, S. H. Vosko, K. A. Jackson, M. R. Pederson, D. J. Singh, and C. Fiolhais.,  Phys. Rev. B 46, 6671 (1992), doi: 10.1103/PhysRevB.46.6671
    [ 2] J. P. Perdew, J. A. Chevary, S. H. Vosko, K. A. Jackson, M. R. Pederson, D. J. Singh, and C. Fiolhais.,  Phys. Rev. B 48, 4978 (1993), doi: 10.1103/PhysRevB.48.4978.2
  Functional external parameters        .... 0
 Gradients option       PostSCFGGA      .... off


General Settings:
 Integral files         IntName         .... /cluster/projects/nn14654k/ylvaos/basis_set_n_funcs/functionals/pw91/CH3COOH/inp/CH3COOH_pw91_augccpvqz
 Hartree-Fock type      HFTyp           .... RHF
 Total Charge           Charge          ....    0
 Multiplicity           Mult            ....    1
 Number of Electrons    NEL             ....   32
 Basis Dimension        Dim             ....  504
 Nuclear Repulsion      ENuc            ....    120.6932885046 Eh

Convergence Acceleration:
 AO-DIIS                CNVDIIS         .... on
   Start iteration      DIISMaxIt       ....    12
   Startup error        DIISStart       ....  0.200000
   # of expansion vecs  DIISMaxEq       ....     5
   Bias factor          DIISBfac        ....   1.050
   Max. coefficient     DIISMaxC        ....  10.000
 MO-DIIS                CNVKDIIS        .... off
 Trust-Rad. Augm. Hess. CNVTRAH         .... auto
   Auto Start mean grad. ratio tolernc. ....  1.125000
   Auto Start start iteration           ....    50
   Auto Start num. interpolation iter.  ....    10
   Max. Number of Micro iterations      ....    24
   Max. Number of Macro iterations      .... Maxiter - #DIIS iter
   Number of Davidson start vectors     ....     2
   Converg. threshold    (grad. norm)   ....   1.000e-05
   Grad. Scal. Fac. for Micro threshold ....   0.100
   Minimum threshold for Micro iter.    ....   1.000e-02
   NR start threshold (gradient norm)   ....   1.000e-04
   Initial trust radius                 ....   0.400
   Minimum AH scaling param. (alpha)    ....   1.000
   Maximum AH scaling param. (alpha)    .... 1000.000
   Quad. conv. algorithm                .... NR
   White noise on init. David. guess    .... on
   Maximum white noise                  ....   0.010
   Pseudo random numbers                .... off
   Inactive MOs                         .... canonical
   Orbital update algorithm             .... Taylor
   Preconditioner                       .... Diag
   Full preconditioner red. dimension   ....   250
 SOSCF                 CNVSOSCF           .... on
   Start iteration     SOSCFMaxIt         ....   150
   Startup grad/error  SOSCFStart         ....  0.003300
   Hessian update      SOSCFHessUp        .... L-BFGS
   Autom. constraints  SOSCFAutoConstrain .... off
 Level Shifting         CNVShift        .... on
   Level shift para.    LevelShift      ....    0.2500
   Turn off err/grad.   ShiftErr        ....    0.0010
 Zerner damping         CNVZerner       .... off
 Static damping         CNVDamp         .... on
   Fraction old density DampFac         ....    0.7000
   Max. Damping (<1)    DampMax         ....    0.9800
   Min. Damping (>=0)   DampMin         ....    0.0000
   Turn off err/grad.   DampErr         ....    0.1000

SCF Procedure:
 Maximum # iterations   MaxIter         ....   125
 SCF integral mode      SCFMode         .... Direct
   Integral package                     .... SHARK and LIBINT hybrid scheme
 Reset frequency        DirectResetFreq ....    20
 Integral Threshold     Thresh          ....  2.500e-11 Eh
 Primitive CutOff       TCut            ....  2.500e-12 Eh

Convergence Tolerance:
 Convergence Check Mode ConvCheckMode   .... Total+1el-Energy
 Convergence forced     ConvForced      .... 0
 Energy Change          TolE            ....  1.000e-08 Eh
 1-El. energy change                    ....  1.000e-05 Eh
 Orbital Gradient       TolG            ....  1.000e-05
 Orbital Rotation angle TolX            ....  1.000e-05
 DIIS Error             TolErr          ....  5.000e-07

------------------------------
INITIAL GUESS: MODEL POTENTIAL
------------------------------
Loading Hartree-Fock densities                     ... done
Calculating cut-offs                               ... done
Initializing the effective Hamiltonian             ... done
Setting up the integral package (SHARK)            ... done
Starting the Coulomb interaction                   ... done (   0.1 sec)
Making the grid                                    ... done (   0.0 sec)
Mapping shells                                     ... done
Starting the XC term evaluation                    ... done (   0.1 sec)
  promolecular density results
     # of electrons  =     31.997033092
     EX              =    -27.798975587
     EC              =     -1.130851364
     EX+EC           =    -28.929826951
Transforming the Hamiltonian                       ... done (   0.0 sec)
Diagonalizing the Hamiltonian                      ... done (   0.0 sec)
Back transforming the eigenvectors                 ... done (   0.0 sec)
Now organizing SCF variables                       ... done
                      ------------------
                      INITIAL GUESS DONE (   0.5 sec)
                      ------------------
             **** ENERGY FILE WAS UPDATED (/cluster/projects/nn14654k/ylvaos/basis_set_n_funcs/functionals/pw91/CH3COOH/inp/CH3COOH_pw91_augccpvqz.en.tmp) ****
Finished Guess after   0.6 sec
Maximum memory used throughout the entire GUESS-calculation: 32.7 MB


           ************************************************************
           *        Program running with 8 parallel MPI-processes     *
           *              working on a common directory               *
           ************************************************************

-------------------------------------------------------------------------------------------
                                      ORCA LEAN-SCF
                              memory conserving SCF solver
-------------------------------------------------------------------------------------------

----------------------------------------D-I-I-S--------------------------------------------
Iteration    Energy (Eh)           Delta-E    RMSDP     MaxDP     DIISErr   Damp  Time(sec)
-------------------------------------------------------------------------------------------
               ***  Starting incremental Fock matrix formation  ***
    1    -228.9404938809974510     0.00e+00  1.95e-03  4.34e-02  2.67e-01  0.700  12.1
    2    -229.0363773040816682    -9.59e-02  1.22e-03  2.19e-02  8.45e-02  0.700  11.6
                               ***Turning on AO-DIIS***
    3    -229.0615689409686979    -2.52e-02  5.57e-04  1.16e-02  3.01e-02  0.700  11.2
    4    -229.0800205665594262    -1.85e-02  1.11e-03  2.32e-02  1.99e-02  0.000  11.0
    5    -229.1237062561287416    -4.37e-02  2.08e-04  3.51e-03  1.28e-02  0.000  11.3
    6    -229.1241868462773823    -4.81e-04  8.30e-05  1.46e-03  3.97e-03  0.000  10.5
                              *** Initializing SOSCF ***
---------------------------------------S-O-S-C-F--------------------------------------
Iteration    Energy (Eh)           Delta-E    RMSDP     MaxDP     MaxGrad    Time(sec)
--------------------------------------------------------------------------------------
    7    -229.1242246018472315    -3.78e-05  3.72e-05  7.63e-04  2.04e-03    10.4
               *** Restarting incremental Fock matrix formation ***
    8    -229.1242353736413406    -1.08e-05  3.96e-05  7.19e-04  1.91e-04    11.9
    9    -229.1242331296311363     2.24e-06  1.56e-05  3.89e-04  6.63e-04    10.0
   10    -229.1242364776082354    -3.35e-06  1.60e-05  3.94e-04  1.60e-04     9.7
   11    -229.1242361897470801     2.88e-07  5.14e-06  8.81e-05  1.85e-04     9.5
   12    -229.1242366855636305    -4.96e-07  4.22e-06  1.04e-04  2.93e-05     9.0
   13    -229.1242366665326813     1.90e-08  2.12e-06  4.30e-05  3.19e-05     8.6
   14    -229.1242367032315315    -3.67e-08  9.87e-07  2.40e-05  2.88e-06     8.4
   15    -229.1242367026518423     5.80e-10  1.27e-06  4.38e-05  1.63e-06     7.3
                 **** Energy Check signals convergence ****

               *****************************************************
               *                     SUCCESS                       *
               *           SCF CONVERGED AFTER  15 CYCLES          *
               *****************************************************

             **** ENERGY FILE WAS UPDATED (/cluster/projects/nn14654k/ylvaos/basis_set_n_funcs/functionals/pw91/CH3COOH/inp/CH3COOH_pw91_augccpvqz.en.tmp) ****

----------------
TOTAL SCF ENERGY
----------------

Total Energy       :       -229.12423670445554 Eh           -6234.78745 eV

Components:
Nuclear Repulsion  :        120.69328850461517 Eh            3284.23135 eV
Electronic Energy  :       -349.81752520907071 Eh           -9519.01880 eV
One Electron Energy:       -551.28924966859404 Eh          -15001.34314 eV
Two Electron Energy:        201.47172445952333 Eh            5482.32434 eV

Virial components:
Potential Energy   :       -457.29423391320006 Eh          -12443.60873 eV
Kinetic Energy     :        228.16999720874449 Eh            6208.82127 eV
Virial Ratio       :          2.00418214273298

DFT components:
N(Alpha)           :       15.999990678476 electrons
N(Beta)            :       15.999990678476 electrons
N(Total)           :       31.999981356953 electrons
E(X)               :      -28.301367194305 Eh       
E(C)               :       -1.138586506064 Eh       
E(XC)              :      -29.439953700368 Eh       

---------------
SCF CONVERGENCE
---------------

  Last Energy change         ...   -5.7969e-10  Tolerance :   1.0000e-08
  Last MAX-Density change    ...    4.3754e-05  Tolerance :   1.0000e-07
  Last RMS-Density change    ...    1.2713e-06  Tolerance :   5.0000e-09
  Last DIIS Error            ...    2.0398e-03  Tolerance :   5.0000e-07
  Last Orbital Gradient      ...    1.6279e-06  Tolerance :   1.0000e-05
  Last Orbital Rotation      ...    3.5131e-06  Tolerance :   1.0000e-05


----------------
ORBITAL ENERGIES
----------------

  NO   OCC          E(Eh)            E(eV) 
   0   2.0000     -18.815876      -512.0060 
   1   2.0000     -18.757175      -510.4087 
   2   2.0000     -10.030128      -272.9337 
   3   2.0000      -9.912768      -269.7401 
   4   2.0000      -1.021823       -27.8052 
   5   2.0000      -0.934932       -25.4408 
   6   2.0000      -0.698547       -19.0084 
   7   2.0000      -0.560807       -15.2603 
   8   2.0000      -0.445949       -12.1349 
   9   2.0000      -0.432608       -11.7719 
  10   2.0000      -0.430120       -11.7042 
  11   2.0000      -0.373944       -10.1755 
  12   2.0000      -0.356447        -9.6994 
  13   2.0000      -0.356326        -9.6961 
  14   2.0000      -0.291231        -7.9248 
  15   2.0000      -0.242884        -6.6092 
  16   0.0000      -0.047624        -1.2959 
  17   0.0000      -0.031130        -0.8471 
  18   0.0000      -0.006490        -0.1766 
  19   0.0000       0.015956         0.4342 
  20   0.0000       0.018753         0.5103 
  21   0.0000       0.030891         0.8406 
  22   0.0000       0.045875         1.2483 
  23   0.0000       0.052047         1.4163 
  24   0.0000       0.056602         1.5402 
  25   0.0000       0.061882         1.6839 
  26   0.0000       0.063276         1.7218 
*Only the first 10 virtual orbitals were printed.

                    ********************************
                    * MULLIKEN POPULATION ANALYSIS *
                    ********************************

-----------------------
MULLIKEN ATOMIC CHARGES
-----------------------
   0 C :    0.625029
   1 C :   -0.686761
   2 O :   -0.518355
   3 O :   -0.483480
   4 H :    0.289047
   5 H :    0.275045
   6 H :    0.249743
   7 H :    0.249734
Sum of atomic charges:   -0.0000000

--------------------------------
MULLIKEN REDUCED ORBITAL CHARGES
--------------------------------
  0 C s       :     2.995672  s :     2.995672
      pz      :     0.729102  p :     2.253679
      px      :     0.720935
      py      :     0.803643
      dz2     :     0.009218  d :     0.128590
      dxz     :     0.028022
      dyz     :     0.040078
      dx2y2   :    -0.035443
      dxy     :     0.086714
      f0      :     0.005277  f :    -0.003211
      f+1     :     0.000662
      f-1     :     0.003466
      f+2     :     0.005042
      f-2     :     0.002170
      f+3     :    -0.013888
      f-3     :    -0.005939
      g0      :     0.000127  g :     0.000241
      g+1     :    -0.000641
      g-1     :    -0.000899
      g+2     :    -0.000508
      g-2     :    -0.000030
      g+3     :     0.000259
      g-3     :     0.001013
      g+4     :    -0.002832
      g-4     :     0.003752

  1 C s       :     3.145008  s :     3.145008
      pz      :     1.235246  p :     3.432912
      px      :     1.098155
      py      :     1.099510
      dz2     :     0.025098  d :     0.109081
      dxz     :     0.005786
      dyz     :     0.028425
      dx2y2   :     0.020606
      dxy     :     0.029166
      f0      :    -0.004429  f :    -0.003611
      f+1     :     0.000404
      f-1     :     0.001582
      f+2     :    -0.001095
      f-2     :     0.000610
      f+3     :     0.000975
      f-3     :    -0.001658
      g0      :     0.000023  g :     0.003372
      g+1     :     0.000706
      g-1     :     0.000897
      g+2     :     0.000534
      g-2     :     0.000184
      g+3     :     0.000003
      g-3     :     0.000444
      g+4     :     0.000222
      g-4     :     0.000359

  2 O s       :     3.911399  s :     3.911399
      pz      :     1.419435  p :     4.558177
      px      :     1.792689
      py      :     1.346054
      dz2     :     0.003743  d :     0.043369
      dxz     :     0.001566
      dyz     :     0.024053
      dx2y2   :     0.008917
      dxy     :     0.005089
      f0      :     0.002030  f :     0.005171
      f+1     :     0.000317
      f-1     :    -0.001111
      f+2     :     0.002550
      f-2     :     0.000715
      f+3     :     0.001040
      f-3     :    -0.000369
      g0      :    -0.000144  g :     0.000238
      g+1     :     0.000019
      g-1     :     0.000449
      g+2     :    -0.000260
      g-2     :     0.000105
      g+3     :     0.000042
      g-3     :     0.000198
      g+4     :    -0.000175
      g-4     :     0.000005

  3 O s       :     3.873037  s :     3.873037
      pz      :     1.731640  p :     4.556848
      px      :     1.274622
      py      :     1.550587
      dz2     :     0.005497  d :     0.049972
      dxz     :     0.011021
      dyz     :     0.008120
      dx2y2   :     0.005401
      dxy     :     0.019934
      f0      :     0.001002  f :     0.002644
      f+1     :     0.000638
      f-1     :     0.000682
      f+2     :     0.000047
      f-2     :     0.001985
      f+3     :    -0.001834
      f-3     :     0.000126
      g0      :     0.000004  g :     0.000979
      g+1     :     0.000182
      g-1     :     0.000093
      g+2     :    -0.000008
      g-2     :     0.000103
      g+3     :     0.000022
      g-3     :     0.000149
      g+4     :     0.000355
      g-4     :     0.000080

  4 H s       :     0.617467  s :     0.617467
      pz      :     0.037711  p :     0.083940
      px      :     0.027549
      py      :     0.018679
      dz2     :    -0.000148  d :     0.011016
      dxz     :     0.001004
      dyz     :     0.004901
      dx2y2   :     0.005038
      dxy     :     0.000220
      f0      :    -0.000105  f :    -0.001469
      f+1     :    -0.000325
      f-1     :     0.000026
      f+2     :    -0.000166
      f-2     :    -0.000000
      f+3     :    -0.000050
      f-3     :    -0.000848

  5 H s       :     0.702866  s :     0.702866
      pz      :     0.014311  p :     0.026287
      px      :     0.005703
      py      :     0.006273
      dz2     :    -0.000978  d :    -0.002886
      dxz     :    -0.001774
      dyz     :     0.001400
      dx2y2   :    -0.000060
      dxy     :    -0.001474
      f0      :    -0.000141  f :    -0.001311
      f+1     :    -0.000357
      f-1     :     0.000075
      f+2     :    -0.000293
      f-2     :    -0.000415
      f+3     :     0.000285
      f-3     :    -0.000466

  6 H s       :     0.705147  s :     0.705147
      pz      :     0.017266  p :     0.045849
      px      :     0.015430
      py      :     0.013153
      dz2     :     0.000858  d :     0.000739
      dxz     :    -0.000231
      dyz     :    -0.002021
      dx2y2   :     0.000639
      dxy     :     0.001496
      f0      :    -0.000400  f :    -0.001478
      f+1     :    -0.000064
      f-1     :    -0.000578
      f+2     :    -0.000255
      f-2     :    -0.000173
      f+3     :    -0.000017
      f-3     :     0.000009

  7 H s       :     0.705155  s :     0.705155
      pz      :     0.017267  p :     0.045850
      px      :     0.015430
      py      :     0.013153
      dz2     :     0.000858  d :     0.000739
      dxz     :    -0.000231
      dyz     :    -0.002021
      dx2y2   :     0.000639
      dxy     :     0.001496
      f0      :    -0.000400  f :    -0.001478
      f+1     :    -0.000064
      f-1     :    -0.000578
      f+2     :    -0.000255
      f-2     :    -0.000173
      f+3     :    -0.000017
      f-3     :     0.000009



                     *******************************
                     * LOEWDIN POPULATION ANALYSIS *
                     *******************************

----------------------
LOEWDIN ATOMIC CHARGES
----------------------
   0 C :   -1.025846
   1 C :    0.826270
   2 O :    0.699118
   3 O :    1.231697
   4 H :   -0.804729
   5 H :   -0.321494
   6 H :   -0.302508
   7 H :   -0.302508

-------------------------------
LOEWDIN REDUCED ORBITAL CHARGES
-------------------------------
  0 C s       :     2.423254  s :     2.423254
      pz      :     0.499402  p :     2.055299
      px      :     0.700182
      py      :     0.855716
      dz2     :     0.113134  d :     1.354169
      dxz     :     0.146256
      dyz     :     0.246589
      dx2y2   :     0.402166
      dxy     :     0.446024
      f0      :     0.057723  f :     0.876155
      f+1     :     0.050079
      f-1     :     0.060753
      f+2     :     0.109557
      f-2     :     0.085378
      f+3     :     0.304195
      f-3     :     0.208470
      g0      :     0.010404  g :     0.316968
      g+1     :     0.027647
      g-1     :     0.039746
      g+2     :     0.023501
      g-2     :     0.022530
      g+3     :     0.009265
      g-3     :     0.029173
      g+4     :     0.082134
      g-4     :     0.072567

  1 C s       :     2.397668  s :     2.397668
      pz      :     0.675435  p :     2.009793
      px      :     0.664945
      py      :     0.669413
      dz2     :     0.073489  d :     0.432038
      dxz     :     0.033376
      dyz     :     0.103595
      dx2y2   :     0.117184
      dxy     :     0.104395
      f0      :     0.023228  f :     0.256217
      f+1     :     0.025598
      f-1     :     0.032335
      f+2     :     0.025008
      f-2     :     0.029097
      f+3     :     0.060871
      f-3     :     0.060079
      g0      :     0.004396  g :     0.078014
      g+1     :     0.005853
      g-1     :     0.009234
      g+2     :     0.007508
      g-2     :     0.006886
      g+3     :     0.005088
      g-3     :     0.004001
      g+4     :     0.011934
      g-4     :     0.023113

  2 O s       :     3.112154  s :     3.112154
      pz      :     1.097033  p :     3.797458
      px      :     1.324134
      py      :     1.376291
      dz2     :     0.030976  d :     0.236498
      dxz     :     0.009056
      dyz     :     0.046457
      dx2y2   :     0.064398
      dxy     :     0.085611
      f0      :     0.011911  f :     0.121057
      f+1     :     0.005451
      f-1     :     0.014929
      f+2     :     0.014841
      f-2     :     0.005419
      f+3     :     0.040284
      f-3     :     0.028222
      g0      :     0.002136  g :     0.033716
      g+1     :     0.000106
      g-1     :     0.004175
      g+2     :     0.004324
      g-2     :     0.002157
      g+3     :     0.000721
      g-3     :     0.002322
      g+4     :     0.008736
      g-4     :     0.009039

  3 O s       :     2.881407  s :     2.881407
      pz      :     1.170497  p :     3.449285
      px      :     1.076046
      py      :     1.202741
      dz2     :     0.035911  d :     0.284690
      dxz     :     0.042076
      dyz     :     0.019519
      dx2y2   :     0.078090
      dxy     :     0.109095
      f0      :     0.013202  f :     0.127879
      f+1     :     0.014151
      f-1     :     0.007136
      f+2     :     0.005964
      f-2     :     0.014717
      f+3     :     0.049456
      f-3     :     0.023252
      g0      :     0.001234  g :     0.025043
      g+1     :     0.003207
      g-1     :     0.000775
      g+2     :     0.001597
      g-2     :     0.002638
      g+3     :     0.000279
      g-3     :     0.002115
      g+4     :     0.008803
      g-4     :     0.004394

  4 H s       :     0.567647  s :     0.567647
      pz      :     0.137260  p :     0.536969
      px      :     0.172448
      py      :     0.227261
      dz2     :     0.042088  d :     0.458409
      dxz     :     0.063750
      dyz     :     0.078683
      dx2y2   :     0.155977
      dxy     :     0.117910
      f0      :     0.028592  f :     0.241704
      f+1     :     0.016279
      f-1     :     0.015042
      f+2     :     0.005193
      f-2     :     0.046013
      f+3     :     0.060728
      f-3     :     0.069858

  5 H s       :     0.594610  s :     0.594610
      pz      :     0.084423  p :     0.315229
      px      :     0.131576
      py      :     0.099230
      dz2     :     0.019231  d :     0.280554
      dxz     :     0.068472
      dyz     :     0.038718
      dx2y2   :     0.070187
      dxy     :     0.083946
      f0      :     0.017768  f :     0.131101
      f+1     :     0.010758
      f-1     :     0.002703
      f+2     :     0.004874
      f-2     :     0.029726
      f+3     :     0.043463
      f-3     :     0.021809

  6 H s       :     0.586450  s :     0.586450
      pz      :     0.128124  p :     0.317205
      px      :     0.084966
      py      :     0.104115
      dz2     :     0.092533  d :     0.271985
      dxz     :     0.048113
      dyz     :     0.054728
      dx2y2   :     0.025635
      dxy     :     0.050975
      f0      :     0.044006  f :     0.126869
      f+1     :     0.007248
      f-1     :     0.015085
      f+2     :     0.014732
      f-2     :     0.030016
      f+3     :     0.010247
      f-3     :     0.005536

  7 H s       :     0.586450  s :     0.586450
      pz      :     0.128124  p :     0.317205
      px      :     0.084966
      py      :     0.104115
      dz2     :     0.092533  d :     0.271985
      dxz     :     0.048113
      dyz     :     0.054728
      dx2y2   :     0.025635
      dxy     :     0.050975
      f0      :     0.044006  f :     0.126869
      f+1     :     0.007248
      f-1     :     0.015085
      f+2     :     0.014732
      f-2     :     0.030016
      f+3     :     0.010247
      f-3     :     0.005536



                      *****************************
                      * MAYER POPULATION ANALYSIS *
                      *****************************

  NA   - Mulliken gross atomic population
  ZA   - Total nuclear charge
  QA   - Mulliken gross atomic charge
  VA   - Mayer's total valence
  BVA  - Mayer's bonded valence
  FA   - Mayer's free valence

  ATOM       NA         ZA         QA         VA         BVA        FA
  0 C      5.3750     6.0000     0.6250     3.6620     3.6620     0.0000
  1 C      6.6868     6.0000    -0.6868     3.9021     3.9021     0.0000
  2 O      8.5184     8.0000    -0.5184     1.9224     1.9224    -0.0000
  3 O      8.4835     8.0000    -0.4835     2.1470     2.1470    -0.0000
  4 H      0.7110     1.0000     0.2890     0.9848     0.9848    -0.0000
  5 H      0.7250     1.0000     0.2750     0.9319     0.9319    -0.0000
  6 H      0.7503     1.0000     0.2497     0.9831     0.9831    -0.0000
  7 H      0.7503     1.0000     0.2497     0.9831     0.9831     0.0000

  Mayer bond orders larger than 0.100000
B(  0-C ,  1-C ) :   1.0374 B(  0-C ,  2-O ) :   1.6584 B(  0-C ,  3-O ) :   1.0578 
B(  1-C ,  5-H ) :   0.9521 B(  1-C ,  6-H ) :   0.9088 B(  1-C ,  7-H ) :   0.9088 
B(  2-O ,  3-O ) :   0.1393 B(  3-O ,  4-H ) :   0.9193 

-------
TIMINGS
-------

Total SCF time: 0 days 0 hours 2 min 39 sec 

Total time                  ....     159.966 sec
Sum of individual times     ....     152.732 sec  ( 95.5%)

SCF preparation             ....       0.144 sec  (  0.1%)
Fock matrix formation       ....     151.335 sec  ( 94.6%)
  Startup                   ....       0.018 sec  (  0.0% of F)
  Coulomb formation         ....     155.231 sec  (102.6% of F)
  XC integration            ....       2.943 sec  (  1.9% of F)
    XC Preparation          ....       0.000 sec  (  0.0% of XC)
    Basis function eval.    ....       0.314 sec  ( 10.7% of XC)
    Density eval.           ....       0.590 sec  ( 20.0% of XC)
    XC-Functional eval.     ....       0.063 sec  (  2.1% of XC)
    XC-Potential eval.      ....       1.607 sec  ( 54.6% of XC)
Diagonalization             ....       0.000 sec  (  0.0%)
Density matrix formation    ....       0.206 sec  (  0.1%)
Total Energy calculation    ....       0.045 sec  (  0.0%)
Population analysis         ....       0.051 sec  (  0.0%)
Orbital Transformation      ....       0.094 sec  (  0.1%)
Orbital Orthonormalization  ....       0.000 sec  (  0.0%)
DIIS solution               ....       0.551 sec  (  0.3%)
SOSCF solution              ....       0.306 sec  (  0.2%)
Finished LeanSCF after 160.0 sec

Maximum memory used throughout the entire LEANSCF-calculation: 43.3 MB


           ************************************************************
           *        Program running with 8 parallel MPI-processes     *
           *              working on a common directory               *
           ************************************************************

------------------------------------------------------------------------------
                         ORCA PROPERTY INTEGRAL CALCULATIONS
------------------------------------------------------------------------------

GBWName                                   ... /cluster/projects/nn14654k/ylvaos/basis_set_n_funcs/functionals/pw91/CH3COOH/inp/CH3COOH_pw91_augccpvqz.gbw
Number of atoms                           ...      8
Number of basis functions                 ...    532
Max core memory                           ...   4096 MB

Dipole integrals                          ... YES
Quadrupole integrals                      ... YES
Linear momentum integrals                 ...  NO
Angular momentum integrals                ...  NO
Higher moments length integrals           ...  NO
Higher moments velocity integrals         ...  NO
Kinetic energy integrals                  ...  NO
GIAO right hand sides                     ...  NO
GIAO dipole derivative integrals          ...  NO
SOC integrals                             ...  NO
EPR diamagnetic integrals (GIAO)          ...  NO
EPR gauge integrals                       ...  NO
Field gradient integrals                  ...  NO (   0 nuclei)
Spin-dipole/Fermi contact integrals       ...  NO (   0 nuclei)
Contact density integrals                 ...  NO (   0 nuclei)
Nucleus-orbit integrals                   ...  NO (   0 nuclei)
Geometric perturbations                   ...  NO (   8 nuclei)

Choice of electric origin   ... Center of mass
Position of electric origin ... ( -0.0657,  0.0975,  0.0000) 
Choice of magnetic origin   ... GIAO
Position of magnetic origin ... (  0.0000,  0.0000,  0.0000) 

Calculating integrals                     ... Electric Dipole (Length)     done (  0.0 sec)
Calculating integrals                     ... Electric Quadrupole (Length) done (  0.0 sec)

Property integrals calculated in   0.1 sec

Maximum memory used throughout the entire PROPINT-calculation: 37.7 MB
------------------------------------------------------------------------------
                           ORCA ORBITAL LOCALIZATION
------------------------------------------------------------------------------

Input orbitals are from                  ... /cluster/projects/nn14654k/ylvaos/basis_set_n_funcs/functionals/pw91/CH3COOH/inp/CH3COOH_pw91_augccpvqz.gbw
Output orbitals are to                   ... /cluster/projects/nn14654k/ylvaos/basis_set_n_funcs/functionals/pw91/CH3COOH/inp/CH3COOH_pw91_augccpvqz.loc
Max. number of iterations                ... 128
Localizations seeded randomly            ... on
Convergence tolerance                    ... 1.000e-06
Threshold for strong local MOs           ... 9.500e-01
Threshold for bond MOs                   ... 8.500e-01
Operator                                 ... 0
Orbital range for localization           ... 4 to 15
Localization criterion                   ... NEW-BOYS
Doing the dipole integrals               ... o.k.
Initial value of the localization sum :    60.931441
ITERATION   0 : L=   78.3621957372 DL=  1.74e+01 (AVERGE_DL)=    0.5139088827 
ITERATION   1 : L=   80.8363176973 DL=  2.47e+00 (AVERGE_DL)=    0.1936148144 
ITERATION   2 : L=   80.9290675474 DL=  9.27e-02 (AVERGE_DL)=    0.0374873413 
ITERATION   3 : L=   80.9334988081 DL=  4.43e-03 (AVERGE_DL)=    0.0081939193 
ITERATION   4 : L=   80.9357489847 DL=  2.25e-03 (AVERGE_DL)=    0.0058389713 
ITERATION   5 : L=   80.9374047635 DL=  1.66e-03 (AVERGE_DL)=    0.0050087480 
ITERATION   6 : L=   80.9387490193 DL=  1.34e-03 (AVERGE_DL)=    0.0045130381 
ITERATION   7 : L=   80.9397746111 DL=  1.03e-03 (AVERGE_DL)=    0.0039419880 
ITERATION   8 : L=   80.9405104133 DL=  7.36e-04 (AVERGE_DL)=    0.0033389397 
ITERATION   9 : L=   80.9410132150 DL=  5.03e-04 (AVERGE_DL)=    0.0027601100 
ITERATION  10 : L=   80.9413449745 DL=  3.32e-04 (AVERGE_DL)=    0.0022420211 
ITERATION  11 : L=   80.9415586429 DL=  2.14e-04 (AVERGE_DL)=    0.0017992779 
ITERATION  12 : L=   80.9416940199 DL=  1.35e-04 (AVERGE_DL)=    0.0014321893 
ITERATION  13 : L=   80.9417788574 DL=  8.48e-05 (AVERGE_DL)=    0.0011337620 
ITERATION  14 : L=   80.9418316341 DL=  5.28e-05 (AVERGE_DL)=    0.0008942299 
ITERATION  15 : L=   80.9418643054 DL=  3.27e-05 (AVERGE_DL)=    0.0007035763 
ITERATION  16 : L=   80.9418844643 DL=  2.02e-05 (AVERGE_DL)=    0.0005526642 
ITERATION  17 : L=   80.9418968740 DL=  1.24e-05 (AVERGE_DL)=    0.0004336208 
ITERATION  18 : L=   80.9419045020 DL=  7.63e-06 (AVERGE_DL)=    0.0003399640 
ITERATION  19 : L=   80.9419091862 DL=  4.68e-06 (AVERGE_DL)=    0.0002664072 
ITERATION  20 : L=   80.9419120599 DL=  2.87e-06 (AVERGE_DL)=    0.0002086635 
ITERATION  21 : L=   80.9419138210 DL=  1.76e-06 (AVERGE_DL)=    0.0001633517 
ITERATION  22 : L=   80.9419149019 DL=  1.08e-06 (AVERGE_DL)=    0.0001279732 
ITERATION  23 : L=   80.9419155635 DL=  6.62e-07 (AVERGE_DL)=    0.0001001232 
LOCALIZATION SUM CONVERGED


--------------------------------------------------------------------------------
                    LOCALIZED MOLECULAR ORBITAL COMPOSITIONS
--------------------------------------------------------------------------------

The Mulliken populations for each LMO on each atom are computed
The LMO`s will be ordered according to atom index and type
  (A) Strongly localized MO`s have populations of >=0.950 on one atom
  (B) Two center bond orbitals have populations of >=0.850 on two atoms
  (C) Other MO`s are considered to be `delocalized`

FOUND  -   3 strongly local MO`s
       -   9 two center bond MO`s
       -   0 significantly delocalized MO`s

Rather strongly localized orbitals:
MO   6:   3O  -   1.042046
MO   5:   2O  -   0.981244
MO   4:   2O  -   1.007387
Bond-like localized orbitals:
MO  15:   7H  -   0.359481  and   1C  -   0.617435
MO  14:   6H  -   0.359401  and   1C  -   0.617453
MO  13:   5H  -   0.364595  and   1C  -   0.667149
MO  12:   4H  -   0.349807  and   3O  -   0.671384
MO  11:   3O  -   0.665467  and   0C  -   0.333766
MO  10:   3O  -   0.886265  and   0C  -   0.103036
MO   9:   2O  -   0.655707  and   0C  -   0.340975
MO   8:   2O  -   0.655057  and   0C  -   0.342004
MO   7:   1C  -   0.430139  and   0C  -   0.628638
Localized MO's were stored in: /cluster/projects/nn14654k/ylvaos/basis_set_n_funcs/functionals/pw91/CH3COOH/inp/CH3COOH_pw91_augccpvqz.loc

-------------------------   --------------------
FINAL SINGLE POINT ENERGY      -229.124236704456
-------------------------   --------------------



           ************************************************************
           *        Program running with 8 parallel MPI-processes     *
           *              working on a common directory               *
           ************************************************************

------------------------------------------------------------------------------
                              ORCA PROPERTY CALCULATIONS
------------------------------------------------------------------------------

GBWName                                 ... /cluster/projects/nn14654k/ylvaos/basis_set_n_funcs/functionals/pw91/CH3COOH/inp/CH3COOH_pw91_augccpvqz.gbw
Number of atoms                         ...      8
Number of basis functions               ...    532
Max core memory                         ...   4096 MB

Electric properties:
Dipole moment                           ... YES
Quadrupole moment                       ... YES
Static polarizability (Dipole/Dipole)   ...  NO
Static polarizability (Dipole/Quad.)    ...  NO
Static polarizability (Quad./Quad.)     ...  NO
Static polarizability (Velocity)        ...  NO
Static hyperpolarizability              ...  NO

Atomic electric properties:
Dipole moment                           ...  NO
Quadrupole moment                       ...  NO
Static polarizability                   ...  NO

Choice of electric origin               ... Center of mass
Position of electric origin             ...    -0.065707     0.097461     0.000000

General magnetic properties:
Magnetizability                         ...  NO

EPR properties:
g-Tensor (aka g-matrix)                 ...  NO
Zero-Field splitting spin-orbit         ...  NO
Zero-field splitting spin-spin          ...  NO
Hyperfine couplings                     ...  NO (   0 nuclei)
Quadrupole couplings                    ...  NO (   0 nuclei)
Contact density                         ...  NO (   0 nuclei)

NMR properties:
Chemical shifts                         ...  NO (   0 nuclei)
Spin-rotation constants                 ...  NO (   0 nuclei)
Spin-spin couplings                     ...  NO (   0 nuclei,    0 pairs)

Choice of magnetic origin               ... GIAO
Position of magnetic origin             ...     0.000000     0.000000     0.000000

Properties with geometric perturbations:
SCF Hessian                             ...  NO
IR spectrum                             ...  NO
VCD spectrum                            ...  NO
X-ray spectroscopy properties:
SCF XES/XAS/RIXS spectra                ...  NO

SCF SOC stabilization energy            ...  NO
Diagonal Born-Oppenheimer correction    ...  NO

-------------
DIPOLE MOMENT
-------------

Method             : SCF
Type of density    : Electron Density
Multiplicity       :   1
Irrep              :   0
Energy             :  -229.1242367044555408 Eh
Basis              : AO
                                X                 Y                 Z
Electronic contribution:     -2.204234292       2.430494285       0.000000000
Nuclear contribution   :      2.102617427      -3.118765285       0.000000000
                        -----------------------------------------
Total Dipole Moment    :     -0.101616865      -0.688271000       0.000000000
                        -----------------------------------------
Magnitude (a.u.)       :      0.695731958
Magnitude (Debye)      :      1.768410098



--------------------
Rotational spectrum 
--------------------
 
Rotational constants in cm-1:             0.373252             0.316126             0.176788 
Rotational constants in MHz :         11189.819630          9477.229268          5299.974115 

Dipole components along the rotational axes: 
x,y,z [a.u.] :    -0.369821    -0.589301     0.000000 
x,y,z [Debye]:    -0.940011    -1.497883     0.000000 

 

Dipole moment calculation done in   0.0 sec 

-----------------
QUADRUPOLE MOMENT
-----------------

Method             : SCF
Type of density    : Electron Density
Multiplicity       :   1
Irrep              :   0
Energy             :  -229.1242367044555408 Eh
Basis              : AO

                XX              YY              ZZ              XY              XZ              YZ
  NUC      103.447904006    93.335807526     5.552847104   -15.402641721     0.000000000     0.000000000
  EL      -118.641980067  -113.779569964   -22.963920110    12.770885023    -0.000000005    -0.000000027
  TOT      -15.194076061   -20.443762438   -17.411073006    -2.631756698    -0.000000005    -0.000000027 (a.u.)
           -20.436551939   -27.497559656   -23.418488652    -3.539802765    -0.000000006    -0.000000037 (Buckingham)

diagonalized tensor:
           -21.535899890   -17.411073006   -14.101938609 (a.u.)
           -28.966521880   -23.418488652   -18.967589715 (Buckingham)
           -15.546965392     1.097134291    14.449831101 (traceless form in Buckingham)

             0.383290895     0.000000004     0.923627679
             0.923627679     0.000000005    -0.383290895
             0.000000007    -1.000000000     0.000000002
        
Isotropic quadrupole :   -17.682970502

Quadrupole moment calculation done in   0.0 sec (  0.0 sec for integrals)

Maximum memory used throughout the entire PROP-calculation: 34.5 MB

--------------------------------
SUGGESTED CITATIONS FOR THIS RUN
--------------------------------

Below you find a list of papers that are relevant to this ORCA run
We neither can nor want to force you to cite these papers, but we appreciate if you do
You receive ORCA, which is the product of decades of hard work by many enthusiastic individuals, for free
The only thing we kindly ask in return is that you cite our papers,
We deeply appreciate it, if you show your appreciation for ORCA by not just citing the generic ORCA reference.

Please note that relegating all ORCA citations to the supporting information does *not* help us.
SI sections are not indexed - citations you put there will not count into any citation statistics
But we need these citations in order to attract the funding resources that allow us to do what we are doing

Therefore, if you are a happy ORCA user, please consider citing a few of the papers listed below in the main body of your paper

In addition to the list printed below, the program has created the file /cluster/projects/nn14654k/ylvaos/basis_set_n_funcs/functionals/pw91/CH3COOH/inp/CH3COOH_pw91_augccpvqz.bibtex that contains the list in bibtex format
You can import this file easily into all common literature databanks and citation aid programs

It goes without saying that in many instances, there are alternative algorithms to achieve similar
results as the ones you have gotten from ORCA. It is, of course, also the case that in some instances
ORCA just re-implements algorithms worked out by others. We are fully aware of that and we are also
fully appreciative of our colleagues work. Hence this citation list should not be read as indicating
that the listed papers, which are focused on our own work, are the only ones worth citing. It simply
meant to make it easier for users to cite ORCA specific papers. It is not a substitute for doing your
own literature research and citing the relevant literature in a scientifically appropriate manner.

List of essential papers. We consider these as the minimum necessary citations

  1. Neese, F.
     Software update: the ORCA program system, version 6.0
     WIRES Comput. Molec. Sci. 2025 15(1), e70019
     doi.org/10.1002/wcms.70019

List of papers to cite with high priority. The work reported in these papers was absolutely
necessary for this run to complete.
Our perspective: the developers of density functionals and basis sets usually get cited in chemistry papers
Good! But without the algorithms to do something with them, the functionals or basis sets would not do anything.
Hence, in our opinion, the algorithm design and method developments papers are equally worthy of getting cited

  1. Lehtola, S.; Steigemann, C.; Oliveira, M.; Marques, M.
     Recent developments in Libxc - A comprehensive library of functionals for density functional theory
     Software X 2018 7 , 
     doi.org/10.1016/j.softx.2017.11.002
  2. Neese, F.
     The SHARK Integral Generation and Digestion System
     J. Comp. Chem. 2022 44(3), 381
     doi.org/10.1002/jcc.26942

List of suggested additional citations. These are papers that are important in the 'surrounding' of 
of this run, or papers that preceded the highly important papers. If you like your results we are grateful for a citation.

  1. Neese, F.
     The ORCA program system
     WIRES Comput. Molec. Sci. 2012 2(1), 73-78
     doi.org/10.1002/wcms.81
  2. Neese, F.
     Software update: the ORCA program system, version 4.0
     WIRES Comput. Molec. Sci. 2018 8(1), 1-6
     doi.org/10.1002/wcms.1327
  3. Neese, F.; Wennmohs, F.; Becker, U.; Riplinger, C.
     The ORCA quantum chemistry program package
     J. Chem. Phys. 2020 152(22), 224108
     doi.org/10.1063/5.0004608
  4. Neese, F.
     Software update: The ORCA program system—Version 5.0
     WIRES Comput. Molec. Sci. 2022 12(1), e1606
     doi.org/10.1002/wcms.1606

List of optional additional citations

  1. Neese, F.
     Approximate second-order SCF convergence for spin unrestricted wavefunctions
     Chem. Phys. Lett. 2000 325(1-3), 93-98
     doi.org/10.1016/s0009-2614(00)00662-x

Timings for individual modules:

Sum of individual times          ...      163.085 sec (=   2.718 min)
Startup calculation              ...        1.278 sec (=   0.021 min)   0.8 %
SCF iterations                   ...      161.168 sec (=   2.686 min)  98.8 %
Property integrals               ...        0.344 sec (=   0.006 min)   0.2 %
Property calculations            ...        0.278 sec (=   0.005 min)   0.2 %
Orbital localization             ...        0.018 sec (=   0.000 min)   0.0 %
                             ****ORCA TERMINATED NORMALLY****
TOTAL RUN TIME: 0 days 0 hours 2 minutes 43 seconds 709 msec
