
                                 *****************
                                 * O   R   C   A *
                                 *****************

                                            #,                                       
                                            ###                                      
                                            ####                                     
                                            #####                                    
                                            ######                                   
                                           ########,                                 
                                     ,,################,,,,,                         
                               ,,#################################,,                 
                          ,,##########################################,,             
                       ,#########################################, ''#####,          
                    ,#############################################,,   '####,        
                  ,##################################################,,,,####,       
                ,###########''''           ''''###############################       
              ,#####''   ,,,,##########,,,,          '''####'''          '####       
            ,##' ,,,,###########################,,,                        '##       
           ' ,,###''''                  '''############,,,                           
         ,,##''                                '''############,,,,        ,,,,,,###''
      ,#''                                            '''#######################'''  
     '                                                          ''''####''''         
             ,#######,   #######,   ,#######,      ##                                
            ,#'     '#,  ##    ##  ,#'     '#,    #''#        ,####,    ,#,          
            ##       ##  ##   ,#'  ##            #'  '#       #'       ,# #          
            ##       ##  #######   ##           ,######,      #####,      #          
            '#,     ,#'  ##    ##  '#,     ,#' ,#      #,     #,   #      #          
             '#######'   ##     ##  '#######'  #'      '#     '####' #    #          



                #########################################################
                #                        -***-                          #
                #          Department of theory and spectroscopy        #
                #                                                       #
                #                      Frank Neese                      #
                #                                                       #
                #     Directorship, Architecture, Infrastructure        #
                #                    SHARK, DRIVERS                     #
                #        Core code/Algorithms in most modules           #
                #                                                       #
                #        Max Planck Institute fuer Kohlenforschung      #
                #                Kaiser Wilhelm Platz 1                 #
                #                 D-45470 Muelheim/Ruhr                 #
                #                      Germany                          #
                #                                                       #
                #                  All rights reserved                  #
                #                        -***-                          #
                #########################################################


                         Program Version 6.1.1  -  RELEASE   -
                                (GIT: $487d211c$)
                          ($2025-11-21 10:33:24 +0100$)


 With contributions from (in alphabetic order):
[Max-Planck-Institut fuer Kohlenforschung]                               
  Daniel Aravena         : Magnetic Suceptibility                        
  Michael Atanasov       : Ab Initio Ligand Field Theory (pilot matlab implementation)
  Alexander A. Auer      : GIAO ZORA, VPT2 properties, NMR spectrum      
  Ute Becker             : All parallelization in ORCA, NUMFREQ, NUMCALC 
  Giovanni Bistoni       : ED, misc. LED, open-shell LED, HFLD           
  Dmytro Bykov           : pre 5.0 version of the SCF Hessian            
  Marcos Casanova-Páez   : Triplet and SCS-CIS(D). UHF-(DLPNO)-IP/EA/STEOM-CCSD. UHF-CVS-IP/STEOM-CCSD   
  Vijay G. Chilkuri      : MRCI spin determinant printing, contributions to CSF-ICE 
  Pauline Colinet        : FMM embedding                                 
  Dipayan Datta          : RHF DLPNO-CCSD density                        
  Achintya Kumar Dutta   : EOM-CC, STEOM-CC                              
  Nicolas Foglia         : Exact transition moments, OPA infrastructure, MCD improvements    
  Dmitry Ganyushin       : Spin-Orbit,Spin-Spin,Magnetic field MRCI      
  Miquel Garcia-Rates    : C-PCM and meta-GGA Hessian, CCSD/C-PCM, Gaussian charge scheme 
  Tiago L. C. Gouveia    : GS-ROHF, GS-ROCIS                             
  Yang Guo               : DLPNO-NEVPT2, F12-NEVPT2, CIM, IAO-localization        
  Andreas Hansen         : Spin unrestricted coupled pair/coupled cluster methods 
  Ingolf Harden          : AUTO-CI MPn and infrastructure                
  Benjamin Helmich-Paris : MC-RPA, TRAH-(SCF,CASSCF), AVAS, COSX integrals, SCF dyn. polar., MC-PDFT, srDFT 
  Lee Huntington         : MR-EOM, pCC                                   
  Robert Izsak           : Overlap fitted RIJCOSX, COSX-SCS-MP3, EOM     
  Riya Kayal             : Wick's Theorem for AUTO-CI, AUTO-CI UHF-CCSDT 
  Emily Kempfer          : AUTO-CI RHF CISDT and CCSDT, approximate NEVPT4
  Christian Kollmar      : KDIIS, OOCD, Brueckner-CCSD(T), CCSD density, CASPT2, CASPT2-K, improved NEVPT2 
  Axel Koslowski         : Symmetry handling                             
  Simone Kossmann        : meta-GGA functionals, TD-DFT gradient, OOMP2, (MP2 Hessian; deprecated post 5.0) 
  Lucas Lang             : DCDCAS, Hyperfine gauge corrections, ICE-SOC+SSC
  Marvin Lechner         : AUTO-CI (C++ implementation), FIC-MRCC        
  Spencer Leger          : CASSCF response                               
  Dagmar Lenk            : GEPOL surface, SMD, ORCA-2-JSON               
  Dimitrios Liakos       : Extrapolation schemes; Compound Job, Property file
  Dimitrios Manganas     : Further ROCIS development; embedding schemes. LFT, Crystal Embedding 
  Dimitrios Pantazis     : SARC Basis sets                               
  Anastasios Papadopoulos: AUTO-CI, single reference methods and gradients 
  Taras Petrenko         : pre 6.0 DFT Hessian and TD-DFT gradient,  ECA, NRVS 
  Petra Pikulova         : Analytic Raman intensities                    
  Peter Pinski           : DLPNO-MP2, DLPNO-MP2 Gradient                 
  Shashank Vittal Rao    : ES-AILFT, MagRelax                            
  Christoph Reimann      : Effective Core Potentials                     
  Marius Retegan         : Local ZFS, SOC                                
  Christoph Riplinger    : Optimizer, TS searches, QM/MM, DLPNO-CCSD(T), (RO)-DLPNO pert. Triples 
  Michael Roemelt        : Original ROCIS implementation, recursive CI coupling coefficients
  Masaaki Saitow         : Open-shell DLPNO-CCSD energy and density      
  Barbara Sandhoefer     : DKH picture change effects                    
  Yorick L. A. Schmerwitz: GMF and freeze-and-release deltaSCF, NEB S-IDPP initial path                    
  Kantharuban Sivalingam : CASSCF convergence/infrastructure, NEVPT2, NEVPT3, NEVPT4(SD), FIC-MRCI and CEPA variants
  Bernardo de Souza      : ESD, SOC TD-DFT                               
  Georgi L. Stoychev     : AutoAux, RI-MP2 NMR, DLPNO-MP2 response, X2C  
  Van Anh Tran           : RI-MP2 g-tensors                              
  Willem Van den Heuvel  : Paramagnetic NMR                              
  Zikuan Wang            : NOTCH, Electric field optimization            
  Frank Wennmohs         : Technical directorship and infrastructure     
  Hang Xu                : AUTO-CI-Response properties                   
                                                                         
[FACCTs GmbH]                                                            
  Markus Bursch, Nicolas Foglia, Miquel Garcia-Rates, Ingolf Harden, Hagen Neugebauer, Anastasios Papadopoulos, 
  Christoph Riplinger, Bernardo de Souza, Georgi L. Stoychev                                                    
                                                                 
  APM, various basis sets, CI-OPT, improved COSX, DLPNO-Multilevel,           
  DOCKER, DRACO, updates on ESD, Fragmentator, GOAT, IRC, LR-CPCM, L-BFGS, MBIS, meta-GGA TD-DFT gradient, ML-optimized integration grids, 
  MM, NACMEs, nearIR, NEB, NEB-TS, NL-DFT gradient (VV10), 2- and 3-layer-ONIOM, interface openCOSMO-RS, QMMM,   
  Crystal-QMMM, RESP, rigid body optimization, SF, symmetry and pop. for TD-DFT, various functionals, SOLVATOR                                   
                                                                         
[Other institutions]                                                     
  V. Asgeirsson          : NEB                                           
  Christoph Bannwarth    : sTDA-DFT, sTD-DFT, PBEh-3c, B97-3c, D3        
  Giovanni Bistoni       : ETS/NOCV, ADLD/ADEX, COVALED                  
  Martin Brehm           : Molecular dynamics                            
  Ronald Cardenas        : ETS/NOCV                                      
  Martina Colucci        : COVALED                                       
  Sebastian Ehlert       : rSCAN, r2SCAN, r2SCAN-3c, D4, dhf basis sets  
  Marvin Friede          : D4 for Fr, Ra, Ac-Lr                          
  Lars Goerigk           : TD-DFT with DH, B97 family of functionals     
  Stefan Grimme          : VdW corrections, initial TS optimization, DFT functionals, gCP, sTDA/sTD-DF 
  Waldemar Hujo          : DFT-NL                                        
  H. Jonsson             : NEB                                           
  Holger Kruse           : gCP                                           
  Marcel Mueller         : wB97X-3c, vDZP basis set                      
  Hagen Neugebauer       : wr2SCAN, Native XTB                           
  Gianluca Regni         : ADLD/ADEX                                     
  Tobias Risthaus        : pre 6.0 range-separated hybrid DFT and stability analysis
  Lukas Wittmann         : regularized MP2, r2SCAN double-hybrids, wr2SCAN        
                                                                         
We gratefully acknowledge several colleagues who have allowed us to      
interface, adapt or use parts of their codes:                            
  Ed Valeev, F. Pavosevic, A. Kumar             : LibInt (2-el integral package), F12 methods 
  Garnet Chan, S. Sharma, J. Yang, R. Olivares  : DMRG                   
  Ulf Ekstrom                                   : XCFun DFT Library      
  Mihaly Kallay                                 : mrcc  (arbitrary order and MRCC methods)
  Frank Weinhold                                : gennbo (NPA and NBO analysis)           
  Simon Mueller                                 : openCOSMO-RS                            
  Christopher J. Cramer and Donald G. Truhlar   : smd solvation model                     
  S Lehtola, MJT Oliveira, MAL Marques          : LibXC Library                           
  Liviu Ungur et al                             : ANISO software                          


 Your calculation uses the libint2 library for the computation of 2-el integrals
 For citations please refer to: http://libint.valeyev.net

 Your ORCA version has been built with support for libXC version: 7.0.0
 For citations please refer to: https://libxc.gitlab.io

 This ORCA versions uses:
   CBLAS   interface :  Fast vector & matrix operations
   LAPACKE interface :  Fast linear algebra routines
   SCALAPACK package :  Parallel linear algebra routines
   Shared memory     :  Shared parallel matrices
   BLAS/LAPACK       :  OpenBLAS 0.3.29  USE64BITINT DYNAMIC_ARCH NO_AFFINITY Cooperlake SINGLE_THREADED
        Core in use  :  Cooperlake
   Copyright (c) 2011-2014, The OpenBLAS Project


  ***********************************
  * Starting time: Wed May 20 12:33:45 2026
  * Host name:     c1-51
  * Process ID:    2892954
  * Working dir.:  /cluster/projects/nn14654k/ylvaos/basis_set_n_funcs/functionals/pw91/CH3COOH/out
  ***********************************

Using LibXC functional ID 109 : Perdew & Wang 91
[ 1]  J. P. Perdew. In P. Ziesche and H. Eschrig, editors, Proceedings of the 75. WE-Heraeus-Seminar and 21st Annual International Symposium on Electronic Structure of Solids, 11. Berlin, 1991. Akademie Verlag.
[ 2]  J. P. Perdew, J. A. Chevary, S. H. Vosko, K. A. Jackson, M. R. Pederson, D. J. Singh, and C. Fiolhais.,  Phys. Rev. B 46, 6671 (1992)
[ 3]  J. P. Perdew, J. A. Chevary, S. H. Vosko, K. A. Jackson, M. R. Pederson, D. J. Singh, and C. Fiolhais.,  Phys. Rev. B 48, 4978 (1993)
Using LibXC functional ID 134 : Perdew & Wang 91
[ 1]  J. P. Perdew. In P. Ziesche and H. Eschrig, editors, Proceedings of the 75. WE-Heraeus-Seminar and 21st Annual International Symposium on Electronic Structure of Solids, 11. Berlin, 1991. Akademie Verlag.
[ 2]  J. P. Perdew, J. A. Chevary, S. H. Vosko, K. A. Jackson, M. R. Pederson, D. J. Singh, and C. Fiolhais.,  Phys. Rev. B 46, 6671 (1992)
[ 3]  J. P. Perdew, J. A. Chevary, S. H. Vosko, K. A. Jackson, M. R. Pederson, D. J. Singh, and C. Fiolhais.,  Phys. Rev. B 48, 4978 (1993)
Using LibXC functional ID 109 : Perdew & Wang 91
[ 1]  J. P. Perdew. In P. Ziesche and H. Eschrig, editors, Proceedings of the 75. WE-Heraeus-Seminar and 21st Annual International Symposium on Electronic Structure of Solids, 11. Berlin, 1991. Akademie Verlag.
[ 2]  J. P. Perdew, J. A. Chevary, S. H. Vosko, K. A. Jackson, M. R. Pederson, D. J. Singh, and C. Fiolhais.,  Phys. Rev. B 46, 6671 (1992)
[ 3]  J. P. Perdew, J. A. Chevary, S. H. Vosko, K. A. Jackson, M. R. Pederson, D. J. Singh, and C. Fiolhais.,  Phys. Rev. B 48, 4978 (1993)
Using LibXC functional ID 134 : Perdew & Wang 91
[ 1]  J. P. Perdew. In P. Ziesche and H. Eschrig, editors, Proceedings of the 75. WE-Heraeus-Seminar and 21st Annual International Symposium on Electronic Structure of Solids, 11. Berlin, 1991. Akademie Verlag.
[ 2]  J. P. Perdew, J. A. Chevary, S. H. Vosko, K. A. Jackson, M. R. Pederson, D. J. Singh, and C. Fiolhais.,  Phys. Rev. B 46, 6671 (1992)
[ 3]  J. P. Perdew, J. A. Chevary, S. H. Vosko, K. A. Jackson, M. R. Pederson, D. J. Singh, and C. Fiolhais.,  Phys. Rev. B 48, 4978 (1993)
Your calculation utilizes LibXC
by S. Lehtola, C. Steigemann, M. J. T. Oliveira & M. A. L. Marques
Please cite in your paper:
Lehtola, S.; Steigemann, C.; Oliveira, M.J.T.; Marques, M. A. L. Software X, 7, (2018), 1.
   

================================================================================

----- Orbital basis set information -----
Your calculation utilizes the basis: def2-QZVP
   F. Weigend and R. Ahlrichs, Phys. Chem. Chem. Phys. 7, 3297 (2005).

================================================================================
                                        WARNINGS
                       Please study these warnings very carefully!
================================================================================


================================================================================
                                       INPUT FILE
================================================================================
NAME = /cluster/projects/nn14654k/ylvaos/basis_set_n_funcs/functionals/pw91/CH3COOH/inp/CH3COOH_pw91_def2qzvp.inp
|  1> ! dft def2-QZVP TightSCF
|  2> %pal nprocs 8 end
|  3> 
|  4> %loc
|  5>   LocMet NewBoys
|  6>   Occ true
|  7> end
|  8> 
|  9> %method
| 10>   exchange gga_x_pw91
| 11>   correlation gga_c_pw91
| 12> end
| 13> 
| 14> %elprop
| 15>   Dipole true
| 16>   Quadrupole true
| 17> end
| 18> 
| 19> * xyz 0 1
| 20> C    0.000000000000   0.154560000000   0.000000000000
| 21> C    1.073776000000  -0.892748000000   0.000000000000
| 22> O    0.166384000000   1.360084000000   0.000000000000
| 23> O   -1.236449000000  -0.415036000000   0.000000000000
| 24> H   -1.867646000000   0.333582000000   0.000000000000
| 25> H    2.048189000000  -0.408135000000   0.000000000000
| 26> H    0.968661000000  -1.528353000000   0.881747000000
| 27> H    0.968661000000  -1.528353000000  -0.881747000000
| 28> *
| 29> 
| 30> 
| 31>                          ****END OF INPUT****
================================================================================

                       ****************************
                       * Single Point Calculation *
                       ****************************

---------------------------------
CARTESIAN COORDINATES (ANGSTROEM)
---------------------------------
  C      0.000000    0.154560    0.000000
  C      1.073776   -0.892748    0.000000
  O      0.166384    1.360084    0.000000
  O     -1.236449   -0.415036    0.000000
  H     -1.867646    0.333582    0.000000
  H      2.048189   -0.408135    0.000000
  H      0.968661   -1.528353    0.881747
  H      0.968661   -1.528353   -0.881747

----------------------------
CARTESIAN COORDINATES (A.U.)
----------------------------
  NO LB      ZA    FRAG     MASS         X           Y           Z
   0 C     6.0000    0    12.011    0.000000    0.292076    0.000000
   1 C     6.0000    0    12.011    2.029143   -1.687049    0.000000
   2 O     8.0000    0    15.999    0.314420    2.570186    0.000000
   3 O     8.0000    0    15.999   -2.336550   -0.784304    0.000000
   4 H     1.0000    0     1.008   -3.529339    0.630379    0.000000
   5 H     1.0000    0     1.008    3.870516   -0.771263    0.000000
   6 H     1.0000    0     1.008    1.830504   -2.888169    1.666260
   7 H     1.0000    0     1.008    1.830504   -2.888169   -1.666260

--------------------------------
INTERNAL COORDINATES (ANGSTROEM)
--------------------------------
 C      0   0   0     0.000000000000     0.00000000     0.00000000
 C      1   0   0     1.499949647502     0.00000000     0.00000000
 O      1   2   0     1.216951827326   126.42686784     0.00000000
 O      1   2   3     1.361339683113   110.98078396   180.00000000
 H      4   1   2     0.979203024267   105.40175469   180.00000085
 H      2   1   3     1.088269476893   109.27200725     0.00000000
 H      2   1   3     1.092025938913   109.72406365   120.93315147
 H      2   1   3     1.092025938913   109.72406365   239.06684853

---------------------------
INTERNAL COORDINATES (A.U.)
---------------------------
 C      0   0   0     0.000000000000     0.00000000     0.00000000
 C      1   0   0     2.834494048450     0.00000000     0.00000000
 O      1   2   0     2.299705671821   126.42686784     0.00000000
 O      1   2   3     2.572559176322   110.98078396   180.00000000
 H      4   1   2     1.850425545371   105.40175469   180.00000085
 H      2   1   3     2.056531271234   109.27200725     0.00000000
 H      2   1   3     2.063629955684   109.72406365   120.93315147
 H      2   1   3     2.063629955684   109.72406365   239.06684853

---------------------
BASIS SET INFORMATION
---------------------
There are 3 groups of distinct atoms

 Group   1 Type C   : 15s8p3d2f1g contracted to 7s4p3d2f1g pattern {8211111/5111/111/11/1}
 Group   2 Type O   : 15s8p3d2f1g contracted to 7s4p3d2f1g pattern {8211111/5111/111/11/1}
 Group   3 Type H   : 7s3p2d1f contracted to 4s3p2d1f pattern {4111/111/11/1}

Atom   0C    basis set group =>   1
Atom   1C    basis set group =>   1
Atom   2O    basis set group =>   2
Atom   3O    basis set group =>   2
Atom   4H    basis set group =>   3
Atom   5H    basis set group =>   3
Atom   6H    basis set group =>   3
Atom   7H    basis set group =>   3


           ************************************************************
           *        Program running with 8 parallel MPI-processes     *
           *              working on a common directory               *
           ************************************************************
------------------------------------------------------------------------------
                             ORCA STARTUP CALCULATIONS
------------------------------------------------------------------------------
------------------------------------------------------------------------------
                   ___                                                        
                  /   \      - P O W E R E D   B Y -                         
                 /     \                                                     
                 |  |  |   _    _      __       _____    __    __             
                 |  |  |  | |  | |    /  \     |  _  \  |  |  /  |          
                  \  \/   | |  | |   /    \    | | | |  |  | /  /          
                 / \  \   | |__| |  /  /\  \   | |_| |  |  |/  /          
                |  |  |   |  __  | /  /__\  \  |    /   |      \           
                |  |  |   | |  | | |   __   |  |    \   |  |\   \          
                \     /   | |  | | |  |  |  |  | |\  \  |  | \   \       
                 \___/    |_|  |_| |__|  |__|  |_| \__\ |__|  \__/        
                                                                              
                      - O R C A' S   B I G   F R I E N D -                    
                                      &                                       
                       - I N T E G R A L  F E E D E R -                       
                                                                              
 v1 FN, 2020, v2 2021, v3 2022-2024                                           
------------------------------------------------------------------------------


----------------------
SHARK INTEGRAL PACKAGE
----------------------

Number of atoms                             ...      8
Number of basis functions                   ...    348
Number of shells                            ...    108
Maximum angular momentum                    ...      4
Integral batch strategy                     ... SHARK/LIBINT Hybrid
RI-J (if used) integral strategy            ... SPLIT-RIJ (Revised 2003 algorithm where possible)
Printlevel                                  ...      1
Contraction scheme used                     ... SEGMENTED contraction
Prescreening option                         ... SCHWARTZ
   Thresh                                   ... 2.500e-11
   Tcut                                     ... 2.500e-12
   Tpresel                                  ... 2.500e-12 
Coulomb Range Separation                    ... NOT USED
Exchange Range Separation                   ... NOT USED
Multipole approximations                    ... NOT USED
Finite Nucleus Model                        ... NOT USED
CABS basis                                  ... NOT available
Auxiliary Coulomb fitting basis             ... NOT available
Auxiliary J/K fitting basis                 ... NOT available
Auxiliary Correlation fitting basis         ... NOT available
Auxiliary 'external' fitting basis          ... NOT available

Checking pre-screening integrals            ... done (  0.0 sec) Dimension = 108
   => SHARK Basis and OBASIS are compatible. Storing Pre-screening
Shell pair information
Shell pair cut-off parameter TPreSel        ...   2.5e-12
Total number of shell pairs                 ...      5886
Shell pairs after pre-screening             ...      5532
Total number of primitive shell pairs       ...     14376
Primitive shell pairs kept                  ...     11125
          la=0 lb=0:    878 shell pairs
          la=1 lb=0:   1160 shell pairs
          la=1 lb=1:    398 shell pairs
          la=2 lb=0:    815 shell pairs
          la=2 lb=1:    542 shell pairs
          la=2 lb=2:    202 shell pairs
          la=3 lb=0:    486 shell pairs
          la=3 lb=1:    327 shell pairs
          la=3 lb=2:    228 shell pairs
          la=3 lb=3:     77 shell pairs
          la=4 lb=0:    173 shell pairs
          la=4 lb=1:    109 shell pairs
          la=4 lb=2:     79 shell pairs
          la=4 lb=3:     48 shell pairs
          la=4 lb=4:     10 shell pairs

Checking whether 4 symmetric matrices of dimension 348 fit in memory
:Max Core in MB      =   4096.00
 MB in use           =     10.31
 MB left             =   4085.69
 MB needed           =      1.85
 Data fit in memory  = YES
Calculating Nuclear repulsion               ... done (  0.0 sec) ENN=    120.693288504615 Eh

Diagonalization of the overlap matrix:
Smallest eigenvalue                        ... 8.147e-05
Time for diagonalization                   ...    0.008 sec
Threshold for overlap eigenvalues          ... 1.000e-07
Number of eigenvalues below threshold      ... 0
Time for construction of square roots      ...    0.005 sec
Total time needed                          ...    0.015 sec

-------------------
DFT GRID GENERATION
-------------------

General Integration Accuracy     IntAcc      ... 4.388
Radial Grid Type                 RadialGrid  ... OptM3 with GC (2021)
Angular Grid (max. ang.)         AngularGrid ... 4 (Lebedev-302)
Angular grid pruning method      GridPruning ... 4 (adaptive)
Weight generation scheme         WeightScheme... mBecke (2022)
Basis function cutoff            BFCut       ... 1.0000e-11
Integration weight cutoff        WCut        ... 1.0000e-14
Partially contracted basis set               ... off
Rotationally invariant grid construction     ... off
Angular grids for H and He will be reduced by one unit
Diffuse basis detected: some atoms will have their outermost
                        angular grid increased by 1.

Total number of grid points                  ...    38610
Total number of batches                      ...      606
Average number of points per batch           ...       63
Average number of grid points per atom       ...     4826
Grids setup in   0.1 sec
Initializing property integral containers    ... done (  0.0 sec)

SHARK setup successfully completed in   0.4 seconds

Maximum memory used throughout the entire STARTUP-calculation: 26.1 MB


           ************************************************************
           *        Program running with 8 parallel MPI-processes     *
           *              working on a common directory               *
           ************************************************************
-------------------------------------------------------------------------------
                                 ORCA GUESS
                   Start orbitals & Density for SCF / CASSCF
-------------------------------------------------------------------------------

------------
SCF SETTINGS
------------
Hamiltonian:
 Density Functional     Method          .... DFT(GTOs)
  Functional kind                       .... Exchange
  Functional name                       .... Perdew & Wang 91
  Functional family                     .... GGA
  Functional refs                              
    [ 0] J. P. Perdew. In P. Ziesche and H. Eschrig, editors, Proceedings of the 75. WE-Heraeus-Seminar and 21st Annual International Symposium on Electronic Structure of Solids, 11. Berlin, 1991. Akademie Verlag.
    [ 1] J. P. Perdew, J. A. Chevary, S. H. Vosko, K. A. Jackson, M. R. Pederson, D. J. Singh, and C. Fiolhais.,  Phys. Rev. B 46, 6671 (1992), doi: 10.1103/PhysRevB.46.6671
    [ 2] J. P. Perdew, J. A. Chevary, S. H. Vosko, K. A. Jackson, M. R. Pederson, D. J. Singh, and C. Fiolhais.,  Phys. Rev. B 48, 4978 (1993), doi: 10.1103/PhysRevB.48.4978.2
  Functional external parameters        .... 7
    Parameter  0 _a         =  1.964500e-01 : a parameter         
    Parameter  1 _b         =  7.795600e+00 : b parameter         
    Parameter  2 _c         =  2.743000e-01 : c parameter         
    Parameter  3 _d         = -1.508000e-01 : d parameter         
    Parameter  4 _f         =  4.000000e-03 : f parameter         
    Parameter  5 _alpha     =  1.000000e+02 : alpha parameter     
    Parameter  6 _expo      =  4.000000e+00 : exponent            
  Functional kind                       .... Correlation
  Functional name                       .... Perdew & Wang 91
  Functional family                     .... GGA
  Functional refs                              
    [ 0] J. P. Perdew. In P. Ziesche and H. Eschrig, editors, Proceedings of the 75. WE-Heraeus-Seminar and 21st Annual International Symposium on Electronic Structure of Solids, 11. Berlin, 1991. Akademie Verlag.
    [ 1] J. P. Perdew, J. A. Chevary, S. H. Vosko, K. A. Jackson, M. R. Pederson, D. J. Singh, and C. Fiolhais.,  Phys. Rev. B 46, 6671 (1992), doi: 10.1103/PhysRevB.46.6671
    [ 2] J. P. Perdew, J. A. Chevary, S. H. Vosko, K. A. Jackson, M. R. Pederson, D. J. Singh, and C. Fiolhais.,  Phys. Rev. B 48, 4978 (1993), doi: 10.1103/PhysRevB.48.4978.2
  Functional external parameters        .... 0
 Gradients option       PostSCFGGA      .... off


General Settings:
 Integral files         IntName         .... /cluster/projects/nn14654k/ylvaos/basis_set_n_funcs/functionals/pw91/CH3COOH/inp/CH3COOH_pw91_def2qzvp
 Hartree-Fock type      HFTyp           .... RHF
 Total Charge           Charge          ....    0
 Multiplicity           Mult            ....    1
 Number of Electrons    NEL             ....   32
 Basis Dimension        Dim             ....  348
 Nuclear Repulsion      ENuc            ....    120.6932885046 Eh

Convergence Acceleration:
 AO-DIIS                CNVDIIS         .... on
   Start iteration      DIISMaxIt       ....    12
   Startup error        DIISStart       ....  0.200000
   # of expansion vecs  DIISMaxEq       ....     5
   Bias factor          DIISBfac        ....   1.050
   Max. coefficient     DIISMaxC        ....  10.000
 MO-DIIS                CNVKDIIS        .... off
 Trust-Rad. Augm. Hess. CNVTRAH         .... auto
   Auto Start mean grad. ratio tolernc. ....  1.125000
   Auto Start start iteration           ....    50
   Auto Start num. interpolation iter.  ....    10
   Max. Number of Micro iterations      ....    24
   Max. Number of Macro iterations      .... Maxiter - #DIIS iter
   Number of Davidson start vectors     ....     2
   Converg. threshold    (grad. norm)   ....   1.000e-05
   Grad. Scal. Fac. for Micro threshold ....   0.100
   Minimum threshold for Micro iter.    ....   1.000e-02
   NR start threshold (gradient norm)   ....   1.000e-04
   Initial trust radius                 ....   0.400
   Minimum AH scaling param. (alpha)    ....   1.000
   Maximum AH scaling param. (alpha)    .... 1000.000
   Quad. conv. algorithm                .... NR
   White noise on init. David. guess    .... on
   Maximum white noise                  ....   0.010
   Pseudo random numbers                .... off
   Inactive MOs                         .... canonical
   Orbital update algorithm             .... Taylor
   Preconditioner                       .... Diag
   Full preconditioner red. dimension   ....   250
 SOSCF                 CNVSOSCF           .... on
   Start iteration     SOSCFMaxIt         ....   150
   Startup grad/error  SOSCFStart         ....  0.003300
   Hessian update      SOSCFHessUp        .... L-BFGS
   Autom. constraints  SOSCFAutoConstrain .... off
 Level Shifting         CNVShift        .... on
   Level shift para.    LevelShift      ....    0.2500
   Turn off err/grad.   ShiftErr        ....    0.0010
 Zerner damping         CNVZerner       .... off
 Static damping         CNVDamp         .... on
   Fraction old density DampFac         ....    0.7000
   Max. Damping (<1)    DampMax         ....    0.9800
   Min. Damping (>=0)   DampMin         ....    0.0000
   Turn off err/grad.   DampErr         ....    0.1000

SCF Procedure:
 Maximum # iterations   MaxIter         ....   125
 SCF integral mode      SCFMode         .... Direct
   Integral package                     .... SHARK and LIBINT hybrid scheme
 Reset frequency        DirectResetFreq ....    20
 Integral Threshold     Thresh          ....  2.500e-11 Eh
 Primitive CutOff       TCut            ....  2.500e-12 Eh

Convergence Tolerance:
 Convergence Check Mode ConvCheckMode   .... Total+1el-Energy
 Convergence forced     ConvForced      .... 0
 Energy Change          TolE            ....  1.000e-08 Eh
 1-El. energy change                    ....  1.000e-05 Eh
 Orbital Gradient       TolG            ....  1.000e-05
 Orbital Rotation angle TolX            ....  1.000e-05
 DIIS Error             TolErr          ....  5.000e-07

------------------------------
INITIAL GUESS: MODEL POTENTIAL
------------------------------
Loading Hartree-Fock densities                     ... done
Calculating cut-offs                               ... done
Initializing the effective Hamiltonian             ... done
Setting up the integral package (SHARK)            ... done
Starting the Coulomb interaction                   ... done (   0.0 sec)
Making the grid                                    ... done (   0.0 sec)
Mapping shells                                     ... done
Starting the XC term evaluation                    ... done (   0.0 sec)
  promolecular density results
     # of electrons  =     31.997023257
     EX              =    -27.798976090
     EC              =     -1.130851364
     EX+EC           =    -28.929827453
Transforming the Hamiltonian                       ... done (   0.0 sec)
Diagonalizing the Hamiltonian                      ... done (   0.0 sec)
Back transforming the eigenvectors                 ... done (   0.0 sec)
Now organizing SCF variables                       ... done
                      ------------------
                      INITIAL GUESS DONE (   0.1 sec)
                      ------------------
             **** ENERGY FILE WAS UPDATED (/cluster/projects/nn14654k/ylvaos/basis_set_n_funcs/functionals/pw91/CH3COOH/inp/CH3COOH_pw91_def2qzvp.en.tmp) ****
Finished Guess after   0.2 sec
Maximum memory used throughout the entire GUESS-calculation: 19.9 MB


           ************************************************************
           *        Program running with 8 parallel MPI-processes     *
           *              working on a common directory               *
           ************************************************************

-------------------------------------------------------------------------------------------
                                      ORCA LEAN-SCF
                              memory conserving SCF solver
-------------------------------------------------------------------------------------------

----------------------------------------D-I-I-S--------------------------------------------
Iteration    Energy (Eh)           Delta-E    RMSDP     MaxDP     DIISErr   Damp  Time(sec)
-------------------------------------------------------------------------------------------
               ***  Starting incremental Fock matrix formation  ***
    1    -228.9430640320429688     0.00e+00  2.78e-03  4.49e-02  3.05e-01  0.700   3.0
    2    -229.0392198272829205    -9.62e-02  1.93e-03  3.95e-02  9.26e-02  0.700   2.8
                               ***Turning on AO-DIIS***
    3    -229.0645039396444531    -2.53e-02  7.36e-04  1.43e-02  3.05e-02  0.700   2.7
    4    -229.0829354867558436    -1.84e-02  1.01e-03  1.76e-02  2.19e-02  0.000   2.6
    5    -229.1268267261407914    -4.39e-02  4.80e-04  1.17e-02  1.33e-02  0.000   2.7
    6    -229.1273526681803219    -5.26e-04  1.86e-04  4.20e-03  3.94e-03  0.000   2.8
                              *** Initializing SOSCF ***
---------------------------------------S-O-S-C-F--------------------------------------
Iteration    Energy (Eh)           Delta-E    RMSDP     MaxDP     MaxGrad    Time(sec)
--------------------------------------------------------------------------------------
    7    -229.1273898301550389    -3.72e-05  8.61e-05  1.94e-03  2.20e-03     2.6
               *** Restarting incremental Fock matrix formation ***
    8    -229.1273995360329536    -9.71e-06  6.21e-05  8.66e-04  1.73e-04     2.9
    9    -229.1273981437257135     1.39e-06  2.75e-05  5.29e-04  5.01e-04     2.3
   10    -229.1274003594969599    -2.22e-06  2.61e-05  5.71e-04  1.57e-04     2.2
   11    -229.1274000674375202     2.92e-07  6.61e-06  1.04e-04  1.69e-04     2.2
   12    -229.1274005221793573    -4.55e-07  8.55e-06  1.90e-04  2.40e-05     2.1
   13    -229.1274005187918306     3.39e-09  3.29e-06  7.26e-05  1.87e-05     2.0
                 **** Energy Check signals convergence ****

               *****************************************************
               *                     SUCCESS                       *
               *           SCF CONVERGED AFTER  13 CYCLES          *
               *****************************************************

             **** ENERGY FILE WAS UPDATED (/cluster/projects/nn14654k/ylvaos/basis_set_n_funcs/functionals/pw91/CH3COOH/inp/CH3COOH_pw91_def2qzvp.en.tmp) ****

----------------
TOTAL SCF ENERGY
----------------

Total Energy       :       -229.12740053403729 Eh           -6234.87354 eV

Components:
Nuclear Repulsion  :        120.69328850461517 Eh            3284.23135 eV
Electronic Energy  :       -349.82068903865252 Eh           -9519.10489 eV
One Electron Energy:       -551.29671973276800 Eh          -15001.54641 eV
Two Electron Energy:        201.47603069411551 Eh            5482.44152 eV

Virial components:
Potential Energy   :       -457.31273788988102 Eh          -12444.11224 eV
Kinetic Energy     :        228.18533735584373 Eh            6209.23870 eV
Virial Ratio       :          2.00412850005662

DFT components:
N(Alpha)           :       15.999983964751 electrons
N(Beta)            :       15.999983964751 electrons
N(Total)           :       31.999967929503 electrons
E(X)               :      -28.293530793825 Eh       
E(C)               :       -1.138272013286 Eh       
E(XC)              :      -29.431802807111 Eh       

---------------
SCF CONVERGENCE
---------------

  Last Energy change         ...   -3.3875e-09  Tolerance :   1.0000e-08
  Last MAX-Density change    ...    7.2594e-05  Tolerance :   1.0000e-07
  Last RMS-Density change    ...    3.2869e-06  Tolerance :   5.0000e-09
  Last DIIS Error            ...    2.1970e-03  Tolerance :   5.0000e-07
  Last Orbital Gradient      ...    1.8650e-05  Tolerance :   1.0000e-05
  Last Orbital Rotation      ...    3.2775e-05  Tolerance :   1.0000e-05


----------------
ORBITAL ENERGIES
----------------

  NO   OCC          E(Eh)            E(eV) 
   0   2.0000     -18.819010      -512.0913 
   1   2.0000     -18.760498      -510.4991 
   2   2.0000     -10.032073      -272.9866 
   3   2.0000      -9.914739      -269.7938 
   4   2.0000      -1.021006       -27.7830 
   5   2.0000      -0.934036       -25.4164 
   6   2.0000      -0.698029       -18.9943 
   7   2.0000      -0.560215       -15.2442 
   8   2.0000      -0.445277       -12.1166 
   9   2.0000      -0.431840       -11.7510 
  10   2.0000      -0.429520       -11.6878 
  11   2.0000      -0.373478       -10.1629 
  12   2.0000      -0.355767        -9.6809 
  13   2.0000      -0.355711        -9.6794 
  14   2.0000      -0.290443        -7.9034 
  15   2.0000      -0.242092        -6.5877 
  16   0.0000      -0.045647        -1.2421 
  17   0.0000      -0.013804        -0.3756 
  18   0.0000       0.013351         0.3633 
  19   0.0000       0.057007         1.5513 
  20   0.0000       0.060355         1.6423 
  21   0.0000       0.068953         1.8763 
  22   0.0000       0.102817         2.7978 
  23   0.0000       0.110476         3.0062 
  24   0.0000       0.127864         3.4793 
  25   0.0000       0.132974         3.6184 
  26   0.0000       0.142444         3.8761 
*Only the first 10 virtual orbitals were printed.

                    ********************************
                    * MULLIKEN POPULATION ANALYSIS *
                    ********************************

-----------------------
MULLIKEN ATOMIC CHARGES
-----------------------
   0 C :    0.315577
   1 C :   -0.141480
   2 O :   -0.360771
   3 O :   -0.278507
   4 H :    0.215997
   5 H :    0.092533
   6 H :    0.078325
   7 H :    0.078325
Sum of atomic charges:    0.0000000

--------------------------------
MULLIKEN REDUCED ORBITAL CHARGES
--------------------------------
  0 C s       :     3.122208  s :     3.122208
      pz      :     0.760263  p :     2.314896
      px      :     0.764594
      py      :     0.790039
      dz2     :     0.014726  d :     0.214434
      dxz     :     0.033549
      dyz     :     0.051529
      dx2y2   :     0.049741
      dxy     :     0.064889
      f0      :     0.002212  f :     0.029093
      f+1     :     0.001013
      f-1     :     0.001040
      f+2     :     0.004525
      f-2     :     0.003123
      f+3     :     0.011817
      f-3     :     0.005363
      g0      :     0.000125  g :     0.003793
      g+1     :     0.000283
      g-1     :     0.000489
      g+2     :     0.000265
      g-2     :     0.000275
      g+3     :     0.000097
      g-3     :     0.000456
      g+4     :     0.000807
      g-4     :     0.000996

  1 C s       :     3.341376  s :     3.341376
      pz      :     0.939398  p :     2.759989
      px      :     0.915299
      py      :     0.905292
      dz2     :     0.003800  d :     0.033614
      dxz     :     0.009675
      dyz     :     0.007953
      dx2y2   :     0.008583
      dxy     :     0.003603
      f0      :     0.000696  f :     0.006291
      f+1     :     0.000365
      f-1     :     0.001723
      f+2     :    -0.000303
      f-2     :     0.001117
      f+3     :     0.000962
      f-3     :     0.001731
      g0      :    -0.000006  g :     0.000210
      g+1     :     0.000032
      g-1     :    -0.000038
      g+2     :     0.000092
      g-2     :     0.000004
      g+3     :     0.000011
      g-3     :     0.000013
      g+4     :     0.000082
      g-4     :     0.000020

  2 O s       :     3.765731  s :     3.765731
      pz      :     1.394296  p :     4.550754
      px      :     1.790668
      py      :     1.365790
      dz2     :     0.003430  d :     0.040225
      dxz     :     0.000581
      dyz     :     0.014246
      dx2y2   :     0.010090
      dxy     :     0.011878
      f0      :     0.000482  f :     0.003866
      f+1     :     0.000078
      f-1     :     0.000317
      f+2     :     0.000897
      f-2     :     0.000114
      f+3     :     0.001157
      f-3     :     0.000822
      g0      :     0.000010  g :     0.000195
      g+1     :     0.000001
      g-1     :     0.000041
      g+2     :     0.000021
      g-2     :     0.000009
      g+3     :     0.000005
      g-3     :     0.000026
      g+4     :     0.000039
      g-4     :     0.000044

  3 O s       :     3.742480  s :     3.742480
      pz      :     1.724274  p :     4.502307
      px      :     1.238445
      py      :     1.539588
      dz2     :     0.004265  d :     0.030869
      dxz     :     0.005113
      dyz     :     0.003545
      dx2y2   :     0.006958
      dxy     :     0.010987
      f0      :     0.000452  f :     0.002732
      f+1     :     0.000483
      f-1     :     0.000237
      f+2     :     0.000202
      f-2     :     0.000306
      f+3     :     0.000483
      f-3     :     0.000569
      g0      :     0.000008  g :     0.000120
      g+1     :     0.000014
      g-1     :     0.000005
      g+2     :     0.000010
      g-2     :     0.000011
      g+3     :     0.000001
      g-3     :     0.000012
      g+4     :     0.000028
      g-4     :     0.000031

  4 H s       :     0.688979  s :     0.688979
      pz      :     0.034495  p :     0.080092
      px      :     0.018492
      py      :     0.027105
      dz2     :     0.000360  d :     0.013393
      dxz     :     0.002758
      dyz     :     0.004016
      dx2y2   :     0.004096
      dxy     :     0.002164
      f0      :     0.000256  f :     0.001538
      f+1     :     0.000063
      f-1     :     0.000067
      f+2     :     0.000010
      f-2     :     0.000441
      f+3     :     0.000226
      f-3     :     0.000475

  5 H s       :     0.871029  s :     0.871029
      pz      :     0.015555  p :     0.030998
      px      :     0.004090
      py      :     0.011353
      dz2     :     0.000070  d :     0.005130
      dxz     :     0.002093
      dyz     :     0.000670
      dx2y2   :     0.001456
      dxy     :     0.000841
      f0      :     0.000065  f :     0.000309
      f+1     :    -0.000001
      f-1     :     0.000002
      f+2     :     0.000040
      f-2     :     0.000076
      f+3     :     0.000133
      f-3     :    -0.000005

  6 H s       :     0.881208  s :     0.881208
      pz      :     0.008717  p :     0.034560
      px      :     0.014278
      py      :     0.011564
      dz2     :     0.001880  d :     0.005582
      dxz     :     0.001421
      dyz     :     0.000599
      dx2y2   :     0.000635
      dxy     :     0.001046
      f0      :     0.000124  f :     0.000326
      f+1     :     0.000036
      f-1     :     0.000007
      f+2     :     0.000030
      f-2     :     0.000090
      f+3     :     0.000023
      f-3     :     0.000016

  7 H s       :     0.881208  s :     0.881208
      pz      :     0.008717  p :     0.034560
      px      :     0.014278
      py      :     0.011564
      dz2     :     0.001880  d :     0.005582
      dxz     :     0.001421
      dyz     :     0.000599
      dx2y2   :     0.000635
      dxy     :     0.001046
      f0      :     0.000124  f :     0.000326
      f+1     :     0.000036
      f-1     :     0.000007
      f+2     :     0.000030
      f-2     :     0.000090
      f+3     :     0.000023
      f-3     :     0.000016



                     *******************************
                     * LOEWDIN POPULATION ANALYSIS *
                     *******************************

----------------------
LOEWDIN ATOMIC CHARGES
----------------------
   0 C :   -0.774932
   1 C :    0.222707
   2 O :    0.321485
   3 O :    0.686131
   4 H :   -0.310399
   5 H :   -0.050112
   6 H :   -0.047440
   7 H :   -0.047440

-------------------------------
LOEWDIN REDUCED ORBITAL CHARGES
-------------------------------
  0 C s       :     2.643310  s :     2.643310
      pz      :     0.701445  p :     2.626095
      px      :     0.879051
      py      :     1.045599
      dz2     :     0.084062  d :     1.122876
      dxz     :     0.125375
      dyz     :     0.193937
      dx2y2   :     0.316126
      dxy     :     0.403376
      f0      :     0.017513  f :     0.336577
      f+1     :     0.015443
      f-1     :     0.022085
      f+2     :     0.048876
      f-2     :     0.029484
      f+3     :     0.129268
      f-3     :     0.073907
      g0      :     0.001422  g :     0.046074
      g+1     :     0.003839
      g-1     :     0.007936
      g+2     :     0.004131
      g-2     :     0.005018
      g+3     :     0.000703
      g-3     :     0.003619
      g+4     :     0.009139
      g-4     :     0.010267

  1 C s       :     2.560799  s :     2.560799
      pz      :     0.940746  p :     2.801596
      px      :     0.928785
      py      :     0.932065
      dz2     :     0.061269  d :     0.338960
      dxz     :     0.021671
      dyz     :     0.088408
      dx2y2   :     0.075199
      dxy     :     0.092412
      f0      :     0.004933  f :     0.071819
      f+1     :     0.008763
      f-1     :     0.011951
      f+2     :     0.007525
      f-2     :     0.008267
      f+3     :     0.013936
      f-3     :     0.016444
      g0      :     0.000186  g :     0.004119
      g+1     :     0.000343
      g-1     :     0.000389
      g+2     :     0.000554
      g-2     :     0.000309
      g+3     :     0.000298
      g-3     :     0.000331
      g+4     :     0.000549
      g-4     :     0.001160

  2 O s       :     3.272998  s :     3.272998
      pz      :     1.263148  p :     4.287263
      px      :     1.532653
      py      :     1.491462
      dz2     :     0.010773  d :     0.095789
      dxz     :     0.001230
      dyz     :     0.019686
      dx2y2   :     0.032548
      dxy     :     0.031552
      f0      :     0.001870  f :     0.021247
      f+1     :     0.000594
      f-1     :     0.002505
      f+2     :     0.002905
      f-2     :     0.000564
      f+3     :     0.007507
      f-3     :     0.005302
      g0      :     0.000057  g :     0.001218
      g+1     :     0.000004
      g-1     :     0.000165
      g+2     :     0.000118
      g-2     :     0.000084
      g+3     :     0.000026
      g-3     :     0.000101
      g+4     :     0.000272
      g-4     :     0.000392

  3 O s       :     3.056694  s :     3.056694
      pz      :     1.446731  p :     4.118060
      px      :     1.227514
      py      :     1.443815
      dz2     :     0.014713  d :     0.117562
      dxz     :     0.014784
      dyz     :     0.005461
      dx2y2   :     0.032977
      dxy     :     0.049626
      f0      :     0.001560  f :     0.020839
      f+1     :     0.002058
      f-1     :     0.000903
      f+2     :     0.000704
      f-2     :     0.002329
      f+3     :     0.007857
      f-3     :     0.005428
      g0      :     0.000042  g :     0.000715
      g+1     :     0.000096
      g-1     :     0.000053
      g+2     :     0.000091
      g-2     :     0.000099
      g+3     :     0.000037
      g-3     :     0.000077
      g+4     :     0.000198
      g-4     :     0.000024

  4 H s       :     0.677371  s :     0.677371
      pz      :     0.108814  p :     0.406927
      px      :     0.118011
      py      :     0.180101
      dz2     :     0.015378  d :     0.188108
      dxz     :     0.026799
      dyz     :     0.037793
      dx2y2   :     0.064138
      dxy     :     0.044000
      f0      :     0.005544  f :     0.037993
      f+1     :     0.001958
      f-1     :     0.002266
      f+2     :     0.000235
      f-2     :     0.009279
      f+3     :     0.008450
      f-3     :     0.010262

  5 H s       :     0.781089  s :     0.781089
      pz      :     0.054080  p :     0.191825
      px      :     0.080726
      py      :     0.057019
      dz2     :     0.004510  d :     0.067623
      dxz     :     0.018239
      dyz     :     0.006869
      dx2y2   :     0.020499
      dxy     :     0.017506
      f0      :     0.001227  f :     0.009575
      f+1     :     0.001019
      f-1     :     0.000321
      f+2     :     0.000541
      f-2     :     0.001570
      f+3     :     0.002973
      f-3     :     0.001924

  6 H s       :     0.773589  s :     0.773589
      pz      :     0.076897  p :     0.196832
      px      :     0.052026
      py      :     0.067909
      dz2     :     0.022261  d :     0.067581
      dxz     :     0.013553
      dyz     :     0.014963
      dx2y2   :     0.006434
      dxy     :     0.010370
      f0      :     0.002578  f :     0.009438
      f+1     :     0.000741
      f-1     :     0.001964
      f+2     :     0.001445
      f-2     :     0.001936
      f+3     :     0.000487
      f-3     :     0.000288

  7 H s       :     0.773589  s :     0.773589
      pz      :     0.076897  p :     0.196832
      px      :     0.052026
      py      :     0.067909
      dz2     :     0.022261  d :     0.067581
      dxz     :     0.013553
      dyz     :     0.014963
      dx2y2   :     0.006434
      dxy     :     0.010370
      f0      :     0.002578  f :     0.009438
      f+1     :     0.000741
      f-1     :     0.001964
      f+2     :     0.001445
      f-2     :     0.001936
      f+3     :     0.000487
      f-3     :     0.000288



                      *****************************
                      * MAYER POPULATION ANALYSIS *
                      *****************************

  NA   - Mulliken gross atomic population
  ZA   - Total nuclear charge
  QA   - Mulliken gross atomic charge
  VA   - Mayer's total valence
  BVA  - Mayer's bonded valence
  FA   - Mayer's free valence

  ATOM       NA         ZA         QA         VA         BVA        FA
  0 C      5.6844     6.0000     0.3156     4.2602     4.2602    -0.0000
  1 C      6.1415     6.0000    -0.1415     3.7650     3.7650     0.0000
  2 O      8.3608     8.0000    -0.3608     2.1912     2.1912     0.0000
  3 O      8.2785     8.0000    -0.2785     2.2401     2.2401     0.0000
  4 H      0.7840     1.0000     0.2160     1.0490     1.0490    -0.0000
  5 H      0.9075     1.0000     0.0925     1.0085     1.0085    -0.0000
  6 H      0.9217     1.0000     0.0783     1.0028     1.0028     0.0000
  7 H      0.9217     1.0000     0.0783     1.0028     1.0028    -0.0000

  Mayer bond orders larger than 0.100000
B(  0-C ,  1-C ) :   0.9292 B(  0-C ,  2-O ) :   2.0514 B(  0-C ,  3-O ) :   1.2126 
B(  1-C ,  5-H ) :   0.9554 B(  1-C ,  6-H ) :   0.9316 B(  1-C ,  7-H ) :   0.9316 
B(  3-O ,  4-H ) :   0.9657 

-------
TIMINGS
-------

Total SCF time: 0 days 0 hours 0 min 35 sec 

Total time                  ....      35.390 sec
Sum of individual times     ....      33.340 sec  ( 94.2%)

SCF preparation             ....       0.347 sec  (  1.0%)
Fock matrix formation       ....      32.310 sec  ( 91.3%)
  Startup                   ....       0.012 sec  (  0.0% of F)
  Coulomb formation         ....      32.780 sec  (101.5% of F)
  XC integration            ....       1.158 sec  (  3.6% of F)
    XC Preparation          ....       0.000 sec  (  0.0% of XC)
    Basis function eval.    ....       0.162 sec  ( 14.0% of XC)
    Density eval.           ....       0.182 sec  ( 15.7% of XC)
    XC-Functional eval.     ....       0.053 sec  (  4.6% of XC)
    XC-Potential eval.      ....       0.484 sec  ( 41.8% of XC)
Diagonalization             ....       0.000 sec  (  0.0%)
Density matrix formation    ....       0.133 sec  (  0.4%)
Total Energy calculation    ....       0.026 sec  (  0.1%)
Population analysis         ....       0.020 sec  (  0.1%)
Orbital Transformation      ....       0.041 sec  (  0.1%)
Orbital Orthonormalization  ....       0.000 sec  (  0.0%)
DIIS solution               ....       0.340 sec  (  1.0%)
SOSCF solution              ....       0.123 sec  (  0.3%)
Finished LeanSCF after  35.4 sec

Maximum memory used throughout the entire LEANSCF-calculation: 35.0 MB


           ************************************************************
           *        Program running with 8 parallel MPI-processes     *
           *              working on a common directory               *
           ************************************************************

------------------------------------------------------------------------------
                         ORCA PROPERTY INTEGRAL CALCULATIONS
------------------------------------------------------------------------------

GBWName                                   ... /cluster/projects/nn14654k/ylvaos/basis_set_n_funcs/functionals/pw91/CH3COOH/inp/CH3COOH_pw91_def2qzvp.gbw
Number of atoms                           ...      8
Number of basis functions                 ...    348
Max core memory                           ...   4096 MB

Dipole integrals                          ... YES
Quadrupole integrals                      ... YES
Linear momentum integrals                 ...  NO
Angular momentum integrals                ...  NO
Higher moments length integrals           ...  NO
Higher moments velocity integrals         ...  NO
Kinetic energy integrals                  ...  NO
GIAO right hand sides                     ...  NO
GIAO dipole derivative integrals          ...  NO
SOC integrals                             ...  NO
EPR diamagnetic integrals (GIAO)          ...  NO
EPR gauge integrals                       ...  NO
Field gradient integrals                  ...  NO (   0 nuclei)
Spin-dipole/Fermi contact integrals       ...  NO (   0 nuclei)
Contact density integrals                 ...  NO (   0 nuclei)
Nucleus-orbit integrals                   ...  NO (   0 nuclei)
Geometric perturbations                   ...  NO (   8 nuclei)

Choice of electric origin   ... Center of mass
Position of electric origin ... ( -0.0657,  0.0975,  0.0000) 
Choice of magnetic origin   ... GIAO
Position of magnetic origin ... (  0.0000,  0.0000,  0.0000) 

Calculating integrals                     ... Electric Dipole (Length)     done (  0.0 sec)
Calculating integrals                     ... Electric Quadrupole (Length) done (  0.0 sec)

Property integrals calculated in   0.0 sec

Maximum memory used throughout the entire PROPINT-calculation: 22.2 MB
------------------------------------------------------------------------------
                           ORCA ORBITAL LOCALIZATION
------------------------------------------------------------------------------

Input orbitals are from                  ... /cluster/projects/nn14654k/ylvaos/basis_set_n_funcs/functionals/pw91/CH3COOH/inp/CH3COOH_pw91_def2qzvp.gbw
Output orbitals are to                   ... /cluster/projects/nn14654k/ylvaos/basis_set_n_funcs/functionals/pw91/CH3COOH/inp/CH3COOH_pw91_def2qzvp.loc
Max. number of iterations                ... 128
Localizations seeded randomly            ... on
Convergence tolerance                    ... 1.000e-06
Threshold for strong local MOs           ... 9.500e-01
Threshold for bond MOs                   ... 8.500e-01
Operator                                 ... 0
Orbital range for localization           ... 4 to 15
Localization criterion                   ... NEW-BOYS
Doing the dipole integrals               ... o.k.
Initial value of the localization sum :    58.582126
ITERATION   0 : L=   79.1710369950 DL=  2.06e+01 (AVERGE_DL)=    0.5585277047 
ITERATION   1 : L=   80.8998399953 DL=  1.73e+00 (AVERGE_DL)=    0.1618455586 
ITERATION   2 : L=   80.9162922533 DL=  1.65e-02 (AVERGE_DL)=    0.0157884969 
ITERATION   3 : L=   80.9186923419 DL=  2.40e-03 (AVERGE_DL)=    0.0060303383 
ITERATION   4 : L=   80.9206530711 DL=  1.96e-03 (AVERGE_DL)=    0.0054505062 
ITERATION   5 : L=   80.9224614557 DL=  1.81e-03 (AVERGE_DL)=    0.0052344786 
ITERATION   6 : L=   80.9240294714 DL=  1.57e-03 (AVERGE_DL)=    0.0048741988 
ITERATION   7 : L=   80.9252677580 DL=  1.24e-03 (AVERGE_DL)=    0.0043315030 
ITERATION   8 : L=   80.9261755091 DL=  9.08e-04 (AVERGE_DL)=    0.0037086122 
ITERATION   9 : L=   80.9268049452 DL=  6.29e-04 (AVERGE_DL)=    0.0030881889 
ITERATION  10 : L=   80.9272247338 DL=  4.20e-04 (AVERGE_DL)=    0.0025219899 
ITERATION  11 : L=   80.9274974333 DL=  2.73e-04 (AVERGE_DL)=    0.0020326855 
ITERATION  12 : L=   80.9276715425 DL=  1.74e-04 (AVERGE_DL)=    0.0016241978 
ITERATION  13 : L=   80.9277814669 DL=  1.10e-04 (AVERGE_DL)=    0.0012905510 
ITERATION  14 : L=   80.9278503757 DL=  6.89e-05 (AVERGE_DL)=    0.0010217988 
ITERATION  15 : L=   80.9278933767 DL=  4.30e-05 (AVERGE_DL)=    0.0008071739 
ITERATION  16 : L=   80.9279201349 DL=  2.68e-05 (AVERGE_DL)=    0.0006367315 
ITERATION  17 : L=   80.9279367545 DL=  1.66e-05 (AVERGE_DL)=    0.0005018093 
ITERATION  18 : L=   80.9279470661 DL=  1.03e-05 (AVERGE_DL)=    0.0003952673 
ITERATION  19 : L=   80.9279534605 DL=  6.39e-06 (AVERGE_DL)=    0.0003112635 
ITERATION  20 : L=   80.9279574227 DL=  3.96e-06 (AVERGE_DL)=    0.0002450179 
ITERATION  21 : L=   80.9279598774 DL=  2.45e-06 (AVERGE_DL)=    0.0001928528 
ITERATION  22 : L=   80.9279613983 DL=  1.52e-06 (AVERGE_DL)=    0.0001518028 
ITERATION  23 : L=   80.9279623404 DL=  9.42e-07 (AVERGE_DL)=    0.0001194761 
LOCALIZATION SUM CONVERGED


--------------------------------------------------------------------------------
                    LOCALIZED MOLECULAR ORBITAL COMPOSITIONS
--------------------------------------------------------------------------------

The Mulliken populations for each LMO on each atom are computed
The LMO`s will be ordered according to atom index and type
  (A) Strongly localized MO`s have populations of >=0.950 on one atom
  (B) Two center bond orbitals have populations of >=0.850 on two atoms
  (C) Other MO`s are considered to be `delocalized`

FOUND  -   1 strongly local MO`s
       -  11 two center bond MO`s
       -   0 significantly delocalized MO`s

Rather strongly localized orbitals:
MO   4:   3O  -   0.953088
Bond-like localized orbitals:
MO  15:   7H  -   0.481807  and   1C  -   0.523629
MO  14:   6H  -   0.481802  and   1C  -   0.523602
MO  13:   5H  -   0.470445  and   1C  -   0.554666
MO  12:   4H  -   0.378780  and   3O  -   0.630775
MO  11:   3O  -   0.722553  and   0C  -   0.311125
MO  10:   3O  -   0.872287  and   0C  -   0.117927
MO   9:   2O  -   0.664516  and   0C  -   0.347160
MO   8:   2O  -   0.664060  and   0C  -   0.347886
MO   7:   2O  -   0.936360  and   0C  -   0.061251
MO   6:   2O  -   0.936360  and   0C  -   0.070277
MO   5:   1C  -   0.502093  and   0C  -   0.547019
Localized MO's were stored in: /cluster/projects/nn14654k/ylvaos/basis_set_n_funcs/functionals/pw91/CH3COOH/inp/CH3COOH_pw91_def2qzvp.loc

-------------------------   --------------------
FINAL SINGLE POINT ENERGY      -229.127400534037
-------------------------   --------------------



           ************************************************************
           *        Program running with 8 parallel MPI-processes     *
           *              working on a common directory               *
           ************************************************************

------------------------------------------------------------------------------
                              ORCA PROPERTY CALCULATIONS
------------------------------------------------------------------------------

GBWName                                 ... /cluster/projects/nn14654k/ylvaos/basis_set_n_funcs/functionals/pw91/CH3COOH/inp/CH3COOH_pw91_def2qzvp.gbw
Number of atoms                         ...      8
Number of basis functions               ...    348
Max core memory                         ...   4096 MB

Electric properties:
Dipole moment                           ... YES
Quadrupole moment                       ... YES
Static polarizability (Dipole/Dipole)   ...  NO
Static polarizability (Dipole/Quad.)    ...  NO
Static polarizability (Quad./Quad.)     ...  NO
Static polarizability (Velocity)        ...  NO
Static hyperpolarizability              ...  NO

Atomic electric properties:
Dipole moment                           ...  NO
Quadrupole moment                       ...  NO
Static polarizability                   ...  NO

Choice of electric origin               ... Center of mass
Position of electric origin             ...    -0.065707     0.097461     0.000000

General magnetic properties:
Magnetizability                         ...  NO

EPR properties:
g-Tensor (aka g-matrix)                 ...  NO
Zero-Field splitting spin-orbit         ...  NO
Zero-field splitting spin-spin          ...  NO
Hyperfine couplings                     ...  NO (   0 nuclei)
Quadrupole couplings                    ...  NO (   0 nuclei)
Contact density                         ...  NO (   0 nuclei)

NMR properties:
Chemical shifts                         ...  NO (   0 nuclei)
Spin-rotation constants                 ...  NO (   0 nuclei)
Spin-spin couplings                     ...  NO (   0 nuclei,    0 pairs)

Choice of magnetic origin               ... GIAO
Position of magnetic origin             ...     0.000000     0.000000     0.000000

Properties with geometric perturbations:
SCF Hessian                             ...  NO
IR spectrum                             ...  NO
VCD spectrum                            ...  NO
X-ray spectroscopy properties:
SCF XES/XAS/RIXS spectra                ...  NO

SCF SOC stabilization energy            ...  NO
Diagonal Born-Oppenheimer correction    ...  NO

-------------
DIPOLE MOMENT
-------------

Method             : SCF
Type of density    : Electron Density
Multiplicity       :   1
Irrep              :   0
Energy             :  -229.1274005340372923 Eh
Basis              : AO
                                X                 Y                 Z
Electronic contribution:     -2.212381977       2.438300758       0.000000001
Nuclear contribution   :      2.102617427      -3.118765285       0.000000000
                        -----------------------------------------
Total Dipole Moment    :     -0.109764550      -0.680464527       0.000000001
                        -----------------------------------------
Magnitude (a.u.)       :      0.689260640
Magnitude (Debye)      :      1.751961315



--------------------
Rotational spectrum 
--------------------
 
Rotational constants in cm-1:             0.373252             0.316126             0.176788 
Rotational constants in MHz :         11189.819630          9477.229268          5299.974115 

Dipole components along the rotational axes: 
x,y,z [a.u.] :    -0.358556    -0.588658     0.000000 
x,y,z [Debye]:    -0.911376    -1.496249     0.000000 

 

Dipole moment calculation done in   0.0 sec 

-----------------
QUADRUPOLE MOMENT
-----------------

Method             : SCF
Type of density    : Electron Density
Multiplicity       :   1
Irrep              :   0
Energy             :  -229.1274005340372923 Eh
Basis              : AO

                XX              YY              ZZ              XY              XZ              YZ
  NUC      103.447904006    93.335807526     5.552847104   -15.402641721     0.000000000     0.000000000
  EL      -118.581340761  -113.728189004   -22.920975139    12.770290425     0.000000002    -0.000000010
  TOT      -15.133436755   -20.392381478   -17.368128035    -2.632351296     0.000000002    -0.000000010 (a.u.)
           -20.354989999   -27.428450508   -23.360726197    -3.540602519     0.000000002    -0.000000014 (Buckingham)

diagonalized tensor:
           -21.483580863   -17.368128035   -14.042237370 (a.u.)
           -28.896150999   -23.360726197   -18.887289507 (Buckingham)
           -15.544286295     1.061988112    14.482298183 (traceless form in Buckingham)

             0.382936162     0.000000002     0.923774808
             0.923774808     0.000000001    -0.382936162
             0.000000002    -1.000000000     0.000000002
        
Isotropic quadrupole :   -17.631315423

Quadrupole moment calculation done in   0.0 sec (  0.0 sec for integrals)

Maximum memory used throughout the entire PROP-calculation: 18.2 MB

--------------------------------
SUGGESTED CITATIONS FOR THIS RUN
--------------------------------

Below you find a list of papers that are relevant to this ORCA run
We neither can nor want to force you to cite these papers, but we appreciate if you do
You receive ORCA, which is the product of decades of hard work by many enthusiastic individuals, for free
The only thing we kindly ask in return is that you cite our papers,
We deeply appreciate it, if you show your appreciation for ORCA by not just citing the generic ORCA reference.

Please note that relegating all ORCA citations to the supporting information does *not* help us.
SI sections are not indexed - citations you put there will not count into any citation statistics
But we need these citations in order to attract the funding resources that allow us to do what we are doing

Therefore, if you are a happy ORCA user, please consider citing a few of the papers listed below in the main body of your paper

In addition to the list printed below, the program has created the file /cluster/projects/nn14654k/ylvaos/basis_set_n_funcs/functionals/pw91/CH3COOH/inp/CH3COOH_pw91_def2qzvp.bibtex that contains the list in bibtex format
You can import this file easily into all common literature databanks and citation aid programs

It goes without saying that in many instances, there are alternative algorithms to achieve similar
results as the ones you have gotten from ORCA. It is, of course, also the case that in some instances
ORCA just re-implements algorithms worked out by others. We are fully aware of that and we are also
fully appreciative of our colleagues work. Hence this citation list should not be read as indicating
that the listed papers, which are focused on our own work, are the only ones worth citing. It simply
meant to make it easier for users to cite ORCA specific papers. It is not a substitute for doing your
own literature research and citing the relevant literature in a scientifically appropriate manner.

List of essential papers. We consider these as the minimum necessary citations

  1. Neese, F.
     Software update: the ORCA program system, version 6.0
     WIRES Comput. Molec. Sci. 2025 15(1), e70019
     doi.org/10.1002/wcms.70019

List of papers to cite with high priority. The work reported in these papers was absolutely
necessary for this run to complete.
Our perspective: the developers of density functionals and basis sets usually get cited in chemistry papers
Good! But without the algorithms to do something with them, the functionals or basis sets would not do anything.
Hence, in our opinion, the algorithm design and method developments papers are equally worthy of getting cited

  1. Lehtola, S.; Steigemann, C.; Oliveira, M.; Marques, M.
     Recent developments in Libxc - A comprehensive library of functionals for density functional theory
     Software X 2018 7 , 
     doi.org/10.1016/j.softx.2017.11.002
  2. Neese, F.
     The SHARK Integral Generation and Digestion System
     J. Comp. Chem. 2022 44(3), 381
     doi.org/10.1002/jcc.26942

List of suggested additional citations. These are papers that are important in the 'surrounding' of 
of this run, or papers that preceded the highly important papers. If you like your results we are grateful for a citation.

  1. Neese, F.
     The ORCA program system
     WIRES Comput. Molec. Sci. 2012 2(1), 73-78
     doi.org/10.1002/wcms.81
  2. Neese, F.
     Software update: the ORCA program system, version 4.0
     WIRES Comput. Molec. Sci. 2018 8(1), 1-6
     doi.org/10.1002/wcms.1327
  3. Neese, F.; Wennmohs, F.; Becker, U.; Riplinger, C.
     The ORCA quantum chemistry program package
     J. Chem. Phys. 2020 152(22), 224108
     doi.org/10.1063/5.0004608
  4. Neese, F.
     Software update: The ORCA program system—Version 5.0
     WIRES Comput. Molec. Sci. 2022 12(1), e1606
     doi.org/10.1002/wcms.1606

List of optional additional citations

  1. Neese, F.
     Approximate second-order SCF convergence for spin unrestricted wavefunctions
     Chem. Phys. Lett. 2000 325(1-3), 93-98
     doi.org/10.1016/s0009-2614(00)00662-x

Timings for individual modules:

Sum of individual times          ...       37.351 sec (=   0.623 min)
Startup calculation              ...        0.677 sec (=   0.011 min)   1.8 %
SCF iterations                   ...       36.148 sec (=   0.602 min)  96.8 %
Property integrals               ...        0.271 sec (=   0.005 min)   0.7 %
Property calculations            ...        0.244 sec (=   0.004 min)   0.7 %
Orbital localization             ...        0.011 sec (=   0.000 min)   0.0 %
                             ****ORCA TERMINATED NORMALLY****
TOTAL RUN TIME: 0 days 0 hours 0 minutes 38 seconds 40 msec
