
                                 *****************
                                 * O   R   C   A *
                                 *****************

                                            #,                                       
                                            ###                                      
                                            ####                                     
                                            #####                                    
                                            ######                                   
                                           ########,                                 
                                     ,,################,,,,,                         
                               ,,#################################,,                 
                          ,,##########################################,,             
                       ,#########################################, ''#####,          
                    ,#############################################,,   '####,        
                  ,##################################################,,,,####,       
                ,###########''''           ''''###############################       
              ,#####''   ,,,,##########,,,,          '''####'''          '####       
            ,##' ,,,,###########################,,,                        '##       
           ' ,,###''''                  '''############,,,                           
         ,,##''                                '''############,,,,        ,,,,,,###''
      ,#''                                            '''#######################'''  
     '                                                          ''''####''''         
             ,#######,   #######,   ,#######,      ##                                
            ,#'     '#,  ##    ##  ,#'     '#,    #''#        ,####,    ,#,          
            ##       ##  ##   ,#'  ##            #'  '#       #'       ,# #          
            ##       ##  #######   ##           ,######,      #####,      #          
            '#,     ,#'  ##    ##  '#,     ,#' ,#      #,     #,   #      #          
             '#######'   ##     ##  '#######'  #'      '#     '####' #    #          



                #########################################################
                #                        -***-                          #
                #          Department of theory and spectroscopy        #
                #                                                       #
                #                      Frank Neese                      #
                #                                                       #
                #     Directorship, Architecture, Infrastructure        #
                #                    SHARK, DRIVERS                     #
                #        Core code/Algorithms in most modules           #
                #                                                       #
                #        Max Planck Institute fuer Kohlenforschung      #
                #                Kaiser Wilhelm Platz 1                 #
                #                 D-45470 Muelheim/Ruhr                 #
                #                      Germany                          #
                #                                                       #
                #                  All rights reserved                  #
                #                        -***-                          #
                #########################################################


                         Program Version 6.1.1  -  RELEASE   -
                                (GIT: $487d211c$)
                          ($2025-11-21 10:33:24 +0100$)


 With contributions from (in alphabetic order):
[Max-Planck-Institut fuer Kohlenforschung]                               
  Daniel Aravena         : Magnetic Suceptibility                        
  Michael Atanasov       : Ab Initio Ligand Field Theory (pilot matlab implementation)
  Alexander A. Auer      : GIAO ZORA, VPT2 properties, NMR spectrum      
  Ute Becker             : All parallelization in ORCA, NUMFREQ, NUMCALC 
  Giovanni Bistoni       : ED, misc. LED, open-shell LED, HFLD           
  Dmytro Bykov           : pre 5.0 version of the SCF Hessian            
  Marcos Casanova-Páez   : Triplet and SCS-CIS(D). UHF-(DLPNO)-IP/EA/STEOM-CCSD. UHF-CVS-IP/STEOM-CCSD   
  Vijay G. Chilkuri      : MRCI spin determinant printing, contributions to CSF-ICE 
  Pauline Colinet        : FMM embedding                                 
  Dipayan Datta          : RHF DLPNO-CCSD density                        
  Achintya Kumar Dutta   : EOM-CC, STEOM-CC                              
  Nicolas Foglia         : Exact transition moments, OPA infrastructure, MCD improvements    
  Dmitry Ganyushin       : Spin-Orbit,Spin-Spin,Magnetic field MRCI      
  Miquel Garcia-Rates    : C-PCM and meta-GGA Hessian, CCSD/C-PCM, Gaussian charge scheme 
  Tiago L. C. Gouveia    : GS-ROHF, GS-ROCIS                             
  Yang Guo               : DLPNO-NEVPT2, F12-NEVPT2, CIM, IAO-localization        
  Andreas Hansen         : Spin unrestricted coupled pair/coupled cluster methods 
  Ingolf Harden          : AUTO-CI MPn and infrastructure                
  Benjamin Helmich-Paris : MC-RPA, TRAH-(SCF,CASSCF), AVAS, COSX integrals, SCF dyn. polar., MC-PDFT, srDFT 
  Lee Huntington         : MR-EOM, pCC                                   
  Robert Izsak           : Overlap fitted RIJCOSX, COSX-SCS-MP3, EOM     
  Riya Kayal             : Wick's Theorem for AUTO-CI, AUTO-CI UHF-CCSDT 
  Emily Kempfer          : AUTO-CI RHF CISDT and CCSDT, approximate NEVPT4
  Christian Kollmar      : KDIIS, OOCD, Brueckner-CCSD(T), CCSD density, CASPT2, CASPT2-K, improved NEVPT2 
  Axel Koslowski         : Symmetry handling                             
  Simone Kossmann        : meta-GGA functionals, TD-DFT gradient, OOMP2, (MP2 Hessian; deprecated post 5.0) 
  Lucas Lang             : DCDCAS, Hyperfine gauge corrections, ICE-SOC+SSC
  Marvin Lechner         : AUTO-CI (C++ implementation), FIC-MRCC        
  Spencer Leger          : CASSCF response                               
  Dagmar Lenk            : GEPOL surface, SMD, ORCA-2-JSON               
  Dimitrios Liakos       : Extrapolation schemes; Compound Job, Property file
  Dimitrios Manganas     : Further ROCIS development; embedding schemes. LFT, Crystal Embedding 
  Dimitrios Pantazis     : SARC Basis sets                               
  Anastasios Papadopoulos: AUTO-CI, single reference methods and gradients 
  Taras Petrenko         : pre 6.0 DFT Hessian and TD-DFT gradient,  ECA, NRVS 
  Petra Pikulova         : Analytic Raman intensities                    
  Peter Pinski           : DLPNO-MP2, DLPNO-MP2 Gradient                 
  Shashank Vittal Rao    : ES-AILFT, MagRelax                            
  Christoph Reimann      : Effective Core Potentials                     
  Marius Retegan         : Local ZFS, SOC                                
  Christoph Riplinger    : Optimizer, TS searches, QM/MM, DLPNO-CCSD(T), (RO)-DLPNO pert. Triples 
  Michael Roemelt        : Original ROCIS implementation, recursive CI coupling coefficients
  Masaaki Saitow         : Open-shell DLPNO-CCSD energy and density      
  Barbara Sandhoefer     : DKH picture change effects                    
  Yorick L. A. Schmerwitz: GMF and freeze-and-release deltaSCF, NEB S-IDPP initial path                    
  Kantharuban Sivalingam : CASSCF convergence/infrastructure, NEVPT2, NEVPT3, NEVPT4(SD), FIC-MRCI and CEPA variants
  Bernardo de Souza      : ESD, SOC TD-DFT                               
  Georgi L. Stoychev     : AutoAux, RI-MP2 NMR, DLPNO-MP2 response, X2C  
  Van Anh Tran           : RI-MP2 g-tensors                              
  Willem Van den Heuvel  : Paramagnetic NMR                              
  Zikuan Wang            : NOTCH, Electric field optimization            
  Frank Wennmohs         : Technical directorship and infrastructure     
  Hang Xu                : AUTO-CI-Response properties                   
                                                                         
[FACCTs GmbH]                                                            
  Markus Bursch, Nicolas Foglia, Miquel Garcia-Rates, Ingolf Harden, Hagen Neugebauer, Anastasios Papadopoulos, 
  Christoph Riplinger, Bernardo de Souza, Georgi L. Stoychev                                                    
                                                                 
  APM, various basis sets, CI-OPT, improved COSX, DLPNO-Multilevel,           
  DOCKER, DRACO, updates on ESD, Fragmentator, GOAT, IRC, LR-CPCM, L-BFGS, MBIS, meta-GGA TD-DFT gradient, ML-optimized integration grids, 
  MM, NACMEs, nearIR, NEB, NEB-TS, NL-DFT gradient (VV10), 2- and 3-layer-ONIOM, interface openCOSMO-RS, QMMM,   
  Crystal-QMMM, RESP, rigid body optimization, SF, symmetry and pop. for TD-DFT, various functionals, SOLVATOR                                   
                                                                         
[Other institutions]                                                     
  V. Asgeirsson          : NEB                                           
  Christoph Bannwarth    : sTDA-DFT, sTD-DFT, PBEh-3c, B97-3c, D3        
  Giovanni Bistoni       : ETS/NOCV, ADLD/ADEX, COVALED                  
  Martin Brehm           : Molecular dynamics                            
  Ronald Cardenas        : ETS/NOCV                                      
  Martina Colucci        : COVALED                                       
  Sebastian Ehlert       : rSCAN, r2SCAN, r2SCAN-3c, D4, dhf basis sets  
  Marvin Friede          : D4 for Fr, Ra, Ac-Lr                          
  Lars Goerigk           : TD-DFT with DH, B97 family of functionals     
  Stefan Grimme          : VdW corrections, initial TS optimization, DFT functionals, gCP, sTDA/sTD-DF 
  Waldemar Hujo          : DFT-NL                                        
  H. Jonsson             : NEB                                           
  Holger Kruse           : gCP                                           
  Marcel Mueller         : wB97X-3c, vDZP basis set                      
  Hagen Neugebauer       : wr2SCAN, Native XTB                           
  Gianluca Regni         : ADLD/ADEX                                     
  Tobias Risthaus        : pre 6.0 range-separated hybrid DFT and stability analysis
  Lukas Wittmann         : regularized MP2, r2SCAN double-hybrids, wr2SCAN        
                                                                         
We gratefully acknowledge several colleagues who have allowed us to      
interface, adapt or use parts of their codes:                            
  Ed Valeev, F. Pavosevic, A. Kumar             : LibInt (2-el integral package), F12 methods 
  Garnet Chan, S. Sharma, J. Yang, R. Olivares  : DMRG                   
  Ulf Ekstrom                                   : XCFun DFT Library      
  Mihaly Kallay                                 : mrcc  (arbitrary order and MRCC methods)
  Frank Weinhold                                : gennbo (NPA and NBO analysis)           
  Simon Mueller                                 : openCOSMO-RS                            
  Christopher J. Cramer and Donald G. Truhlar   : smd solvation model                     
  S Lehtola, MJT Oliveira, MAL Marques          : LibXC Library                           
  Liviu Ungur et al                             : ANISO software                          


 Your calculation uses the libint2 library for the computation of 2-el integrals
 For citations please refer to: http://libint.valeyev.net

 Your ORCA version has been built with support for libXC version: 7.0.0
 For citations please refer to: https://libxc.gitlab.io

 This ORCA versions uses:
   CBLAS   interface :  Fast vector & matrix operations
   LAPACKE interface :  Fast linear algebra routines
   SCALAPACK package :  Parallel linear algebra routines
   Shared memory     :  Shared parallel matrices
   BLAS/LAPACK       :  OpenBLAS 0.3.29  USE64BITINT DYNAMIC_ARCH NO_AFFINITY Cooperlake SINGLE_THREADED
        Core in use  :  Cooperlake
   Copyright (c) 2011-2014, The OpenBLAS Project


  ***********************************
  * Starting time: Wed May 20 12:36:44 2026
  * Host name:     c1-36
  * Process ID:    864241
  * Working dir.:  /cluster/projects/nn14654k/ylvaos/basis_set_n_funcs/functionals/lda_x/LiS/out
  ***********************************

Using LibXC functional ID   1 : Slater exchange
[ 1]  P. A. M. Dirac.,  Math. Proc. Cambridge Philos. Soc. 26, 376 (1930)
[ 2]  F. Bloch.,  Z. Phys. 57, 545 (1929)
Using LibXC functional ID   1 : Slater exchange
[ 1]  P. A. M. Dirac.,  Math. Proc. Cambridge Philos. Soc. 26, 376 (1930)
[ 2]  F. Bloch.,  Z. Phys. 57, 545 (1929)
Your calculation utilizes LibXC
by S. Lehtola, C. Steigemann, M. J. T. Oliveira & M. A. L. Marques
Please cite in your paper:
Lehtola, S.; Steigemann, C.; Oliveira, M.J.T.; Marques, M. A. L. Software X, 7, (2018), 1.
   

================================================================================

----- Orbital basis set information -----
Your calculation utilizes the basis: def2-QZVP
   F. Weigend and R. Ahlrichs, Phys. Chem. Chem. Phys. 7, 3297 (2005).

================================================================================
                                        WARNINGS
                       Please study these warnings very carefully!
================================================================================


WARNING: your system is open-shell and RHF/RKS was chosen
  ===> : WILL SWITCH to UHF/UKS


================================================================================
                                       INPUT FILE
================================================================================
NAME = /cluster/projects/nn14654k/ylvaos/basis_set_n_funcs/functionals/lda_x/LiS/inp/LiS_lda_x_def2qzvp.inp
|  1> ! dft def2-QZVP TightSCF
|  2> %pal nprocs 8 end
|  3> 
|  4> %loc
|  5>   LocMet NewBoys
|  6>   Occ true
|  7> end
|  8> 
|  9> %method
| 10>   exchange lda_x
| 11>   correlation None
| 12> end
| 13> 
| 14> %elprop
| 15>   Dipole true
| 16>   Quadrupole true
| 17> end
| 18> 
| 19> * xyz 0 2
| 20> Li    0.000000000000   0.000000000000  -1.074850000000
| 21> S    0.000000000000   0.000000000000   1.074850000000
| 22> *
| 23> 
| 24> 
| 25>                          ****END OF INPUT****
================================================================================

                       ****************************
                       * Single Point Calculation *
                       ****************************

---------------------------------
CARTESIAN COORDINATES (ANGSTROEM)
---------------------------------
  Li     0.000000    0.000000   -1.074850
  S      0.000000    0.000000    1.074850

----------------------------
CARTESIAN COORDINATES (A.U.)
----------------------------
  NO LB      ZA    FRAG     MASS         X           Y           Z
   0 Li    3.0000    0     6.941    0.000000    0.000000   -2.031172
   1 S    16.0000    0    32.060    0.000000    0.000000    2.031172

--------------------------------
INTERNAL COORDINATES (ANGSTROEM)
--------------------------------
 Li     0   0   0     0.000000000000     0.00000000     0.00000000
 S      1   0   0     2.149700000000     0.00000000     0.00000000

---------------------------
INTERNAL COORDINATES (A.U.)
---------------------------
 Li     0   0   0     0.000000000000     0.00000000     0.00000000
 S      1   0   0     4.062344270091     0.00000000     0.00000000

---------------------
BASIS SET INFORMATION
---------------------
There are 2 groups of distinct atoms

 Group   1 Type Li  : 15s6p2d1f contracted to 6s4p2d1f pattern {921111/3111/11/1}
 Group   2 Type S   : 20s14p4d2f1g contracted to 9s6p4d2f1g pattern {1031111111/821111/1111/11/1}

Atom   0Li   basis set group =>   1
Atom   1S    basis set group =>   2


           ************************************************************
           *        Program running with 8 parallel MPI-processes     *
           *              working on a common directory               *
           ************************************************************
------------------------------------------------------------------------------
                             ORCA STARTUP CALCULATIONS
------------------------------------------------------------------------------
------------------------------------------------------------------------------
                   ___                                                        
                  /   \      - P O W E R E D   B Y -                         
                 /     \                                                     
                 |  |  |   _    _      __       _____    __    __             
                 |  |  |  | |  | |    /  \     |  _  \  |  |  /  |          
                  \  \/   | |  | |   /    \    | | | |  |  | /  /          
                 / \  \   | |__| |  /  /\  \   | |_| |  |  |/  /          
                |  |  |   |  __  | /  /__\  \  |    /   |      \           
                |  |  |   | |  | | |   __   |  |    \   |  |\   \          
                \     /   | |  | | |  |  |  |  | |\  \  |  | \   \       
                 \___/    |_|  |_| |__|  |__|  |_| \__\ |__|  \__/        
                                                                              
                      - O R C A' S   B I G   F R I E N D -                    
                                      &                                       
                       - I N T E G R A L  F E E D E R -                       
                                                                              
 v1 FN, 2020, v2 2021, v3 2022-2024                                           
------------------------------------------------------------------------------


----------------------
SHARK INTEGRAL PACKAGE
----------------------

Number of atoms                             ...      2
Number of basis functions                   ...    105
Number of shells                            ...     35
Maximum angular momentum                    ...      4
Integral batch strategy                     ... SHARK/LIBINT Hybrid
RI-J (if used) integral strategy            ... SPLIT-RIJ (Revised 2003 algorithm where possible)
Printlevel                                  ...      1
Contraction scheme used                     ... SEGMENTED contraction
Prescreening option                         ... SCHWARTZ
   Thresh                                   ... 2.500e-11
   Tcut                                     ... 2.500e-12
   Tpresel                                  ... 2.500e-12 
Coulomb Range Separation                    ... NOT USED
Exchange Range Separation                   ... NOT USED
Multipole approximations                    ... NOT USED
Finite Nucleus Model                        ... NOT USED
CABS basis                                  ... NOT available
Auxiliary Coulomb fitting basis             ... NOT available
Auxiliary J/K fitting basis                 ... NOT available
Auxiliary Correlation fitting basis         ... NOT available
Auxiliary 'external' fitting basis          ... NOT available

Checking pre-screening integrals            ... done (  0.0 sec) Dimension = 35
   => SHARK Basis and OBASIS are compatible. Storing Pre-screening
Shell pair information
Shell pair cut-off parameter TPreSel        ...   2.5e-12
Total number of shell pairs                 ...       630
Shell pairs after pre-screening             ...       624
Total number of primitive shell pairs       ...      2262
Primitive shell pairs kept                  ...      1971
          la=0 lb=0:    120 shell pairs
          la=1 lb=0:    145 shell pairs
          la=1 lb=1:     54 shell pairs
          la=2 lb=0:     90 shell pairs
          la=2 lb=1:     60 shell pairs
          la=2 lb=2:     21 shell pairs
          la=3 lb=0:     45 shell pairs
          la=3 lb=1:     30 shell pairs
          la=3 lb=2:     18 shell pairs
          la=3 lb=3:      6 shell pairs
          la=4 lb=0:     15 shell pairs
          la=4 lb=1:     10 shell pairs
          la=4 lb=2:      6 shell pairs
          la=4 lb=3:      3 shell pairs
          la=4 lb=4:      1 shell pairs

Checking whether 4 symmetric matrices of dimension 105 fit in memory
:Max Core in MB      =   4096.00
 MB in use           =      4.03
 MB left             =   4091.97
 MB needed           =      0.17
 Data fit in memory  = YES
Calculating Nuclear repulsion               ... done (  0.0 sec) ENN=     11.815837557985 Eh

Diagonalization of the overlap matrix:
Smallest eigenvalue                        ... 1.354e-03
Time for diagonalization                   ...    0.001 sec
Threshold for overlap eigenvalues          ... 1.000e-07
Number of eigenvalues below threshold      ... 0
Time for construction of square roots      ...    0.002 sec
Total time needed                          ...    0.005 sec

-------------------
DFT GRID GENERATION
-------------------

General Integration Accuracy     IntAcc      ... 4.388
Radial Grid Type                 RadialGrid  ... OptM3 with GC (2021)
Angular Grid (max. ang.)         AngularGrid ... 4 (Lebedev-302)
Angular grid pruning method      GridPruning ... 4 (adaptive)
Weight generation scheme         WeightScheme... mBecke (2022)
Basis function cutoff            BFCut       ... 1.0000e-11
Integration weight cutoff        WCut        ... 1.0000e-14
Partially contracted basis set               ... off
Rotationally invariant grid construction     ... off
Angular grids for H and He will be reduced by one unit

Total number of grid points                  ...    13486
Total number of batches                      ...      212
Average number of points per batch           ...       63
Average number of grid points per atom       ...     6743
Grids setup in   0.0 sec
Initializing property integral containers    ... done (  0.0 sec)

SHARK setup successfully completed in   0.1 seconds

Maximum memory used throughout the entire STARTUP-calculation: 33.3 MB


           ************************************************************
           *        Program running with 8 parallel MPI-processes     *
           *              working on a common directory               *
           ************************************************************
-------------------------------------------------------------------------------
                                 ORCA GUESS
                   Start orbitals & Density for SCF / CASSCF
-------------------------------------------------------------------------------

------------
SCF SETTINGS
------------
Hamiltonian:
 Density Functional     Method          .... DFT(GTOs)
  Functional kind                       .... Exchange
  Functional name                       .... Slater exchange
  Functional family                     .... LDA
  Functional refs                              
    [ 0] P. A. M. Dirac.,  Math. Proc. Cambridge Philos. Soc. 26, 376 (1930), doi: 10.1017/S0305004100016108
    [ 1] F. Bloch.,  Z. Phys. 57, 545 (1929), doi: 10.1007/BF01340281
  Functional external parameters        .... 0
 Correlation Functional Correlation     .... No Correlation
 Gradients option       PostSCFGGA      .... off


General Settings:
 Integral files         IntName         .... /cluster/projects/nn14654k/ylvaos/basis_set_n_funcs/functionals/lda_x/LiS/inp/LiS_lda_x_def2qzvp
 Hartree-Fock type      HFTyp           .... UHF
 Total Charge           Charge          ....    0
 Multiplicity           Mult            ....    2
 Number of Electrons    NEL             ....   19
 Basis Dimension        Dim             ....  105
 Nuclear Repulsion      ENuc            ....     11.8158375580 Eh

Convergence Acceleration:
 AO-DIIS                CNVDIIS         .... on
   Start iteration      DIISMaxIt       ....    12
   Startup error        DIISStart       ....  0.200000
   # of expansion vecs  DIISMaxEq       ....     5
   Bias factor          DIISBfac        ....   1.050
   Max. coefficient     DIISMaxC        ....  10.000
 MO-DIIS                CNVKDIIS        .... off
 Trust-Rad. Augm. Hess. CNVTRAH         .... auto
   Auto Start mean grad. ratio tolernc. ....  1.125000
   Auto Start start iteration           ....    50
   Auto Start num. interpolation iter.  ....    10
   Max. Number of Micro iterations      ....    24
   Max. Number of Macro iterations      .... Maxiter - #DIIS iter
   Number of Davidson start vectors     ....     2
   Converg. threshold    (grad. norm)   ....   1.000e-05
   Grad. Scal. Fac. for Micro threshold ....   0.100
   Minimum threshold for Micro iter.    ....   1.000e-02
   NR start threshold (gradient norm)   ....   1.000e-04
   Initial trust radius                 ....   0.400
   Minimum AH scaling param. (alpha)    ....   1.000
   Maximum AH scaling param. (alpha)    .... 1000.000
   Quad. conv. algorithm                .... NR
   White noise on init. David. guess    .... on
   Maximum white noise                  ....   0.010
   Pseudo random numbers                .... off
   Inactive MOs                         .... canonical
   Orbital update algorithm             .... Taylor
   Preconditioner                       .... Diag
   Full preconditioner red. dimension   ....   250
 SOSCF                 CNVSOSCF           .... on
   Start iteration     SOSCFMaxIt         ....   150
   Startup grad/error  SOSCFStart         ....  0.003300
   Hessian update      SOSCFHessUp        .... L-BFGS
   Autom. constraints  SOSCFAutoConstrain .... off
 Level Shifting         CNVShift        .... on
   Level shift para.    LevelShift      ....    0.2500
   Turn off err/grad.   ShiftErr        ....    0.0010
 Zerner damping         CNVZerner       .... off
 Static damping         CNVDamp         .... on
   Fraction old density DampFac         ....    0.7000
   Max. Damping (<1)    DampMax         ....    0.9800
   Min. Damping (>=0)   DampMin         ....    0.0000
   Turn off err/grad.   DampErr         ....    0.1000

SCF Procedure:
 Maximum # iterations   MaxIter         ....   125
 SCF integral mode      SCFMode         .... Direct
   Integral package                     .... SHARK and LIBINT hybrid scheme
 Reset frequency        DirectResetFreq ....    20
 Integral Threshold     Thresh          ....  2.500e-11 Eh
 Primitive CutOff       TCut            ....  2.500e-12 Eh

Convergence Tolerance:
 Convergence Check Mode ConvCheckMode   .... Total+1el-Energy
 Convergence forced     ConvForced      .... 0
 Energy Change          TolE            ....  1.000e-08 Eh
 1-El. energy change                    ....  1.000e-05 Eh
 Orbital Gradient       TolG            ....  1.000e-05
 Orbital Rotation angle TolX            ....  1.000e-05
 DIIS Error             TolErr          ....  5.000e-07

------------------------------
INITIAL GUESS: MODEL POTENTIAL
------------------------------
Loading Hartree-Fock densities                     ... done
Calculating cut-offs                               ... done
Initializing the effective Hamiltonian             ... done
Setting up the integral package (SHARK)            ... done
Starting the Coulomb interaction                   ... done (   0.0 sec)
Making the grid                                    ... done (   0.0 sec)
Mapping shells                                     ... done
Starting the XC term evaluation                    ... done (   0.0 sec)
  promolecular density results
     # of electrons  =     18.999659774
     EX              =    -24.527409835
     EC              =      0.000000000
     EX+EC           =    -24.527409835
Transforming the Hamiltonian                       ... done (   0.0 sec)
Diagonalizing the Hamiltonian                      ... done (   0.0 sec)
Back transforming the eigenvectors                 ... done (   0.0 sec)
Now organizing SCF variables                       ... done
                      ------------------
                      INITIAL GUESS DONE (   0.0 sec)
                      ------------------
             **** ENERGY FILE WAS UPDATED (/cluster/projects/nn14654k/ylvaos/basis_set_n_funcs/functionals/lda_x/LiS/inp/LiS_lda_x_def2qzvp.en.tmp) ****
Finished Guess after   0.1 sec
Maximum memory used throughout the entire GUESS-calculation: 9.7 MB


           ************************************************************
           *        Program running with 8 parallel MPI-processes     *
           *              working on a common directory               *
           ************************************************************

-------------------------------------------------------------------------------------------
                                      ORCA LEAN-SCF
                              memory conserving SCF solver
-------------------------------------------------------------------------------------------

----------------------------------------D-I-I-S--------------------------------------------
Iteration    Energy (Eh)           Delta-E    RMSDP     MaxDP     DIISErr   Damp  Time(sec)
-------------------------------------------------------------------------------------------
               ***  Starting incremental Fock matrix formation  ***
    1    -402.7818967700978874     0.00e+00  1.94e-03  1.96e-02  5.07e-02  0.700   0.2
Warning: op=0 Small HOMO/LUMO gap (   0.057) - skipping pre-diagonalization
         Will do a full diagonalization
    2    -402.7948791671845470    -1.30e-02  1.75e-03  1.59e-02  3.00e-02  0.700   0.2
                               ***Turning on AO-DIIS***
    3    -402.8011093935253371    -6.23e-03  8.36e-04  7.45e-03  1.47e-02  0.700   0.2
    4    -402.8043233719266709    -3.21e-03  1.40e-03  1.21e-02  9.83e-03  0.000   0.2
                              *** Initializing SOSCF ***
---------------------------------------S-O-S-C-F--------------------------------------
Iteration    Energy (Eh)           Delta-E    RMSDP     MaxDP     MaxGrad    Time(sec)
--------------------------------------------------------------------------------------
    5    -402.8113336824979456    -7.01e-03  3.20e-04  3.58e-03  3.26e-03     0.2
               *** Restarting incremental Fock matrix formation ***
    6    -402.8114785443700612    -1.45e-04  2.64e-04  2.15e-03  1.74e-03     0.2
    7    -402.8114982377355773    -1.97e-05  1.31e-04  1.22e-03  1.47e-03     0.2
    8    -402.8115226086317762    -2.44e-05  3.45e-05  3.25e-04  1.53e-04     0.2
    9    -402.8115233356832050    -7.27e-07  2.04e-05  1.32e-04  7.94e-05     0.1
   10    -402.8115235482119374    -2.13e-07  8.90e-06  8.76e-05  4.29e-05     0.2
   11    -402.8115235848803195    -3.67e-08  4.11e-06  3.07e-05  2.42e-05     0.6
   12    -402.8115235912394496    -6.36e-09  1.08e-06  9.03e-06  1.04e-05     0.2
                 **** Energy Check signals convergence ****

               *****************************************************
               *                     SUCCESS                       *
               *           SCF CONVERGED AFTER  12 CYCLES          *
               *****************************************************

             **** ENERGY FILE WAS UPDATED (/cluster/projects/nn14654k/ylvaos/basis_set_n_funcs/functionals/lda_x/LiS/inp/LiS_lda_x_def2qzvp.en.tmp) ****

----------------
TOTAL SCF ENERGY
----------------

Total Energy       :       -402.81152359169550 Eh          -10961.05881 eV

Components:
Nuclear Repulsion  :         11.81583755798484 Eh             321.52529 eV
Electronic Energy  :       -414.62736114968038 Eh          -11282.58409 eV
One Electron Energy:       -583.83980508383047 Eh          -15887.08878 eV
Two Electron Energy:        169.21244393415012 Eh            4604.50469 eV

Virial components:
Potential Energy   :       -805.61771010998484 Eh          -21921.97238 eV
Kinetic Energy     :        402.80618651828934 Eh           10960.91358 eV
Virial Ratio       :          2.00001324973048

DFT components:
N(Alpha)           :        9.999987792707 electrons
N(Beta)            :        8.999985137667 electrons
N(Total)           :       18.999972930374 electrons
E(X)               :      -24.542434272319 Eh       
E(C)               :        0.000000000000 Eh       
E(XC)              :      -24.542434272319 Eh       

---------------
SCF CONVERGENCE
---------------

  Last Energy change         ...    6.3591e-09  Tolerance :   1.0000e-08
  Last MAX-Density change    ...    9.0267e-06  Tolerance :   1.0000e-07
  Last RMS-Density change    ...    1.0833e-06  Tolerance :   5.0000e-09
  Last DIIS Error            ...    3.2619e-03  Tolerance :   5.0000e-07
  Last Orbital Gradient      ...    1.0446e-05  Tolerance :   1.0000e-05
  Last Orbital Rotation      ...    3.3172e-05  Tolerance :   1.0000e-05


----------------------
UHF SPIN CONTAMINATION
----------------------

Warning: in a DFT calculation there is little theoretical justification to 
         calculate <S**2> as in Hartree-Fock theory. We will do it anyways
         but you should keep in mind that the values have only limited relevance

Expectation value of <S**2>     :     0.755429
Ideal value S*(S+1) for S=0.5   :     0.750000
Deviation                       :     0.005429

----------------
ORBITAL ENERGIES
----------------
                 SPIN UP ORBITALS
  NO   OCC          E(Eh)            E(eV) 
   0   1.0000     -87.594436     -2383.5658 
   1   1.0000      -7.527749      -204.8405 
   2   1.0000      -5.589138      -152.0882 
   3   1.0000      -5.573603      -151.6654 
   4   1.0000      -5.573203      -151.6546 
   5   1.0000      -1.799116       -48.9564 
   6   1.0000      -0.519388       -14.1333 
   7   1.0000      -0.187623        -5.1055 
   8   1.0000      -0.166561        -4.5324 
   9   1.0000      -0.145494        -3.9591 
  10   0.0000      -0.048432        -1.3179 
  11   0.0000       0.002853         0.0776 
  12   0.0000       0.007784         0.2118 
  13   0.0000       0.023545         0.6407 
  14   0.0000       0.043094         1.1727 
  15   0.0000       0.063378         1.7246 
  16   0.0000       0.068039         1.8514 
  17   0.0000       0.124588         3.3902 
  18   0.0000       0.145573         3.9612 
  19   0.0000       0.145999         3.9728 
  20   0.0000       0.179410         4.8820 

                 SPIN DOWN ORBITALS
  NO   OCC          E(Eh)            E(eV) 
   0   1.0000     -87.589344     -2383.4272 
   1   1.0000      -7.521545      -204.6716 
   2   1.0000      -5.575675      -151.7218 
   3   1.0000      -5.569056      -151.5417 
   4   1.0000      -5.568524      -151.5273 
   5   1.0000      -1.799330       -48.9623 
   6   1.0000      -0.478129       -13.0105 
   7   1.0000      -0.148007        -4.0275 
   8   1.0000      -0.127374        -3.4660 
   9   0.0000      -0.117863        -3.2072 
  10   0.0000      -0.048627        -1.3232 
  11   0.0000       0.006492         0.1767 
  12   0.0000       0.010870         0.2958 
  13   0.0000       0.027303         0.7430 
  14   0.0000       0.043039         1.1711 
  15   0.0000       0.066651         1.8137 
  16   0.0000       0.070647         1.9224 
  17   0.0000       0.129957         3.5363 
  18   0.0000       0.151302         4.1171 
  19   0.0000       0.153146         4.1673 
*Only the first 10 virtual orbitals were printed.

                    ********************************
                    * MULLIKEN POPULATION ANALYSIS *
                    ********************************

--------------------------------------------
MULLIKEN ATOMIC CHARGES AND SPIN POPULATIONS
--------------------------------------------
   0 Li:    0.344259    0.010579
   1 S :   -0.344259    0.989421
Sum of atomic charges         :    0.0000000
Sum of atomic spin populations:    1.0000000

-----------------------------------------------------
MULLIKEN REDUCED ORBITAL CHARGES AND SPIN POPULATIONS
-----------------------------------------------------
CHARGE
  0 Lis       :     2.202474  s :     2.202474
      pz      :     0.190431  p :     0.370663
      px      :     0.092569
      py      :     0.087663
      dz2     :     0.029514  d :     0.072983
      dxz     :     0.022096
      dyz     :     0.021317
      dx2y2   :     0.000000
      dxy     :     0.000056
      f0      :     0.002369  f :     0.009622
      f+1     :     0.003644
      f-1     :     0.003557
      f+2     :     0.000000
      f-2     :     0.000027
      f+3     :     0.000012
      f-3     :     0.000013

  1 S s       :     5.887478  s :     5.887478
      pz      :     3.679823  p :    10.443386
      px      :     3.403083
      py      :     3.360480
      dz2     :     0.005658  d :     0.011588
      dxz     :     0.002461
      dyz     :     0.002388
      dx2y2   :     0.000003
      dxy     :     0.001078
      f0      :     0.000870  f :     0.001752
      f+1     :     0.000100
      f-1     :     0.000086
      f+2     :     0.000000
      f-2     :     0.000182
      f+3     :     0.000255
      f-3     :     0.000258
      g0      :     0.000034  g :     0.000053
      g+1     :     0.000009
      g-1     :     0.000008
      g+2     :     0.000000
      g-2     :     0.000001
      g+3     :     0.000000
      g-3     :     0.000000
      g+4     :     0.000001
      g-4     :     0.000000


SPIN
  0 Lis       :    -0.017191  s :    -0.017191
      pz      :    -0.006159  p :     0.012755
      px      :     0.008001
      py      :     0.010913
      dz2     :    -0.001167  d :     0.011860
      dxz     :     0.006149
      dyz     :     0.006846
      dx2y2   :     0.000000
      dxy     :     0.000031
      f0      :     0.000068  f :     0.003155
      f+1     :     0.001462
      f-1     :     0.001579
      f+2     :     0.000000
      f-2     :     0.000025
      f+3     :     0.000010
      f-3     :     0.000011

  1 S s       :     0.008652  s :     0.008652
      pz      :     0.014246  p :     0.977344
      px      :     0.459224
      py      :     0.503874
      dz2     :     0.000401  d :     0.003016
      dxz     :     0.000773
      dyz     :     0.000855
      dx2y2   :     0.000002
      dxy     :     0.000984
      f0      :    -0.000065  f :     0.000409
      f+1     :    -0.000103
      f-1     :    -0.000098
      f+2     :     0.000000
      f-2     :     0.000173
      f+3     :     0.000251
      f-3     :     0.000252
      g0      :    -0.000002  g :    -0.000000
      g+1     :     0.000000
      g-1     :     0.000001
      g+2     :     0.000000
      g-2     :     0.000000
      g+3     :     0.000000
      g-3     :     0.000000
      g+4     :    -0.000000
      g-4     :    -0.000000



                     *******************************
                     * LOEWDIN POPULATION ANALYSIS *
                     *******************************

-------------------------------------------
LOEWDIN ATOMIC CHARGES AND SPIN POPULATIONS
-------------------------------------------
   0 Li:   -0.345427    0.132352
   1 S :    0.345427    0.867648

----------------------------------------------------
LOEWDIN REDUCED ORBITAL CHARGES AND SPIN POPULATIONS
----------------------------------------------------
CHARGE
  0 Lis       :     2.233262  s :     2.233262
      pz      :     0.320296  p :     0.582513
      px      :     0.134292
      py      :     0.127925
      dz2     :     0.171459  d :     0.345878
      dxz     :     0.088585
      dyz     :     0.085772
      dx2y2   :     0.000000
      dxy     :     0.000061
      f0      :     0.070945  f :     0.183774
      f+1     :     0.057162
      f-1     :     0.055598
      f+2     :     0.000000
      f-2     :     0.000044
      f+3     :     0.000012
      f-3     :     0.000013

  1 S s       :     5.489807  s :     5.489807
      pz      :     3.694911  p :    10.144256
      px      :     3.243525
      py      :     3.205820
      dz2     :     0.013563  d :     0.015270
      dxz     :     0.000329
      dyz     :     0.000318
      dx2y2   :     0.000002
      dxy     :     0.001058
      f0      :     0.004254  f :     0.005076
      f+1     :     0.000065
      f-1     :     0.000065
      f+2     :     0.000000
      f-2     :     0.000180
      f+3     :     0.000255
      f-3     :     0.000257
      g0      :     0.000155  g :     0.000162
      g+1     :     0.000003
      g-1     :     0.000003
      g+2     :     0.000000
      g-2     :     0.000001
      g+3     :     0.000000
      g-3     :     0.000000
      g+4     :     0.000001
      g-4     :     0.000000


SPIN
  0 Lis       :    -0.012634  s :    -0.012634
      pz      :    -0.002355  p :     0.042249
      px      :     0.020214
      py      :     0.024391
      dz2     :     0.000693  d :     0.059614
      dxz     :     0.028054
      dyz     :     0.030831
      dx2y2   :     0.000000
      dxy     :     0.000037
      f0      :     0.000770  f :     0.043124
      f+1     :     0.020232
      f-1     :     0.022060
      f+2     :     0.000000
      f-2     :     0.000039
      f+3     :     0.000011
      f-3     :     0.000011

  1 S s       :     0.003837  s :     0.003837
      pz      :     0.008076  p :     0.861590
      px      :     0.406925
      py      :     0.446588
      dz2     :     0.000387  d :     0.001524
      dxz     :     0.000079
      dyz     :     0.000091
      dx2y2   :     0.000002
      dxy     :     0.000965
      f0      :     0.000013  f :     0.000700
      f+1     :     0.000004
      f-1     :     0.000010
      f+2     :     0.000000
      f-2     :     0.000172
      f+3     :     0.000250
      f-3     :     0.000251
      g0      :    -0.000002  g :    -0.000003
      g+1     :    -0.000001
      g-1     :    -0.000001
      g+2     :     0.000000
      g-2     :     0.000000
      g+3     :     0.000000
      g-3     :     0.000000
      g+4     :    -0.000000
      g-4     :    -0.000000



                      *****************************
                      * MAYER POPULATION ANALYSIS *
                      *****************************

  NA   - Mulliken gross atomic population
  ZA   - Total nuclear charge
  QA   - Mulliken gross atomic charge
  VA   - Mayer's total valence
  BVA  - Mayer's bonded valence
  FA   - Mayer's free valence

  ATOM       NA         ZA         QA         VA         BVA        FA
  0 Li     2.6557     3.0000     0.3443     1.1454     1.1412     0.0042
  1 S     16.3443    16.0000    -0.3443     2.0395     1.1412     0.8983

  Mayer bond orders larger than 0.100000
B(  0-Li,  1-S ) :   1.1412 

-------
TIMINGS
-------

Total SCF time: 0 days 0 hours 0 min 2 sec 

Total time                  ....       2.878 sec
Sum of individual times     ....       2.699 sec  ( 93.8%)

SCF preparation             ....       0.100 sec  (  3.5%)
Fock matrix formation       ....       1.993 sec  ( 69.3%)
  Startup                   ....       0.018 sec  (  0.9% of F)
  Coulomb formation         ....       1.126 sec  ( 56.5% of F)
  XC integration            ....       0.545 sec  ( 27.4% of F)
    XC Preparation          ....       0.000 sec  (  0.0% of XC)
    Basis function eval.    ....       0.011 sec  (  1.9% of XC)
    Density eval.           ....       0.016 sec  (  2.9% of XC)
    XC-Functional eval.     ....       0.004 sec  (  0.7% of XC)
    XC-Potential eval.      ....       0.030 sec  (  5.5% of XC)
Diagonalization             ....       0.000 sec  (  0.0%)
Density matrix formation    ....       0.122 sec  (  4.2%)
Total Energy calculation    ....       0.031 sec  (  1.1%)
Population analysis         ....       0.016 sec  (  0.5%)
Orbital Transformation      ....       0.060 sec  (  2.1%)
Orbital Orthonormalization  ....       0.000 sec  (  0.0%)
DIIS solution               ....       0.143 sec  (  5.0%)
SOSCF solution              ....       0.233 sec  (  8.1%)
Finished LeanSCF after   2.9 sec

Maximum memory used throughout the entire LEANSCF-calculation: 32.0 MB


           ************************************************************
           *        Program running with 8 parallel MPI-processes     *
           *              working on a common directory               *
           ************************************************************

------------------------------------------------------------------------------
                         ORCA PROPERTY INTEGRAL CALCULATIONS
------------------------------------------------------------------------------

GBWName                                   ... /cluster/projects/nn14654k/ylvaos/basis_set_n_funcs/functionals/lda_x/LiS/inp/LiS_lda_x_def2qzvp.gbw
Number of atoms                           ...      2
Number of basis functions                 ...    105
Max core memory                           ...   4096 MB

Dipole integrals                          ... YES
Quadrupole integrals                      ... YES
Linear momentum integrals                 ...  NO
Angular momentum integrals                ...  NO
Higher moments length integrals           ...  NO
Higher moments velocity integrals         ...  NO
Kinetic energy integrals                  ...  NO
GIAO right hand sides                     ...  NO
GIAO dipole derivative integrals          ...  NO
SOC integrals                             ...  NO
EPR diamagnetic integrals (GIAO)          ...  NO
EPR gauge integrals                       ...  NO
Field gradient integrals                  ...  NO (   0 nuclei)
Spin-dipole/Fermi contact integrals       ...  NO (   0 nuclei)
Contact density integrals                 ...  NO (   0 nuclei)
Nucleus-orbit integrals                   ...  NO (   0 nuclei)
Geometric perturbations                   ...  NO (   2 nuclei)

Choice of electric origin   ... Center of mass
Position of electric origin ... (  0.0000,  0.0000,  1.3082) 
Choice of magnetic origin   ... GIAO
Position of magnetic origin ... (  0.0000,  0.0000,  0.0000) 

Calculating integrals                     ... Electric Dipole (Length)     done (  0.0 sec)
Calculating integrals                     ... Electric Quadrupole (Length) done (  0.0 sec)

Property integrals calculated in   0.0 sec

Maximum memory used throughout the entire PROPINT-calculation: 10.1 MB
------------------------------------------------------------------------------
                           ORCA ORBITAL LOCALIZATION
------------------------------------------------------------------------------

Input orbitals are from                  ... /cluster/projects/nn14654k/ylvaos/basis_set_n_funcs/functionals/lda_x/LiS/inp/LiS_lda_x_def2qzvp.gbw
Output orbitals are to                   ... /cluster/projects/nn14654k/ylvaos/basis_set_n_funcs/functionals/lda_x/LiS/inp/LiS_lda_x_def2qzvp.loc
Max. number of iterations                ... 128
Localizations seeded randomly            ... on
Convergence tolerance                    ... 1.000e-06
Threshold for strong local MOs           ... 9.500e-01
Threshold for bond MOs                   ... 8.500e-01
Operator                                 ... 0
Orbital range for localization           ... 5 to 9
Localization criterion                   ... NEW-BOYS
Doing the dipole integrals               ... o.k.
Initial value of the localization sum :    12.278769
ITERATION   0 : L=   15.5058763760 DL=  3.23e+00 (AVERGE_DL)=    0.5680763290 
ITERATION   1 : L=   15.7328428616 DL=  2.27e-01 (AVERGE_DL)=    0.1506540692 
ITERATION   2 : L=   15.7742592493 DL=  4.14e-02 (AVERGE_DL)=    0.0643555651 
ITERATION   3 : L=   15.8150264710 DL=  4.08e-02 (AVERGE_DL)=    0.0638492143 
ITERATION   4 : L=   15.8382863857 DL=  2.33e-02 (AVERGE_DL)=    0.0482285338 
ITERATION   5 : L=   15.8535781654 DL=  1.53e-02 (AVERGE_DL)=    0.0391047052 
ITERATION   6 : L=   15.8624415870 DL=  8.86e-03 (AVERGE_DL)=    0.0297714992 
ITERATION   7 : L=   15.8675981315 DL=  5.16e-03 (AVERGE_DL)=    0.0227080260 
ITERATION   8 : L=   15.8705468878 DL=  2.95e-03 (AVERGE_DL)=    0.0171719431 
ITERATION   9 : L=   15.8722374678 DL=  1.69e-03 (AVERGE_DL)=    0.0130022307 
ITERATION  10 : L=   15.8732087680 DL=  9.71e-04 (AVERGE_DL)=    0.0098554562 
ITERATION  11 : L=   15.8737694354 DL=  5.61e-04 (AVERGE_DL)=    0.0074877727 
ITERATION  12 : L=   15.8740945483 DL=  3.25e-04 (AVERGE_DL)=    0.0057018670 
ITERATION  13 : L=   15.8742839299 DL=  1.89e-04 (AVERGE_DL)=    0.0043517994 
ITERATION  14 : L=   15.8743947257 DL=  1.11e-04 (AVERGE_DL)=    0.0033286004 
ITERATION  15 : L=   15.8744598289 DL=  6.51e-05 (AVERGE_DL)=    0.0025515330 
ITERATION  16 : L=   15.8744982633 DL=  3.84e-05 (AVERGE_DL)=    0.0019604712 
ITERATION  17 : L=   15.8745210823 DL=  2.28e-05 (AVERGE_DL)=    0.0015105939 
ITERATION  18 : L=   15.8745347321 DL=  1.36e-05 (AVERGE_DL)=    0.0011683263 
ITERATION  19 : L=   15.8745429858 DL=  8.25e-06 (AVERGE_DL)=    0.0009084945 
ITERATION  20 : L=   15.8745480576 DL=  5.07e-06 (AVERGE_DL)=    0.0007121649 
ITERATION  21 : L=   15.8745512511 DL=  3.19e-06 (AVERGE_DL)=    0.0005651113 
ITERATION  22 : L=   15.8745533366 DL=  2.09e-06 (AVERGE_DL)=    0.0004566770 
ITERATION  23 : L=   15.8745547690 DL=  1.43e-06 (AVERGE_DL)=    0.0003784666 
ITERATION  24 : L=   15.8745558192 DL=  1.05e-06 (AVERGE_DL)=    0.0003240739 
ITERATION  25 : L=   15.8745566489 DL=  8.30e-07 (AVERGE_DL)=    0.0002880503 
LOCALIZATION SUM CONVERGED


--------------------------------------------------------------------------------
                    LOCALIZED MOLECULAR ORBITAL COMPOSITIONS
--------------------------------------------------------------------------------

The Mulliken populations for each LMO on each atom are computed
The LMO`s will be ordered according to atom index and type
  (A) Strongly localized MO`s have populations of >=0.950 on one atom
  (B) Two center bond orbitals have populations of >=0.850 on two atoms
  (C) Other MO`s are considered to be `delocalized`

FOUND  -   2 strongly local MO`s
       -   3 two center bond MO`s
       -   0 significantly delocalized MO`s

Rather strongly localized orbitals:
MO   6:   1S  -   0.967963
MO   5:   0Li -   0.996117
Bond-like localized orbitals:
MO   9:   1S  -   0.905525  and   0Li -   0.094475
MO   8:   1S  -   0.884516  and   0Li -   0.115484
MO   7:   1S  -   0.904305  and   0Li -   0.095695
Localized MO's were stored in: /cluster/projects/nn14654k/ylvaos/basis_set_n_funcs/functionals/lda_x/LiS/inp/LiS_lda_x_def2qzvp.loc
------------------------------------------------------------------------------
                           ORCA ORBITAL LOCALIZATION
------------------------------------------------------------------------------

Input orbitals are from                  ... /cluster/projects/nn14654k/ylvaos/basis_set_n_funcs/functionals/lda_x/LiS/inp/LiS_lda_x_def2qzvp.loc
Output orbitals are to                   ... /cluster/projects/nn14654k/ylvaos/basis_set_n_funcs/functionals/lda_x/LiS/inp/LiS_lda_x_def2qzvp.loc
Max. number of iterations                ... 128
Localizations seeded randomly            ... on
Convergence tolerance                    ... 1.000e-06
Threshold for strong local MOs           ... 9.500e-01
Threshold for bond MOs                   ... 8.500e-01
Operator                                 ... 1
Orbital range for localization           ... 5 to 8
Localization criterion                   ... NEW-BOYS
Doing the dipole integrals               ... o.k.
Initial value of the localization sum :    11.918258
ITERATION   0 : L=   14.7502074312 DL=  2.83e+00 (AVERGE_DL)=    0.6870164289 
ITERATION   1 : L=   14.8079222563 DL=  5.77e-02 (AVERGE_DL)=    0.0980772018 
ITERATION   2 : L=   14.8510179609 DL=  4.31e-02 (AVERGE_DL)=    0.0847503240 
ITERATION   3 : L=   14.9657752128 DL=  1.15e-01 (AVERGE_DL)=    0.1382975367 
ITERATION   4 : L=   15.1518662128 DL=  1.86e-01 (AVERGE_DL)=    0.1761112338 
ITERATION   5 : L=   15.2827170848 DL=  1.31e-01 (AVERGE_DL)=    0.1476769402 
ITERATION   6 : L=   15.3360212929 DL=  5.33e-02 (AVERGE_DL)=    0.0942551573 
ITERATION   7 : L=   15.3539221886 DL=  1.79e-02 (AVERGE_DL)=    0.0546212653 
ITERATION   8 : L=   15.3596813812 DL=  5.76e-03 (AVERGE_DL)=    0.0309816949 
ITERATION   9 : L=   15.3615284689 DL=  1.85e-03 (AVERGE_DL)=    0.0175455966 
ITERATION  10 : L=   15.3621235335 DL=  5.95e-04 (AVERGE_DL)=    0.0099587868 
ITERATION  11 : L=   15.3623160953 DL=  1.93e-04 (AVERGE_DL)=    0.0056651235 
ITERATION  12 : L=   15.3623786024 DL=  6.25e-05 (AVERGE_DL)=    0.0032276713 
ITERATION  13 : L=   15.3623989327 DL=  2.03e-05 (AVERGE_DL)=    0.0018407525 
ITERATION  14 : L=   15.3624055528 DL=  6.62e-06 (AVERGE_DL)=    0.0010504069 
ITERATION  15 : L=   15.3624077101 DL=  2.16e-06 (AVERGE_DL)=    0.0005996312 
ITERATION  16 : L=   15.3624084132 DL=  7.03e-07 (AVERGE_DL)=    0.0003423188 
LOCALIZATION SUM CONVERGED


--------------------------------------------------------------------------------
                    LOCALIZED MOLECULAR ORBITAL COMPOSITIONS
--------------------------------------------------------------------------------

The Mulliken populations for each LMO on each atom are computed
The LMO`s will be ordered according to atom index and type
  (A) Strongly localized MO`s have populations of >=0.950 on one atom
  (B) Two center bond orbitals have populations of >=0.850 on two atoms
  (C) Other MO`s are considered to be `delocalized`

FOUND  -   2 strongly local MO`s
       -   2 two center bond MO`s
       -   0 significantly delocalized MO`s

Rather strongly localized orbitals:
MO   6:   1S  -   0.978257
MO   5:   0Li -   0.996312
Bond-like localized orbitals:
MO   8:   1S  -   0.847502  and   0Li -   0.152498
MO   7:   1S  -   0.847393  and   0Li -   0.152607
Localized MO's were stored in: /cluster/projects/nn14654k/ylvaos/basis_set_n_funcs/functionals/lda_x/LiS/inp/LiS_lda_x_def2qzvp.loc

-------------------------   --------------------
FINAL SINGLE POINT ENERGY      -402.811523591696
-------------------------   --------------------



           ************************************************************
           *        Program running with 8 parallel MPI-processes     *
           *              working on a common directory               *
           ************************************************************

------------------------------------------------------------------------------
                              ORCA PROPERTY CALCULATIONS
------------------------------------------------------------------------------

GBWName                                 ... /cluster/projects/nn14654k/ylvaos/basis_set_n_funcs/functionals/lda_x/LiS/inp/LiS_lda_x_def2qzvp.gbw
Number of atoms                         ...      2
Number of basis functions               ...    105
Max core memory                         ...   4096 MB

Electric properties:
Dipole moment                           ... YES
Quadrupole moment                       ... YES
Static polarizability (Dipole/Dipole)   ...  NO
Static polarizability (Dipole/Quad.)    ...  NO
Static polarizability (Quad./Quad.)     ...  NO
Static polarizability (Velocity)        ...  NO
Static hyperpolarizability              ...  NO

Atomic electric properties:
Dipole moment                           ...  NO
Quadrupole moment                       ...  NO
Static polarizability                   ...  NO

Choice of electric origin               ... Center of mass
Position of electric origin             ...     0.000000     0.000000     1.308198

General magnetic properties:
Magnetizability                         ...  NO

EPR properties:
g-Tensor (aka g-matrix)                 ...  NO
Zero-Field splitting spin-orbit         ...  NO
Zero-field splitting spin-spin          ...  NO
Hyperfine couplings                     ...  NO (   0 nuclei)
Quadrupole couplings                    ...  NO (   0 nuclei)
Contact density                         ...  NO (   0 nuclei)

NMR properties:
Chemical shifts                         ...  NO (   0 nuclei)
Spin-rotation constants                 ...  NO (   0 nuclei)
Spin-spin couplings                     ...  NO (   0 nuclei,    0 pairs)

Choice of magnetic origin               ... GIAO
Position of magnetic origin             ...     0.000000     0.000000     0.000000

Properties with geometric perturbations:
SCF Hessian                             ...  NO
IR spectrum                             ...  NO
VCD spectrum                            ...  NO
X-ray spectroscopy properties:
SCF XES/XAS/RIXS spectra                ...  NO

SCF SOC stabilization energy            ...  NO
Diagonal Born-Oppenheimer correction    ...  NO

-------------
DIPOLE MOMENT
-------------

Method             : SCF
Type of density    : Electron Density
Multiplicity       :   2
Irrep              :   0
Energy             :  -402.8115235916955044 Eh
Basis              : AO
                                X                 Y                 Z
Electronic contribution:     -0.000000000      -0.000000000      -4.115789248
Nuclear contribution   :      0.000000000       0.000000000       1.549484202
                        -----------------------------------------
Total Dipole Moment    :     -0.000000000      -0.000000000      -2.566305046
                        -----------------------------------------
Magnitude (a.u.)       :      2.566305046
Magnitude (Debye)      :      6.523029032



--------------------
Rotational spectrum 
--------------------
 
Rotational constants in cm-1:             0.000000             0.639339             0.639339 
Rotational constants in MHz :             0.000000         19166.891897         19166.891897 

Dipole components along the rotational axes: 
x,y,z [a.u.] :    -2.566305    -0.000000    -0.000000 
x,y,z [Debye]:    -6.523029    -0.000000    -0.000000 

 

Dipole moment calculation done in   0.0 sec 

-----------------
QUADRUPOLE MOMENT
-----------------

Method             : SCF
Type of density    : Electron Density
Multiplicity       :   2
Irrep              :   0
Energy             :  -402.8115235916955044 Eh
Basis              : AO

                XX              YY              ZZ              XY              XZ              YZ
  NUC        0.000000000     0.000000000    41.817245673     0.000000000     0.000000000     0.000000000
  EL       -13.671888525   -13.544142986   -45.750128832    -1.316441063    -0.000000001    -0.000000001
  TOT      -13.671888525   -13.544142986    -3.932883159    -1.316441063    -0.000000001    -0.000000001 (a.u.)
           -18.389157645   -18.217335525    -5.289862353    -1.770658252    -0.000000001    -0.000000002 (Buckingham)

diagonalized tensor:
           -14.926005438   -12.290026073    -3.932883159 (a.u.)
           -20.075987783   -16.530505388    -5.289862353 (Buckingham)
           -18.331607826    -7.695160639    26.026768465 (traceless form in Buckingham)

            -0.724038075    -0.689760006    -0.000000000
            -0.689760006     0.724038075    -0.000000000
            -0.000000000     0.000000000     1.000000000
        
Isotropic quadrupole :   -10.382971556

Quadrupole moment calculation done in   0.0 sec (  0.0 sec for integrals)

Maximum memory used throughout the entire PROP-calculation: 4.9 MB

--------------------------------
SUGGESTED CITATIONS FOR THIS RUN
--------------------------------

Below you find a list of papers that are relevant to this ORCA run
We neither can nor want to force you to cite these papers, but we appreciate if you do
You receive ORCA, which is the product of decades of hard work by many enthusiastic individuals, for free
The only thing we kindly ask in return is that you cite our papers,
We deeply appreciate it, if you show your appreciation for ORCA by not just citing the generic ORCA reference.

Please note that relegating all ORCA citations to the supporting information does *not* help us.
SI sections are not indexed - citations you put there will not count into any citation statistics
But we need these citations in order to attract the funding resources that allow us to do what we are doing

Therefore, if you are a happy ORCA user, please consider citing a few of the papers listed below in the main body of your paper

In addition to the list printed below, the program has created the file /cluster/projects/nn14654k/ylvaos/basis_set_n_funcs/functionals/lda_x/LiS/inp/LiS_lda_x_def2qzvp.bibtex that contains the list in bibtex format
You can import this file easily into all common literature databanks and citation aid programs

It goes without saying that in many instances, there are alternative algorithms to achieve similar
results as the ones you have gotten from ORCA. It is, of course, also the case that in some instances
ORCA just re-implements algorithms worked out by others. We are fully aware of that and we are also
fully appreciative of our colleagues work. Hence this citation list should not be read as indicating
that the listed papers, which are focused on our own work, are the only ones worth citing. It simply
meant to make it easier for users to cite ORCA specific papers. It is not a substitute for doing your
own literature research and citing the relevant literature in a scientifically appropriate manner.

List of essential papers. We consider these as the minimum necessary citations

  1. Neese, F.
     Software update: the ORCA program system, version 6.0
     WIRES Comput. Molec. Sci. 2025 15(1), e70019
     doi.org/10.1002/wcms.70019

List of papers to cite with high priority. The work reported in these papers was absolutely
necessary for this run to complete.
Our perspective: the developers of density functionals and basis sets usually get cited in chemistry papers
Good! But without the algorithms to do something with them, the functionals or basis sets would not do anything.
Hence, in our opinion, the algorithm design and method developments papers are equally worthy of getting cited

  1. Lehtola, S.; Steigemann, C.; Oliveira, M.; Marques, M.
     Recent developments in Libxc - A comprehensive library of functionals for density functional theory
     Software X 2018 7 , 
     doi.org/10.1016/j.softx.2017.11.002
  2. Neese, F.
     The SHARK Integral Generation and Digestion System
     J. Comp. Chem. 2022 44(3), 381
     doi.org/10.1002/jcc.26942

List of suggested additional citations. These are papers that are important in the 'surrounding' of 
of this run, or papers that preceded the highly important papers. If you like your results we are grateful for a citation.

  1. Neese, F.
     The ORCA program system
     WIRES Comput. Molec. Sci. 2012 2(1), 73-78
     doi.org/10.1002/wcms.81
  2. Neese, F.
     Software update: the ORCA program system, version 4.0
     WIRES Comput. Molec. Sci. 2018 8(1), 1-6
     doi.org/10.1002/wcms.1327
  3. Neese, F.; Wennmohs, F.; Becker, U.; Riplinger, C.
     The ORCA quantum chemistry program package
     J. Chem. Phys. 2020 152(22), 224108
     doi.org/10.1063/5.0004608
  4. Neese, F.
     Software update: The ORCA program system—Version 5.0
     WIRES Comput. Molec. Sci. 2022 12(1), e1606
     doi.org/10.1002/wcms.1606

List of optional additional citations

  1. Neese, F.
     Approximate second-order SCF convergence for spin unrestricted wavefunctions
     Chem. Phys. Lett. 2000 325(1-3), 93-98
     doi.org/10.1016/s0009-2614(00)00662-x

Timings for individual modules:

Sum of individual times          ...        4.361 sec (=   0.073 min)
Startup calculation              ...        0.347 sec (=   0.006 min)   8.0 %
SCF iterations                   ...        3.472 sec (=   0.058 min)  79.6 %
Property integrals               ...        0.276 sec (=   0.005 min)   6.3 %
Property calculations            ...        0.258 sec (=   0.004 min)   5.9 %
Orbital localization             ...        0.007 sec (=   0.000 min)   0.2 %
                             ****ORCA TERMINATED NORMALLY****
TOTAL RUN TIME: 0 days 0 hours 0 minutes 5 seconds 630 msec
