
                                 *****************
                                 * O   R   C   A *
                                 *****************

                                            #,                                       
                                            ###                                      
                                            ####                                     
                                            #####                                    
                                            ######                                   
                                           ########,                                 
                                     ,,################,,,,,                         
                               ,,#################################,,                 
                          ,,##########################################,,             
                       ,#########################################, ''#####,          
                    ,#############################################,,   '####,        
                  ,##################################################,,,,####,       
                ,###########''''           ''''###############################       
              ,#####''   ,,,,##########,,,,          '''####'''          '####       
            ,##' ,,,,###########################,,,                        '##       
           ' ,,###''''                  '''############,,,                           
         ,,##''                                '''############,,,,        ,,,,,,###''
      ,#''                                            '''#######################'''  
     '                                                          ''''####''''         
             ,#######,   #######,   ,#######,      ##                                
            ,#'     '#,  ##    ##  ,#'     '#,    #''#        ,####,    ,#,          
            ##       ##  ##   ,#'  ##            #'  '#       #'       ,# #          
            ##       ##  #######   ##           ,######,      #####,      #          
            '#,     ,#'  ##    ##  '#,     ,#' ,#      #,     #,   #      #          
             '#######'   ##     ##  '#######'  #'      '#     '####' #    #          



                #########################################################
                #                        -***-                          #
                #          Department of theory and spectroscopy        #
                #                                                       #
                #                      Frank Neese                      #
                #                                                       #
                #     Directorship, Architecture, Infrastructure        #
                #                    SHARK, DRIVERS                     #
                #        Core code/Algorithms in most modules           #
                #                                                       #
                #        Max Planck Institute fuer Kohlenforschung      #
                #                Kaiser Wilhelm Platz 1                 #
                #                 D-45470 Muelheim/Ruhr                 #
                #                      Germany                          #
                #                                                       #
                #                  All rights reserved                  #
                #                        -***-                          #
                #########################################################


                         Program Version 6.1.1  -  RELEASE   -
                                (GIT: $487d211c$)
                          ($2025-11-21 10:33:24 +0100$)


 With contributions from (in alphabetic order):
[Max-Planck-Institut fuer Kohlenforschung]                               
  Daniel Aravena         : Magnetic Suceptibility                        
  Michael Atanasov       : Ab Initio Ligand Field Theory (pilot matlab implementation)
  Alexander A. Auer      : GIAO ZORA, VPT2 properties, NMR spectrum      
  Ute Becker             : All parallelization in ORCA, NUMFREQ, NUMCALC 
  Giovanni Bistoni       : ED, misc. LED, open-shell LED, HFLD           
  Dmytro Bykov           : pre 5.0 version of the SCF Hessian            
  Marcos Casanova-Páez   : Triplet and SCS-CIS(D). UHF-(DLPNO)-IP/EA/STEOM-CCSD. UHF-CVS-IP/STEOM-CCSD   
  Vijay G. Chilkuri      : MRCI spin determinant printing, contributions to CSF-ICE 
  Pauline Colinet        : FMM embedding                                 
  Dipayan Datta          : RHF DLPNO-CCSD density                        
  Achintya Kumar Dutta   : EOM-CC, STEOM-CC                              
  Nicolas Foglia         : Exact transition moments, OPA infrastructure, MCD improvements    
  Dmitry Ganyushin       : Spin-Orbit,Spin-Spin,Magnetic field MRCI      
  Miquel Garcia-Rates    : C-PCM and meta-GGA Hessian, CCSD/C-PCM, Gaussian charge scheme 
  Tiago L. C. Gouveia    : GS-ROHF, GS-ROCIS                             
  Yang Guo               : DLPNO-NEVPT2, F12-NEVPT2, CIM, IAO-localization        
  Andreas Hansen         : Spin unrestricted coupled pair/coupled cluster methods 
  Ingolf Harden          : AUTO-CI MPn and infrastructure                
  Benjamin Helmich-Paris : MC-RPA, TRAH-(SCF,CASSCF), AVAS, COSX integrals, SCF dyn. polar., MC-PDFT, srDFT 
  Lee Huntington         : MR-EOM, pCC                                   
  Robert Izsak           : Overlap fitted RIJCOSX, COSX-SCS-MP3, EOM     
  Riya Kayal             : Wick's Theorem for AUTO-CI, AUTO-CI UHF-CCSDT 
  Emily Kempfer          : AUTO-CI RHF CISDT and CCSDT, approximate NEVPT4
  Christian Kollmar      : KDIIS, OOCD, Brueckner-CCSD(T), CCSD density, CASPT2, CASPT2-K, improved NEVPT2 
  Axel Koslowski         : Symmetry handling                             
  Simone Kossmann        : meta-GGA functionals, TD-DFT gradient, OOMP2, (MP2 Hessian; deprecated post 5.0) 
  Lucas Lang             : DCDCAS, Hyperfine gauge corrections, ICE-SOC+SSC
  Marvin Lechner         : AUTO-CI (C++ implementation), FIC-MRCC        
  Spencer Leger          : CASSCF response                               
  Dagmar Lenk            : GEPOL surface, SMD, ORCA-2-JSON               
  Dimitrios Liakos       : Extrapolation schemes; Compound Job, Property file
  Dimitrios Manganas     : Further ROCIS development; embedding schemes. LFT, Crystal Embedding 
  Dimitrios Pantazis     : SARC Basis sets                               
  Anastasios Papadopoulos: AUTO-CI, single reference methods and gradients 
  Taras Petrenko         : pre 6.0 DFT Hessian and TD-DFT gradient,  ECA, NRVS 
  Petra Pikulova         : Analytic Raman intensities                    
  Peter Pinski           : DLPNO-MP2, DLPNO-MP2 Gradient                 
  Shashank Vittal Rao    : ES-AILFT, MagRelax                            
  Christoph Reimann      : Effective Core Potentials                     
  Marius Retegan         : Local ZFS, SOC                                
  Christoph Riplinger    : Optimizer, TS searches, QM/MM, DLPNO-CCSD(T), (RO)-DLPNO pert. Triples 
  Michael Roemelt        : Original ROCIS implementation, recursive CI coupling coefficients
  Masaaki Saitow         : Open-shell DLPNO-CCSD energy and density      
  Barbara Sandhoefer     : DKH picture change effects                    
  Yorick L. A. Schmerwitz: GMF and freeze-and-release deltaSCF, NEB S-IDPP initial path                    
  Kantharuban Sivalingam : CASSCF convergence/infrastructure, NEVPT2, NEVPT3, NEVPT4(SD), FIC-MRCI and CEPA variants
  Bernardo de Souza      : ESD, SOC TD-DFT                               
  Georgi L. Stoychev     : AutoAux, RI-MP2 NMR, DLPNO-MP2 response, X2C  
  Van Anh Tran           : RI-MP2 g-tensors                              
  Willem Van den Heuvel  : Paramagnetic NMR                              
  Zikuan Wang            : NOTCH, Electric field optimization            
  Frank Wennmohs         : Technical directorship and infrastructure     
  Hang Xu                : AUTO-CI-Response properties                   
                                                                         
[FACCTs GmbH]                                                            
  Markus Bursch, Nicolas Foglia, Miquel Garcia-Rates, Ingolf Harden, Hagen Neugebauer, Anastasios Papadopoulos, 
  Christoph Riplinger, Bernardo de Souza, Georgi L. Stoychev                                                    
                                                                 
  APM, various basis sets, CI-OPT, improved COSX, DLPNO-Multilevel,           
  DOCKER, DRACO, updates on ESD, Fragmentator, GOAT, IRC, LR-CPCM, L-BFGS, MBIS, meta-GGA TD-DFT gradient, ML-optimized integration grids, 
  MM, NACMEs, nearIR, NEB, NEB-TS, NL-DFT gradient (VV10), 2- and 3-layer-ONIOM, interface openCOSMO-RS, QMMM,   
  Crystal-QMMM, RESP, rigid body optimization, SF, symmetry and pop. for TD-DFT, various functionals, SOLVATOR                                   
                                                                         
[Other institutions]                                                     
  V. Asgeirsson          : NEB                                           
  Christoph Bannwarth    : sTDA-DFT, sTD-DFT, PBEh-3c, B97-3c, D3        
  Giovanni Bistoni       : ETS/NOCV, ADLD/ADEX, COVALED                  
  Martin Brehm           : Molecular dynamics                            
  Ronald Cardenas        : ETS/NOCV                                      
  Martina Colucci        : COVALED                                       
  Sebastian Ehlert       : rSCAN, r2SCAN, r2SCAN-3c, D4, dhf basis sets  
  Marvin Friede          : D4 for Fr, Ra, Ac-Lr                          
  Lars Goerigk           : TD-DFT with DH, B97 family of functionals     
  Stefan Grimme          : VdW corrections, initial TS optimization, DFT functionals, gCP, sTDA/sTD-DF 
  Waldemar Hujo          : DFT-NL                                        
  H. Jonsson             : NEB                                           
  Holger Kruse           : gCP                                           
  Marcel Mueller         : wB97X-3c, vDZP basis set                      
  Hagen Neugebauer       : wr2SCAN, Native XTB                           
  Gianluca Regni         : ADLD/ADEX                                     
  Tobias Risthaus        : pre 6.0 range-separated hybrid DFT and stability analysis
  Lukas Wittmann         : regularized MP2, r2SCAN double-hybrids, wr2SCAN        
                                                                         
We gratefully acknowledge several colleagues who have allowed us to      
interface, adapt or use parts of their codes:                            
  Ed Valeev, F. Pavosevic, A. Kumar             : LibInt (2-el integral package), F12 methods 
  Garnet Chan, S. Sharma, J. Yang, R. Olivares  : DMRG                   
  Ulf Ekstrom                                   : XCFun DFT Library      
  Mihaly Kallay                                 : mrcc  (arbitrary order and MRCC methods)
  Frank Weinhold                                : gennbo (NPA and NBO analysis)           
  Simon Mueller                                 : openCOSMO-RS                            
  Christopher J. Cramer and Donald G. Truhlar   : smd solvation model                     
  S Lehtola, MJT Oliveira, MAL Marques          : LibXC Library                           
  Liviu Ungur et al                             : ANISO software                          


 Your calculation uses the libint2 library for the computation of 2-el integrals
 For citations please refer to: http://libint.valeyev.net

 Your ORCA version has been built with support for libXC version: 7.0.0
 For citations please refer to: https://libxc.gitlab.io

 This ORCA versions uses:
   CBLAS   interface :  Fast vector & matrix operations
   LAPACKE interface :  Fast linear algebra routines
   SCALAPACK package :  Parallel linear algebra routines
   Shared memory     :  Shared parallel matrices
   BLAS/LAPACK       :  OpenBLAS 0.3.29  USE64BITINT DYNAMIC_ARCH NO_AFFINITY Cooperlake SINGLE_THREADED
        Core in use  :  Cooperlake
   Copyright (c) 2011-2014, The OpenBLAS Project


  ***********************************
  * Starting time: Wed May 20 12:36:34 2026
  * Host name:     c1-4
  * Process ID:    525830
  * Working dir.:  /cluster/projects/nn14654k/ylvaos/basis_set_n_funcs/functionals/lda_x/LiS/out
  ***********************************

Using LibXC functional ID   1 : Slater exchange
[ 1]  P. A. M. Dirac.,  Math. Proc. Cambridge Philos. Soc. 26, 376 (1930)
[ 2]  F. Bloch.,  Z. Phys. 57, 545 (1929)
Using LibXC functional ID   1 : Slater exchange
[ 1]  P. A. M. Dirac.,  Math. Proc. Cambridge Philos. Soc. 26, 376 (1930)
[ 2]  F. Bloch.,  Z. Phys. 57, 545 (1929)
Your calculation utilizes LibXC
by S. Lehtola, C. Steigemann, M. J. T. Oliveira & M. A. L. Marques
Please cite in your paper:
Lehtola, S.; Steigemann, C.; Oliveira, M.J.T.; Marques, M. A. L. Software X, 7, (2018), 1.
   

================================================================================

----- Orbital basis set information -----
Your calculation utilizes the basis: aug-cc-pVTZ 
    H, B-Ne : Obtained from the ccRepo (grant-hill.group.shef.ac.uk/ccrepo) Feb. 2017
              R. A. Kendall, T. H. Dunning, Jr., R. J. Harrison, J. Chem. Phys. 96, 6796 (1992)
         He : Obtained from the ccRepo (grant-hill.group.shef.ac.uk/ccrepo) Feb. 2017
              D. E. Woon, T. H. Dunning, Jr., J. Chem. Phys. 100, 2975 (1994)
  Li-Be, Na : Obtained from the ccRepo (grant-hill.group.shef.ac.uk/ccrepo) Feb. 2017
              B. P. Prascher, D. E. Woon, K. A. Peterson, T. H. Dunning, Jr., A. K. Wilson, Theor. Chem. Acc. 128, 69 (2011)
         Mg : Obtained from the Peterson Research Group Website (tyr0.chem.wsu.edu/~kipeters) Feb. 2017
              B. P. Prascher, D. E. Woon, K. A. Peterson, T. H. Dunning, Jr., A. K. Wilson, Theor. Chem. Acc. 128, 69 (2011)
      Al-Ar : Obtained from the ccRepo (grant-hill.group.shef.ac.uk/ccrepo) Feb. 2017
              D. E. Woon, T. H. Dunning, Jr., J. Chem. Phys. 98, 1358 (1993)
      Sc-Zn : Obtained from the ccRepo (grant-hill.group.shef.ac.uk/ccrepo) Feb. 2017
              N. B. Balabanov, K. A. Peterson, J. Chem. Phys. 123, 064107 (2005)
              N. B. Balabanov, K. A. Peterson, J. Chem. Phys. 125, 074110 (2006)
      Ga-Kr : Obtained from the ccRepo (grant-hill.group.shef.ac.uk/ccrepo) Feb. 2017
              A. K. Wilson, D. E. Woon, K. A. Peterson, T. H. Dunning, Jr., J. Chem. Phys. 110, 7667 (1999)
     Ag, Au : Obtained from the Peterson Research Group Website (tyr0.chem.wsu.edu/~kipeters) Feb. 2017
              K. A. Peterson, C. Puzzarini, Theor. Chem. Acc. 114, 283 (2005)

================================================================================
                                        WARNINGS
                       Please study these warnings very carefully!
================================================================================


WARNING: your system is open-shell and RHF/RKS was chosen
  ===> : WILL SWITCH to UHF/UKS


================================================================================
                                       INPUT FILE
================================================================================
NAME = /cluster/projects/nn14654k/ylvaos/basis_set_n_funcs/functionals/lda_x/LiS/inp/LiS_lda_x_augccpvtz.inp
|  1> ! dft aug-cc-pVTZ TightSCF
|  2> %pal nprocs 8 end
|  3> 
|  4> %loc
|  5>   LocMet NewBoys
|  6>   Occ true
|  7> end
|  8> 
|  9> %method
| 10>   exchange lda_x
| 11>   correlation None
| 12> end
| 13> 
| 14> %elprop
| 15>   Dipole true
| 16>   Quadrupole true
| 17> end
| 18> 
| 19> * xyz 0 2
| 20> Li    0.000000000000   0.000000000000  -1.074850000000
| 21> S    0.000000000000   0.000000000000   1.074850000000
| 22> *
| 23> 
| 24> 
| 25>                          ****END OF INPUT****
================================================================================

                       ****************************
                       * Single Point Calculation *
                       ****************************

---------------------------------
CARTESIAN COORDINATES (ANGSTROEM)
---------------------------------
  Li     0.000000    0.000000   -1.074850
  S      0.000000    0.000000    1.074850

----------------------------
CARTESIAN COORDINATES (A.U.)
----------------------------
  NO LB      ZA    FRAG     MASS         X           Y           Z
   0 Li    3.0000    0     6.941    0.000000    0.000000   -2.031172
   1 S    16.0000    0    32.060    0.000000    0.000000    2.031172

--------------------------------
INTERNAL COORDINATES (ANGSTROEM)
--------------------------------
 Li     0   0   0     0.000000000000     0.00000000     0.00000000
 S      1   0   0     2.149700000000     0.00000000     0.00000000

---------------------------
INTERNAL COORDINATES (A.U.)
---------------------------
 Li     0   0   0     0.000000000000     0.00000000     0.00000000
 S      1   0   0     4.062344270091     0.00000000     0.00000000

---------------------
BASIS SET INFORMATION
---------------------
There are 2 groups of distinct atoms

 Group   1 Type Li  : 21s6p3d2f contracted to 5s4p3d2f pattern {99111/3111/111/11}
 Group   2 Type S   : 42s17p3d2f contracted to 6s5p3d2f pattern {131313111/77111/111/11}

Atom   0Li   basis set group =>   1
Atom   1S    basis set group =>   2


           ************************************************************
           *        Program running with 8 parallel MPI-processes     *
           *              working on a common directory               *
           ************************************************************
------------------------------------------------------------------------------
                             ORCA STARTUP CALCULATIONS
------------------------------------------------------------------------------
------------------------------------------------------------------------------
                   ___                                                        
                  /   \      - P O W E R E D   B Y -                         
                 /     \                                                     
                 |  |  |   _    _      __       _____    __    __             
                 |  |  |  | |  | |    /  \     |  _  \  |  |  /  |          
                  \  \/   | |  | |   /    \    | | | |  |  | /  /          
                 / \  \   | |__| |  /  /\  \   | |_| |  |  |/  /          
                |  |  |   |  __  | /  /__\  \  |    /   |      \           
                |  |  |   | |  | | |   __   |  |    \   |  |\   \          
                \     /   | |  | | |  |  |  |  | |\  \  |  | \   \       
                 \___/    |_|  |_| |__|  |__|  |_| \__\ |__|  \__/        
                                                                              
                      - O R C A' S   B I G   F R I E N D -                    
                                      &                                       
                       - I N T E G R A L  F E E D E R -                       
                                                                              
 v1 FN, 2020, v2 2021, v3 2022-2024                                           
------------------------------------------------------------------------------


----------------------
SHARK INTEGRAL PACKAGE
----------------------

Number of atoms                             ...      2
Number of basis functions                   ...    128
Number of shells                            ...     52
Maximum angular momentum                    ...      3
Integral batch strategy                     ... SHARK/LIBINT Hybrid
RI-J (if used) integral strategy            ... SPLIT-RIJ (Revised 2003 algorithm where possible)
Printlevel                                  ...      1
Contraction scheme used                     ... PARTIAL GENERAL contraction
Prescreening option                         ... SCHWARTZ
   Thresh                                   ... 2.500e-11
   Tcut                                     ... 2.500e-12
   Tpresel                                  ... 2.500e-12 
Coulomb Range Separation                    ... NOT USED
Exchange Range Separation                   ... NOT USED
Multipole approximations                    ... NOT USED
Finite Nucleus Model                        ... NOT USED
CABS basis                                  ... NOT available
Auxiliary Coulomb fitting basis             ... NOT available
Auxiliary J/K fitting basis                 ... NOT available
Auxiliary Correlation fitting basis         ... NOT available
Auxiliary 'external' fitting basis          ... NOT available

Checking pre-screening integrals            ... done (  0.0 sec) Dimension = 52
Save PGC pre-screening integrals            ... done (  0.0 sec) Dimension = 52
Calculate PGC overlap integrals             ... done (  0.0 sec) Dimension = 30
Calculating pre-screening integrals (ORCA)  ... done (  0.1 sec) Dimension = 30
Shell pair information
Shell pair cut-off parameter TPreSel        ...   2.5e-12
Total number of shell pairs                 ...      1378
Shell pairs after pre-screening             ...      1252
Total number of primitive shell pairs       ...      1488
Primitive shell pairs kept                  ...      1346
          la=0 lb=0:    323 shell pairs
          la=1 lb=0:    351 shell pairs
          la=1 lb=1:    105 shell pairs
          la=2 lb=0:    168 shell pairs
          la=2 lb=1:     84 shell pairs
          la=2 lb=2:     21 shell pairs
          la=3 lb=0:    110 shell pairs
          la=3 lb=1:     56 shell pairs
          la=3 lb=2:     24 shell pairs
          la=3 lb=3:     10 shell pairs

Checking whether 4 symmetric matrices of dimension 128 fit in memory
:Max Core in MB      =   4096.00
 MB in use           =      3.24
 MB left             =   4092.76
 MB needed           =      0.25
 Data fit in memory  = YES
Calculating Nuclear repulsion               ... done (  0.0 sec) ENN=     11.815837557985 Eh

Diagonalization of the overlap matrix:
Smallest eigenvalue                        ... 6.724e-04
Time for diagonalization                   ...    0.001 sec
Threshold for overlap eigenvalues          ... 1.000e-07
Number of eigenvalues below threshold      ... 0
Time for construction of square roots      ...    0.002 sec
Total time needed                          ...    0.004 sec

-------------------
DFT GRID GENERATION
-------------------

General Integration Accuracy     IntAcc      ... 4.388
Radial Grid Type                 RadialGrid  ... OptM3 with GC (2021)
Angular Grid (max. ang.)         AngularGrid ... 4 (Lebedev-302)
Angular grid pruning method      GridPruning ... 4 (adaptive)
Weight generation scheme         WeightScheme... mBecke (2022)
Basis function cutoff            BFCut       ... 1.0000e-11
Integration weight cutoff        WCut        ... 1.0000e-14
Partially contracted basis set               ... off
Rotationally invariant grid construction     ... off
Angular grids for H and He will be reduced by one unit
Diffuse basis detected: some atoms will have their outermost
                        angular grid increased by 1.

Total number of grid points                  ...    14126
Total number of batches                      ...      221
Average number of points per batch           ...       63
Average number of grid points per atom       ...     7063

---------------------
SHARK GRID GENERATION
---------------------

General Integration Accuracy     IntAcc      ... 4.388
Radial Grid Type                 RadialGrid  ... OptM3 with GC (2021)
Angular Grid (max. ang.)         AngularGrid ... 4 (Lebedev-302)
Angular grid pruning method      GridPruning ... 4 (adaptive)
Weight generation scheme         WeightScheme... mBecke (2022)
Basis function cutoff            BFCut       ... 1.0000e-11
Integration weight cutoff        WCut        ... 1.0000e-14
Partially contracted basis set               ... off
Rotationally invariant grid construction     ... off
Angular grids for H and He will be reduced by one unit
Diffuse basis detected: some atoms will have their outermost
                        angular grid increased by 1.
Core-polarized basis detected: some atoms will have their core
                               angular grid increased.
Steep s-basis detected: some atoms will have their radial
                        grid points doubled.

Total number of grid points                  ...    33087
Total number of batches                      ...      518
Average number of points per batch           ...       63
Average number of grid points per atom       ...    16544
Grids setup in   0.7 sec
Initializing property integral containers    ... done (  0.0 sec)

SHARK setup successfully completed in   0.8 seconds

Maximum memory used throughout the entire STARTUP-calculation: 48.0 MB


           ************************************************************
           *        Program running with 8 parallel MPI-processes     *
           *              working on a common directory               *
           ************************************************************
-------------------------------------------------------------------------------
                                 ORCA GUESS
                   Start orbitals & Density for SCF / CASSCF
-------------------------------------------------------------------------------

------------
SCF SETTINGS
------------
Hamiltonian:
 Density Functional     Method          .... DFT(GTOs)
  Functional kind                       .... Exchange
  Functional name                       .... Slater exchange
  Functional family                     .... LDA
  Functional refs                              
    [ 0] P. A. M. Dirac.,  Math. Proc. Cambridge Philos. Soc. 26, 376 (1930), doi: 10.1017/S0305004100016108
    [ 1] F. Bloch.,  Z. Phys. 57, 545 (1929), doi: 10.1007/BF01340281
  Functional external parameters        .... 0
 Correlation Functional Correlation     .... No Correlation
 Gradients option       PostSCFGGA      .... off


General Settings:
 Integral files         IntName         .... /cluster/projects/nn14654k/ylvaos/basis_set_n_funcs/functionals/lda_x/LiS/inp/LiS_lda_x_augccpvtz
 Hartree-Fock type      HFTyp           .... UHF
 Total Charge           Charge          ....    0
 Multiplicity           Mult            ....    2
 Number of Electrons    NEL             ....   19
 Basis Dimension        Dim             ....   96
 Nuclear Repulsion      ENuc            ....     11.8158375580 Eh

Convergence Acceleration:
 AO-DIIS                CNVDIIS         .... on
   Start iteration      DIISMaxIt       ....    12
   Startup error        DIISStart       ....  0.200000
   # of expansion vecs  DIISMaxEq       ....     5
   Bias factor          DIISBfac        ....   1.050
   Max. coefficient     DIISMaxC        ....  10.000
 MO-DIIS                CNVKDIIS        .... off
 Trust-Rad. Augm. Hess. CNVTRAH         .... auto
   Auto Start mean grad. ratio tolernc. ....  1.125000
   Auto Start start iteration           ....    50
   Auto Start num. interpolation iter.  ....    10
   Max. Number of Micro iterations      ....    24
   Max. Number of Macro iterations      .... Maxiter - #DIIS iter
   Number of Davidson start vectors     ....     2
   Converg. threshold    (grad. norm)   ....   1.000e-05
   Grad. Scal. Fac. for Micro threshold ....   0.100
   Minimum threshold for Micro iter.    ....   1.000e-02
   NR start threshold (gradient norm)   ....   1.000e-04
   Initial trust radius                 ....   0.400
   Minimum AH scaling param. (alpha)    ....   1.000
   Maximum AH scaling param. (alpha)    .... 1000.000
   Quad. conv. algorithm                .... NR
   White noise on init. David. guess    .... on
   Maximum white noise                  ....   0.010
   Pseudo random numbers                .... off
   Inactive MOs                         .... canonical
   Orbital update algorithm             .... Taylor
   Preconditioner                       .... Diag
   Full preconditioner red. dimension   ....   250
 SOSCF                 CNVSOSCF           .... on
   Start iteration     SOSCFMaxIt         ....   150
   Startup grad/error  SOSCFStart         ....  0.003300
   Hessian update      SOSCFHessUp        .... L-BFGS
   Autom. constraints  SOSCFAutoConstrain .... off
 Level Shifting         CNVShift        .... on
   Level shift para.    LevelShift      ....    0.2500
   Turn off err/grad.   ShiftErr        ....    0.0010
 Zerner damping         CNVZerner       .... off
 Static damping         CNVDamp         .... on
   Fraction old density DampFac         ....    0.7000
   Max. Damping (<1)    DampMax         ....    0.9800
   Min. Damping (>=0)   DampMin         ....    0.0000
   Turn off err/grad.   DampErr         ....    0.1000

SCF Procedure:
 Maximum # iterations   MaxIter         ....   125
 SCF integral mode      SCFMode         .... Direct
   Integral package                     .... SHARK and LIBINT hybrid scheme
 Reset frequency        DirectResetFreq ....    20
 Integral Threshold     Thresh          ....  2.500e-11 Eh
 Primitive CutOff       TCut            ....  2.500e-12 Eh

Convergence Tolerance:
 Convergence Check Mode ConvCheckMode   .... Total+1el-Energy
 Convergence forced     ConvForced      .... 0
 Energy Change          TolE            ....  1.000e-08 Eh
 1-El. energy change                    ....  1.000e-05 Eh
 Orbital Gradient       TolG            ....  1.000e-05
 Orbital Rotation angle TolX            ....  1.000e-05
 DIIS Error             TolErr          ....  5.000e-07

------------------------------
INITIAL GUESS: MODEL POTENTIAL
------------------------------
Loading Hartree-Fock densities                     ... done
Calculating cut-offs                               ... done
Initializing the effective Hamiltonian             ... done
Setting up the integral package (SHARK)            ... done
Starting the Coulomb interaction                   ... done (   0.0 sec)
Making the grid                                    ... done (   0.0 sec)
Mapping shells                                     ... done
Starting the XC term evaluation                    ... done (   0.0 sec)
  promolecular density results
     # of electrons  =     18.999681821
     EX              =    -24.527411544
     EC              =      0.000000000
     EX+EC           =    -24.527411544
Transforming the Hamiltonian                       ... done (   0.0 sec)
Diagonalizing the Hamiltonian                      ... done (   0.0 sec)
Back transforming the eigenvectors                 ... done (   0.0 sec)
Now organizing SCF variables                       ... done
                      ------------------
                      INITIAL GUESS DONE (   0.1 sec)
                      ------------------
             **** ENERGY FILE WAS UPDATED (/cluster/projects/nn14654k/ylvaos/basis_set_n_funcs/functionals/lda_x/LiS/inp/LiS_lda_x_augccpvtz.en.tmp) ****
Finished Guess after   0.1 sec
Maximum memory used throughout the entire GUESS-calculation: 7.1 MB


           ************************************************************
           *        Program running with 8 parallel MPI-processes     *
           *              working on a common directory               *
           ************************************************************

-------------------------------------------------------------------------------------------
                                      ORCA LEAN-SCF
                              memory conserving SCF solver
-------------------------------------------------------------------------------------------

----------------------------------------D-I-I-S--------------------------------------------
Iteration    Energy (Eh)           Delta-E    RMSDP     MaxDP     DIISErr   Damp  Time(sec)
-------------------------------------------------------------------------------------------
               ***  Starting incremental Fock matrix formation  ***
    1    -402.7717246096434565     0.00e+00  3.02e-03  2.11e-02  4.85e-02  0.700   0.1
Warning: op=0 Small HOMO/LUMO gap (   0.058) - skipping pre-diagonalization
         Will do a full diagonalization
    2    -402.7844472238370486    -1.27e-02  2.61e-03  2.15e-02  2.66e-02  0.700   0.1
                               ***Turning on AO-DIIS***
    3    -402.7905808482125281    -6.13e-03  1.21e-03  8.46e-03  1.39e-02  0.700   0.1
    4    -402.7937164292782768    -3.14e-03  1.99e-03  1.47e-02  9.28e-03  0.000   0.1
    5    -402.8005560893137158    -6.84e-03  4.23e-04  2.77e-03  4.15e-03  0.000   0.1
                              *** Initializing SOSCF ***
---------------------------------------S-O-S-C-F--------------------------------------
Iteration    Energy (Eh)           Delta-E    RMSDP     MaxDP     MaxGrad    Time(sec)
--------------------------------------------------------------------------------------
    6    -402.8007538193476194    -1.98e-04  1.57e-04  1.08e-03  2.09e-03     0.2
               *** Restarting incremental Fock matrix formation ***
    7    -402.8008008367337425    -4.70e-05  1.54e-04  1.26e-03  8.61e-04     0.1
    8    -402.8008101341704332    -9.30e-06  1.15e-04  1.00e-03  6.14e-04     0.1
    9    -402.8008167156411332    -6.58e-06  3.10e-05  2.19e-04  1.69e-04     0.1
   10    -402.8008170622056809    -3.47e-07  1.42e-05  1.22e-04  5.88e-05     0.1
   11    -402.8008171723965916    -1.10e-07  1.01e-05  8.59e-05  4.43e-05     0.1
   12    -402.8008171939888484    -2.16e-08  3.20e-06  2.62e-05  1.56e-05     0.1
   13    -402.8008171960494224    -2.06e-09  1.18e-06  1.17e-05  3.62e-06     0.1
                 **** Energy Check signals convergence ****

               *****************************************************
               *                     SUCCESS                       *
               *           SCF CONVERGED AFTER  13 CYCLES          *
               *****************************************************

             **** ENERGY FILE WAS UPDATED (/cluster/projects/nn14654k/ylvaos/basis_set_n_funcs/functionals/lda_x/LiS/inp/LiS_lda_x_augccpvtz.en.tmp) ****

----------------
TOTAL SCF ENERGY
----------------

Total Energy       :       -402.80081719637417 Eh          -10960.76747 eV

Components:
Nuclear Repulsion  :         11.81583755798484 Eh             321.52529 eV
Electronic Energy  :       -414.61665475435899 Eh          -11282.29276 eV
One Electron Energy:       -583.70553784500112 Eh          -15883.43518 eV
Two Electron Energy:        169.08888309064213 Eh            4601.14243 eV

Virial components:
Potential Energy   :       -806.18211039882567 Eh          -21937.33050 eV
Kinetic Energy     :        403.38129320245145 Eh           10976.56303 eV
Virial Ratio       :          1.99856097440348

DFT components:
N(Alpha)           :       10.000010566342 electrons
N(Beta)            :        9.000007913886 electrons
N(Total)           :       19.000018480228 electrons
E(X)               :      -24.542576830406 Eh       
E(C)               :        0.000000000000 Eh       
E(XC)              :      -24.542576830406 Eh       

---------------
SCF CONVERGENCE
---------------

  Last Energy change         ...    2.0606e-09  Tolerance :   1.0000e-08
  Last MAX-Density change    ...    1.1709e-05  Tolerance :   1.0000e-07
  Last RMS-Density change    ...    1.1785e-06  Tolerance :   5.0000e-09
  Last DIIS Error            ...    2.0919e-03  Tolerance :   5.0000e-07
  Last Orbital Gradient      ...    3.6192e-06  Tolerance :   1.0000e-05
  Last Orbital Rotation      ...    3.0775e-05  Tolerance :   1.0000e-05


----------------------
UHF SPIN CONTAMINATION
----------------------

Warning: in a DFT calculation there is little theoretical justification to 
         calculate <S**2> as in Hartree-Fock theory. We will do it anyways
         but you should keep in mind that the values have only limited relevance

Expectation value of <S**2>     :     0.755526
Ideal value S*(S+1) for S=0.5   :     0.750000
Deviation                       :     0.005526

----------------
ORBITAL ENERGIES
----------------
                 SPIN UP ORBITALS
  NO   OCC          E(Eh)            E(eV) 
   0   1.0000     -87.614985     -2384.1249 
   1   1.0000      -7.534114      -205.0137 
   2   1.0000      -5.597699      -152.3211 
   3   1.0000      -5.581957      -151.8928 
   4   1.0000      -5.581559      -151.8820 
   5   1.0000      -1.798644       -48.9436 
   6   1.0000      -0.520841       -14.1728 
   7   1.0000      -0.188819        -5.1380 
   8   1.0000      -0.167759        -4.5649 
   9   1.0000      -0.146671        -3.9911 
  10   0.0000      -0.048914        -1.3310 
  11   0.0000      -0.000697        -0.0190 
  12   0.0000       0.002963         0.0806 
  13   0.0000       0.009546         0.2598 
  14   0.0000       0.014073         0.3829 
  15   0.0000       0.024958         0.6791 
  16   0.0000       0.027319         0.7434 
  17   0.0000       0.046583         1.2676 
  18   0.0000       0.077642         2.1127 
  19   0.0000       0.077732         2.1152 
  20   0.0000       0.079307         2.1581 

                 SPIN DOWN ORBITALS
  NO   OCC          E(Eh)            E(eV) 
   0   1.0000     -87.610235     -2383.9957 
   1   1.0000      -7.527876      -204.8439 
   2   1.0000      -5.584478      -151.9614 
   3   1.0000      -5.577458      -151.7704 
   4   1.0000      -5.576930      -151.7560 
   5   1.0000      -1.798847       -48.9491 
   6   1.0000      -0.479516       -13.0483 
   7   1.0000      -0.149138        -4.0583 
   8   1.0000      -0.128528        -3.4974 
   9   0.0000      -0.119061        -3.2398 
  10   0.0000      -0.049050        -1.3347 
  11   0.0000       0.001720         0.0468 
  12   0.0000       0.004456         0.1213 
  13   0.0000       0.009459         0.2574 
  14   0.0000       0.015495         0.4217 
  15   0.0000       0.026432         0.7192 
  16   0.0000       0.028184         0.7669 
  17   0.0000       0.049544         1.3482 
  18   0.0000       0.079673         2.1680 
  19   0.0000       0.080184         2.1819 
*Only the first 10 virtual orbitals were printed.

                    ********************************
                    * MULLIKEN POPULATION ANALYSIS *
                    ********************************

--------------------------------------------
MULLIKEN ATOMIC CHARGES AND SPIN POPULATIONS
--------------------------------------------
   0 Li:    0.247347   -0.023579
   1 S :   -0.247347    1.023579
Sum of atomic charges         :   -0.0000000
Sum of atomic spin populations:    1.0000000

-----------------------------------------------------
MULLIKEN REDUCED ORBITAL CHARGES AND SPIN POPULATIONS
-----------------------------------------------------
CHARGE
  0 Lis       :     2.320335  s :     2.320335
      pz      :     0.241815  p :     0.378231
      px      :     0.078440
      py      :     0.057976
      dz2     :     0.030806  d :     0.051672
      dxz     :     0.012100
      dyz     :     0.008718
      dx2y2   :     0.000003
      dxy     :     0.000045
      f0      :     0.003459  f :     0.002414
      f+1     :    -0.000427
      f-1     :    -0.000664
      f+2     :     0.000001
      f-2     :     0.000018
      f+3     :     0.000011
      f-3     :     0.000016

  1 S s       :     5.810565  s :     5.810565
      pz      :     3.574749  p :    10.411226
      px      :     3.527049
      py      :     3.309428
      dz2     :     0.012695  d :     0.020519
      dxz     :     0.003598
      dyz     :     0.003191
      dx2y2   :     0.000061
      dxy     :     0.000974
      f0      :     0.004261  f :     0.005037
      f+1     :    -0.000001
      f-1     :    -0.000046
      f+2     :     0.000012
      f-2     :     0.000200
      f+3     :     0.000294
      f-3     :     0.000317


SPIN
  0 Lis       :    -0.026634  s :    -0.026634
      pz      :    -0.005241  p :     0.002248
      px      :    -0.001656
      py      :     0.009146
      dz2     :     0.000016  d :     0.001672
      dxz     :     0.000143
      dyz     :     0.001488
      dx2y2   :     0.000001
      dxy     :     0.000023
      f0      :     0.000174  f :    -0.000866
      f+1     :    -0.000438
      f-1     :    -0.000640
      f+2     :     0.000001
      f-2     :     0.000017
      f+3     :     0.000010
      f-3     :     0.000011

  1 S s       :     0.010449  s :     0.010449
      pz      :     0.019593  p :     1.008556
      px      :     0.379671
      py      :     0.609292
      dz2     :     0.000419  d :     0.004022
      dxz     :     0.001034
      dyz     :     0.001627
      dx2y2   :     0.000055
      dxy     :     0.000886
      f0      :     0.000041  f :     0.000552
      f+1     :    -0.000146
      f-1     :    -0.000135
      f+2     :     0.000012
      f-2     :     0.000188
      f+3     :     0.000291
      f-3     :     0.000301



                     *******************************
                     * LOEWDIN POPULATION ANALYSIS *
                     *******************************

-------------------------------------------
LOEWDIN ATOMIC CHARGES AND SPIN POPULATIONS
-------------------------------------------
   0 Li:   -0.494740    0.183815
   1 S :    0.494740    0.816185

----------------------------------------------------
LOEWDIN REDUCED ORBITAL CHARGES AND SPIN POPULATIONS
----------------------------------------------------
CHARGE
  0 Lis       :     2.141046  s :     2.141046
      pz      :     0.316999  p :     0.575771
      px      :     0.144631
      py      :     0.114141
      dz2     :     0.222576  d :     0.457509
      dxz     :     0.126992
      dyz     :     0.107890
      dx2y2   :     0.000003
      dxy     :     0.000049
      f0      :     0.129568  f :     0.320414
      f+1     :     0.102051
      f-1     :     0.088722
      f+2     :     0.000002
      f-2     :     0.000039
      f+3     :     0.000013
      f-3     :     0.000019

  1 S s       :     5.463032  s :     5.463032
      pz      :     3.680994  p :     9.993715
      px      :     3.245819
      py      :     3.066901
      dz2     :     0.027204  d :     0.029764
      dxz     :     0.000870
      dyz     :     0.000681
      dx2y2   :     0.000059
      dxy     :     0.000949
      f0      :     0.017267  f :     0.018749
      f+1     :     0.000396
      f-1     :     0.000268
      f+2     :     0.000012
      f-2     :     0.000200
      f+3     :     0.000291
      f-3     :     0.000314


SPIN
  0 Lis       :    -0.009858  s :    -0.009858
      pz      :    -0.001422  p :     0.046480
      px      :     0.013686
      py      :     0.034216
      dz2     :     0.000236  d :     0.078069
      dxz     :     0.029645
      dyz     :     0.048158
      dx2y2   :     0.000002
      dxy     :     0.000028
      f0      :     0.000824  f :     0.069124
      f+1     :     0.026620
      f-1     :     0.041618
      f+2     :     0.000002
      f-2     :     0.000034
      f+3     :     0.000012
      f-3     :     0.000014

  1 S s       :     0.002847  s :     0.002847
      pz      :     0.005881  p :     0.811432
      px      :     0.308814
      py      :     0.496737
      dz2     :     0.000326  d :     0.001309
      dxz     :    -0.000033
      dyz     :     0.000098
      dx2y2   :     0.000054
      dxy     :     0.000864
      f0      :    -0.000015  f :     0.000597
      f+1     :    -0.000123
      f-1     :    -0.000050
      f+2     :     0.000012
      f-2     :     0.000187
      f+3     :     0.000288
      f-3     :     0.000298



                      *****************************
                      * MAYER POPULATION ANALYSIS *
                      *****************************

  NA   - Mulliken gross atomic population
  ZA   - Total nuclear charge
  QA   - Mulliken gross atomic charge
  VA   - Mayer's total valence
  BVA  - Mayer's bonded valence
  FA   - Mayer's free valence

  ATOM       NA         ZA         QA         VA         BVA        FA
  0 Li     2.7527     3.0000     0.2473     1.2145     1.2121     0.0024
  1 S     16.2473    16.0000    -0.2473     2.1629     1.2121     0.9509

  Mayer bond orders larger than 0.100000
B(  0-Li,  1-S ) :   1.2121 

-------
TIMINGS
-------

Total SCF time: 0 days 0 hours 0 min 2 sec 

Total time                  ....       2.111 sec
Sum of individual times     ....       1.746 sec  ( 82.7%)

SCF preparation             ....       0.065 sec  (  3.1%)
Fock matrix formation       ....       1.205 sec  ( 57.1%)
  Startup                   ....       0.016 sec  (  1.3% of F)
  Coulomb formation         ....       0.615 sec  ( 51.0% of F)
  XC integration            ....       0.574 sec  ( 47.6% of F)
    XC Preparation          ....       0.000 sec  (  0.0% of XC)
    Basis function eval.    ....       0.015 sec  (  2.7% of XC)
    Density eval.           ....       0.017 sec  (  2.9% of XC)
    XC-Functional eval.     ....       0.004 sec  (  0.7% of XC)
    XC-Potential eval.      ....       0.034 sec  (  6.0% of XC)
Diagonalization             ....       0.000 sec  (  0.0%)
Density matrix formation    ....       0.136 sec  (  6.4%)
Total Energy calculation    ....       0.023 sec  (  1.1%)
Population analysis         ....       0.012 sec  (  0.5%)
Orbital Transformation      ....       0.022 sec  (  1.0%)
Orbital Orthonormalization  ....       0.000 sec  (  0.0%)
DIIS solution               ....       0.160 sec  (  7.6%)
SOSCF solution              ....       0.125 sec  (  5.9%)
Finished LeanSCF after   2.1 sec

Maximum memory used throughout the entire LEANSCF-calculation: 11.4 MB


           ************************************************************
           *        Program running with 8 parallel MPI-processes     *
           *              working on a common directory               *
           ************************************************************

------------------------------------------------------------------------------
                         ORCA PROPERTY INTEGRAL CALCULATIONS
------------------------------------------------------------------------------

GBWName                                   ... /cluster/projects/nn14654k/ylvaos/basis_set_n_funcs/functionals/lda_x/LiS/inp/LiS_lda_x_augccpvtz.gbw
Number of atoms                           ...      2
Number of basis functions                 ...    128
Max core memory                           ...   4096 MB

Dipole integrals                          ... YES
Quadrupole integrals                      ... YES
Linear momentum integrals                 ...  NO
Angular momentum integrals                ...  NO
Higher moments length integrals           ...  NO
Higher moments velocity integrals         ...  NO
Kinetic energy integrals                  ...  NO
GIAO right hand sides                     ...  NO
GIAO dipole derivative integrals          ...  NO
SOC integrals                             ...  NO
EPR diamagnetic integrals (GIAO)          ...  NO
EPR gauge integrals                       ...  NO
Field gradient integrals                  ...  NO (   0 nuclei)
Spin-dipole/Fermi contact integrals       ...  NO (   0 nuclei)
Contact density integrals                 ...  NO (   0 nuclei)
Nucleus-orbit integrals                   ...  NO (   0 nuclei)
Geometric perturbations                   ...  NO (   2 nuclei)

Choice of electric origin   ... Center of mass
Position of electric origin ... (  0.0000,  0.0000,  1.3082) 
Choice of magnetic origin   ... GIAO
Position of magnetic origin ... (  0.0000,  0.0000,  0.0000) 

Calculating integrals                     ... Electric Dipole (Length)     done (  0.0 sec)
Calculating integrals                     ... Electric Quadrupole (Length) done (  0.0 sec)

Property integrals calculated in   0.0 sec

Maximum memory used throughout the entire PROPINT-calculation: 7.5 MB
------------------------------------------------------------------------------
                           ORCA ORBITAL LOCALIZATION
------------------------------------------------------------------------------

Input orbitals are from                  ... /cluster/projects/nn14654k/ylvaos/basis_set_n_funcs/functionals/lda_x/LiS/inp/LiS_lda_x_augccpvtz.gbw
Output orbitals are to                   ... /cluster/projects/nn14654k/ylvaos/basis_set_n_funcs/functionals/lda_x/LiS/inp/LiS_lda_x_augccpvtz.loc
Max. number of iterations                ... 128
Localizations seeded randomly            ... on
Convergence tolerance                    ... 1.000e-06
Threshold for strong local MOs           ... 9.500e-01
Threshold for bond MOs                   ... 8.500e-01
Operator                                 ... 0
Orbital range for localization           ... 5 to 9
Localization criterion                   ... NEW-BOYS
Doing the dipole integrals               ... o.k.
Initial value of the localization sum :    12.445786
ITERATION   0 : L=   15.5405109062 DL=  3.09e+00 (AVERGE_DL)=    0.5563025208 
ITERATION   1 : L=   15.7551159550 DL=  2.15e-01 (AVERGE_DL)=    0.1464940439 
ITERATION   2 : L=   15.7947929413 DL=  3.97e-02 (AVERGE_DL)=    0.0629896708 
ITERATION   3 : L=   15.8316375452 DL=  3.68e-02 (AVERGE_DL)=    0.0606997561 
ITERATION   4 : L=   15.8515292058 DL=  1.99e-02 (AVERGE_DL)=    0.0446000680 
ITERATION   5 : L=   15.8640941960 DL=  1.26e-02 (AVERGE_DL)=    0.0354471300 
ITERATION   6 : L=   15.8711438308 DL=  7.05e-03 (AVERGE_DL)=    0.0265511483 
ITERATION   7 : L=   15.8751580498 DL=  4.01e-03 (AVERGE_DL)=    0.0200355160 
ITERATION   8 : L=   15.8774238852 DL=  2.27e-03 (AVERGE_DL)=    0.0150526921 
ITERATION   9 : L=   15.8787177312 DL=  1.29e-03 (AVERGE_DL)=    0.0113747350 
ITERATION  10 : L=   15.8794650964 DL=  7.47e-04 (AVERGE_DL)=    0.0086450288 
ITERATION  11 : L=   15.8799037881 DL=  4.39e-04 (AVERGE_DL)=    0.0066233808 
ITERATION  12 : L=   15.8801664419 DL=  2.63e-04 (AVERGE_DL)=    0.0051249754 
ITERATION  13 : L=   15.8803279237 DL=  1.61e-04 (AVERGE_DL)=    0.0040184797 
ITERATION  14 : L=   15.8804309075 DL=  1.03e-04 (AVERGE_DL)=    0.0032091094 
ITERATION  15 : L=   15.8804999674 DL=  6.91e-05 (AVERGE_DL)=    0.0026279253 
ITERATION  16 : L=   15.8805493882 DL=  4.94e-05 (AVERGE_DL)=    0.0022230792 
ITERATION  17 : L=   15.8805875395 DL=  3.82e-05 (AVERGE_DL)=    0.0019532354 
ITERATION  18 : L=   15.8806193615 DL=  3.18e-05 (AVERGE_DL)=    0.0017838726 
ITERATION  19 : L=   15.8806477891 DL=  2.84e-05 (AVERGE_DL)=    0.0016860486 
ITERATION  20 : L=   15.8806745788 DL=  2.68e-05 (AVERGE_DL)=    0.0016367554 
ITERATION  21 : L=   15.8807007886 DL=  2.62e-05 (AVERGE_DL)=    0.0016189440 
ITERATION  22 : L=   15.8807270629 DL=  2.63e-05 (AVERGE_DL)=    0.0016209355 
ITERATION  23 : L=   15.8807537978 DL=  2.67e-05 (AVERGE_DL)=    0.0016350814 
ITERATION  24 : L=   15.8807812416 DL=  2.74e-05 (AVERGE_DL)=    0.0016566174 
ITERATION  25 : L=   15.8808095547 DL=  2.83e-05 (AVERGE_DL)=    0.0016826494 
ITERATION  26 : L=   15.8808388422 DL=  2.93e-05 (AVERGE_DL)=    0.0017113591 
ITERATION  27 : L=   15.8808691774 DL=  3.03e-05 (AVERGE_DL)=    0.0017417000 
ITERATION  28 : L=   15.8809006129 DL=  3.14e-05 (AVERGE_DL)=    0.0017730046 
ITERATION  29 : L=   15.8809331885 DL=  3.26e-05 (AVERGE_DL)=    0.0018048715 
ITERATION  30 : L=   15.8809669357 DL=  3.37e-05 (AVERGE_DL)=    0.0018370407 
ITERATION  31 : L=   15.8810018796 DL=  3.49e-05 (AVERGE_DL)=    0.0018693301 
ITERATION  32 : L=   15.8810380405 DL=  3.62e-05 (AVERGE_DL)=    0.0019016018 
ITERATION  33 : L=   15.8810754353 DL=  3.74e-05 (AVERGE_DL)=    0.0019337743 
ITERATION  34 : L=   15.8811140771 DL=  3.86e-05 (AVERGE_DL)=    0.0019657515 
ITERATION  35 : L=   15.8811539752 DL=  3.99e-05 (AVERGE_DL)=    0.0019974494 
ITERATION  36 : L=   15.8811951356 DL=  4.12e-05 (AVERGE_DL)=    0.0020288035 
ITERATION  37 : L=   15.8812375609 DL=  4.24e-05 (AVERGE_DL)=    0.0020597406 
ITERATION  38 : L=   15.8812812493 DL=  4.37e-05 (AVERGE_DL)=    0.0020901778 
ITERATION  39 : L=   15.8813261957 DL=  4.49e-05 (AVERGE_DL)=    0.0021200546 
ITERATION  40 : L=   15.8813723900 DL=  4.62e-05 (AVERGE_DL)=    0.0021492860 
ITERATION  41 : L=   15.8814198179 DL=  4.74e-05 (AVERGE_DL)=    0.0021777969 
ITERATION  42 : L=   15.8814684611 DL=  4.86e-05 (AVERGE_DL)=    0.0022055199 
ITERATION  43 : L=   15.8815182957 DL=  4.98e-05 (AVERGE_DL)=    0.0022323653 
ITERATION  44 : L=   15.8815692932 DL=  5.10e-05 (AVERGE_DL)=    0.0022582632 
ITERATION  45 : L=   15.8816214200 DL=  5.21e-05 (AVERGE_DL)=    0.0022831300 
ITERATION  46 : L=   15.8816746377 DL=  5.32e-05 (AVERGE_DL)=    0.0023068946 
ITERATION  47 : L=   15.8817289018 DL=  5.43e-05 (AVERGE_DL)=    0.0023294661 
ITERATION  48 : L=   15.8817841636 DL=  5.53e-05 (AVERGE_DL)=    0.0023507840 
ITERATION  49 : L=   15.8818403686 DL=  5.62e-05 (AVERGE_DL)=    0.0023707577 
ITERATION  50 : L=   15.8818974573 DL=  5.71e-05 (AVERGE_DL)=    0.0023893250 
ITERATION  51 : L=   15.8819553652 DL=  5.79e-05 (AVERGE_DL)=    0.0024064066 
ITERATION  52 : L=   15.8820140233 DL=  5.87e-05 (AVERGE_DL)=    0.0024219435 
ITERATION  53 : L=   15.8820733573 DL=  5.93e-05 (AVERGE_DL)=    0.0024358572 
ITERATION  54 : L=   15.8821332895 DL=  5.99e-05 (AVERGE_DL)=    0.0024481039 
ITERATION  55 : L=   15.8821937370 DL=  6.04e-05 (AVERGE_DL)=    0.0024586079 
ITERATION  56 : L=   15.8822546145 DL=  6.09e-05 (AVERGE_DL)=    0.0024673371 
ITERATION  57 : L=   15.8823158330 DL=  6.12e-05 (AVERGE_DL)=    0.0024742362 
ITERATION  58 : L=   15.8823773004 DL=  6.15e-05 (AVERGE_DL)=    0.0024792619 
ITERATION  59 : L=   15.8824389225 DL=  6.16e-05 (AVERGE_DL)=    0.0024823798 
ITERATION  60 : L=   15.8825006038 DL=  6.17e-05 (AVERGE_DL)=    0.0024835739 
ITERATION  61 : L=   15.8825622472 DL=  6.16e-05 (AVERGE_DL)=    0.0024828085 
ITERATION  62 : L=   15.8826237551 DL=  6.15e-05 (AVERGE_DL)=    0.0024800787 
ITERATION  63 : L=   15.8826850301 DL=  6.13e-05 (AVERGE_DL)=    0.0024753778 
ITERATION  64 : L=   15.8827459754 DL=  6.09e-05 (AVERGE_DL)=    0.0024687112 
ITERATION  65 : L=   15.8828064951 DL=  6.05e-05 (AVERGE_DL)=    0.0024600746 
ITERATION  66 : L=   15.8828664957 DL=  6.00e-05 (AVERGE_DL)=    0.0024495021 
ITERATION  67 : L=   15.8829258855 DL=  5.94e-05 (AVERGE_DL)=    0.0024370023 
ITERATION  68 : L=   15.8829845761 DL=  5.87e-05 (AVERGE_DL)=    0.0024226151 
ITERATION  69 : L=   15.8830424827 DL=  5.79e-05 (AVERGE_DL)=    0.0024063788 
ITERATION  70 : L=   15.8830995247 DL=  5.70e-05 (AVERGE_DL)=    0.0023883469 
ITERATION  71 : L=   15.8831556249 DL=  5.61e-05 (AVERGE_DL)=    0.0023685471 
ITERATION  72 : L=   15.8832107121 DL=  5.51e-05 (AVERGE_DL)=    0.0023470666 
ITERATION  73 : L=   15.8832647196 DL=  5.40e-05 (AVERGE_DL)=    0.0023239513 
ITERATION  74 : L=   15.8833175865 DL=  5.29e-05 (AVERGE_DL)=    0.0022992811 
ITERATION  75 : L=   15.8833692573 DL=  5.17e-05 (AVERGE_DL)=    0.0022731213 
ITERATION  76 : L=   15.8834196829 DL=  5.04e-05 (AVERGE_DL)=    0.0022455640 
ITERATION  77 : L=   15.8834688195 DL=  4.91e-05 (AVERGE_DL)=    0.0022166767 
ITERATION  78 : L=   15.8835166299 DL=  4.78e-05 (AVERGE_DL)=    0.0021865592 
ITERATION  79 : L=   15.8835630825 DL=  4.65e-05 (AVERGE_DL)=    0.0021552869 
ITERATION  80 : L=   15.8836081521 DL=  4.51e-05 (AVERGE_DL)=    0.0021229595 
ITERATION  81 : L=   15.8836518186 DL=  4.37e-05 (AVERGE_DL)=    0.0020896543 
ITERATION  82 : L=   15.8836940687 DL=  4.23e-05 (AVERGE_DL)=    0.0020554829 
ITERATION  83 : L=   15.8837348938 DL=  4.08e-05 (AVERGE_DL)=    0.0020205211 
ITERATION  84 : L=   15.8837742909 DL=  3.94e-05 (AVERGE_DL)=    0.0019848716 
ITERATION  85 : L=   15.8838122617 DL=  3.80e-05 (AVERGE_DL)=    0.0019486086 
ITERATION  86 : L=   15.8838488129 DL=  3.66e-05 (AVERGE_DL)=    0.0019118380 
ITERATION  87 : L=   15.8838839555 DL=  3.51e-05 (AVERGE_DL)=    0.0018746353 
ITERATION  88 : L=   15.8839177045 DL=  3.37e-05 (AVERGE_DL)=    0.0018370905 
ITERATION  89 : L=   15.8839500787 DL=  3.24e-05 (AVERGE_DL)=    0.0017992834 
ITERATION  90 : L=   15.8839811003 DL=  3.10e-05 (AVERGE_DL)=    0.0017612947 
ITERATION  91 : L=   15.8840107944 DL=  2.97e-05 (AVERGE_DL)=    0.0017231956 
ITERATION  92 : L=   15.8840391889 DL=  2.84e-05 (AVERGE_DL)=    0.0016850673 
ITERATION  93 : L=   15.8840663139 DL=  2.71e-05 (AVERGE_DL)=    0.0016469683 
ITERATION  94 : L=   15.8840922018 DL=  2.59e-05 (AVERGE_DL)=    0.0016089711 
ITERATION  95 : L=   15.8841168863 DL=  2.47e-05 (AVERGE_DL)=    0.0015711305 
ITERATION  96 : L=   15.8841404027 DL=  2.35e-05 (AVERGE_DL)=    0.0015335048 
ITERATION  97 : L=   15.8841627873 DL=  2.24e-05 (AVERGE_DL)=    0.0014961501 
ITERATION  98 : L=   15.8841840775 DL=  2.13e-05 (AVERGE_DL)=    0.0014591162 
ITERATION  99 : L=   15.8842043109 DL=  2.02e-05 (AVERGE_DL)=    0.0014224387 
ITERATION 100 : L=   15.8842235256 DL=  1.92e-05 (AVERGE_DL)=    0.0013861712 
ITERATION 101 : L=   15.8842417599 DL=  1.82e-05 (AVERGE_DL)=    0.0013503456 
ITERATION 102 : L=   15.8842590520 DL=  1.73e-05 (AVERGE_DL)=    0.0013149940 
ITERATION 103 : L=   15.8842754398 DL=  1.64e-05 (AVERGE_DL)=    0.0012801495 
ITERATION 104 : L=   15.8842909611 DL=  1.55e-05 (AVERGE_DL)=    0.0012458427 
ITERATION 105 : L=   15.8843056527 DL=  1.47e-05 (AVERGE_DL)=    0.0012120893 
ITERATION 106 : L=   15.8843195512 DL=  1.39e-05 (AVERGE_DL)=    0.0011789206 
ITERATION 107 : L=   15.8843326922 DL=  1.31e-05 (AVERGE_DL)=    0.0011463407 
ITERATION 108 : L=   15.8843451104 DL=  1.24e-05 (AVERGE_DL)=    0.0011143694 
ITERATION 109 : L=   15.8843568398 DL=  1.17e-05 (AVERGE_DL)=    0.0010830267 
ITERATION 110 : L=   15.8843679136 DL=  1.11e-05 (AVERGE_DL)=    0.0010523181 
ITERATION 111 : L=   15.8843783635 DL=  1.04e-05 (AVERGE_DL)=    0.0010222493 
ITERATION 112 : L=   15.8843882205 DL=  9.86e-06 (AVERGE_DL)=    0.0009928270 
ITERATION 113 : L=   15.8843975145 DL=  9.29e-06 (AVERGE_DL)=    0.0009640508 
ITERATION 114 : L=   15.8844062742 DL=  8.76e-06 (AVERGE_DL)=    0.0009359332 
ITERATION 115 : L=   15.8844145273 DL=  8.25e-06 (AVERGE_DL)=    0.0009084668 
ITERATION 116 : L=   15.8844223004 DL=  7.77e-06 (AVERGE_DL)=    0.0008816490 
ITERATION 117 : L=   15.8844296189 DL=  7.32e-06 (AVERGE_DL)=    0.0008554828 
ITERATION 118 : L=   15.8844365072 DL=  6.89e-06 (AVERGE_DL)=    0.0008299586 
ITERATION 119 : L=   15.8844429887 DL=  6.48e-06 (AVERGE_DL)=    0.0008050769 
ITERATION 120 : L=   15.8844490856 DL=  6.10e-06 (AVERGE_DL)=    0.0007808279 
ITERATION 121 : L=   15.8844548192 DL=  5.73e-06 (AVERGE_DL)=    0.0007572044 
ITERATION 122 : L=   15.8844602097 DL=  5.39e-06 (AVERGE_DL)=    0.0007341990 
ITERATION 123 : L=   15.8844652764 DL=  5.07e-06 (AVERGE_DL)=    0.0007118116 
ITERATION 124 : L=   15.8844700377 DL=  4.76e-06 (AVERGE_DL)=    0.0006900181 
ITERATION 125 : L=   15.8844745109 DL=  4.47e-06 (AVERGE_DL)=    0.0006688212 
ITERATION 126 : L=   15.8844787126 DL=  4.20e-06 (AVERGE_DL)=    0.0006482058 
ITERATION 127 : L=   15.8844826585 DL=  3.95e-06 (AVERGE_DL)=    0.0006281619 
MAXIMUM NO OF ITERATIONS EXCEEDED - LOCALIZATION NOT CONVERGED


--------------------------------------------------------------------------------
                    LOCALIZED MOLECULAR ORBITAL COMPOSITIONS
--------------------------------------------------------------------------------

The Mulliken populations for each LMO on each atom are computed
The LMO`s will be ordered according to atom index and type
  (A) Strongly localized MO`s have populations of >=0.950 on one atom
  (B) Two center bond orbitals have populations of >=0.850 on two atoms
  (C) Other MO`s are considered to be `delocalized`

FOUND  -   2 strongly local MO`s
       -   3 two center bond MO`s
       -   0 significantly delocalized MO`s

Rather strongly localized orbitals:
MO   6:   1S  -   0.986017
MO   5:   0Li -   0.989119
Bond-like localized orbitals:
MO   9:   1S  -   0.858759  and   0Li -   0.141241
MO   8:   1S  -   0.856953  and   0Li -   0.143047
MO   7:   1S  -   0.919874  and   0Li -   0.080126
Localized MO's were stored in: /cluster/projects/nn14654k/ylvaos/basis_set_n_funcs/functionals/lda_x/LiS/inp/LiS_lda_x_augccpvtz.loc
------------------------------------------------------------------------------
                           ORCA ORBITAL LOCALIZATION
------------------------------------------------------------------------------

Input orbitals are from                  ... /cluster/projects/nn14654k/ylvaos/basis_set_n_funcs/functionals/lda_x/LiS/inp/LiS_lda_x_augccpvtz.loc
Output orbitals are to                   ... /cluster/projects/nn14654k/ylvaos/basis_set_n_funcs/functionals/lda_x/LiS/inp/LiS_lda_x_augccpvtz.loc
Max. number of iterations                ... 128
Localizations seeded randomly            ... on
Convergence tolerance                    ... 1.000e-06
Threshold for strong local MOs           ... 9.500e-01
Threshold for bond MOs                   ... 8.500e-01
Operator                                 ... 1
Orbital range for localization           ... 5 to 8
Localization criterion                   ... NEW-BOYS
Doing the dipole integrals               ... o.k.
Initial value of the localization sum :    12.098749
ITERATION   0 : L=   14.7974229468 DL=  2.70e+00 (AVERGE_DL)=    0.6706556344 
ITERATION   1 : L=   14.8399990789 DL=  4.26e-02 (AVERGE_DL)=    0.0842378895 
ITERATION   2 : L=   14.8747326945 DL=  3.47e-02 (AVERGE_DL)=    0.0760850572 
ITERATION   3 : L=   14.9642886505 DL=  8.96e-02 (AVERGE_DL)=    0.1221719799 
ITERATION   4 : L=   15.1265353163 DL=  1.62e-01 (AVERGE_DL)=    0.1644418164 
ITERATION   5 : L=   15.2643451566 DL=  1.38e-01 (AVERGE_DL)=    0.1515529832 
ITERATION   6 : L=   15.3296626027 DL=  6.53e-02 (AVERGE_DL)=    0.1043371507 
ITERATION   7 : L=   15.3537129078 DL=  2.41e-02 (AVERGE_DL)=    0.0633118013 
ITERATION   8 : L=   15.3619650063 DL=  8.25e-03 (AVERGE_DL)=    0.0370857081 
ITERATION   9 : L=   15.3647612287 DL=  2.80e-03 (AVERGE_DL)=    0.0215878918 
ITERATION  10 : L=   15.3657104558 DL=  9.49e-04 (AVERGE_DL)=    0.0125779375 
ITERATION  11 : L=   15.3660339654 DL=  3.24e-04 (AVERGE_DL)=    0.0073429059 
ITERATION  12 : L=   15.3661445816 DL=  1.11e-04 (AVERGE_DL)=    0.0042937208 
ITERATION  13 : L=   15.3661824881 DL=  3.79e-05 (AVERGE_DL)=    0.0025135144 
ITERATION  14 : L=   15.3661954964 DL=  1.30e-05 (AVERGE_DL)=    0.0014724277 
ITERATION  15 : L=   15.3661999642 DL=  4.47e-06 (AVERGE_DL)=    0.0008629250 
ITERATION  16 : L=   15.3662014995 DL=  1.54e-06 (AVERGE_DL)=    0.0005058527 
ITERATION  17 : L=   15.3662020272 DL=  5.28e-07 (AVERGE_DL)=    0.0002965550 
LOCALIZATION SUM CONVERGED


--------------------------------------------------------------------------------
                    LOCALIZED MOLECULAR ORBITAL COMPOSITIONS
--------------------------------------------------------------------------------

The Mulliken populations for each LMO on each atom are computed
The LMO`s will be ordered according to atom index and type
  (A) Strongly localized MO`s have populations of >=0.950 on one atom
  (B) Two center bond orbitals have populations of >=0.850 on two atoms
  (C) Other MO`s are considered to be `delocalized`

FOUND  -   2 strongly local MO`s
       -   2 two center bond MO`s
       -   0 significantly delocalized MO`s

Rather strongly localized orbitals:
MO   6:   1S  -   1.005843
MO   5:   0Li -   0.989203
Bond-like localized orbitals:
MO   8:   1S  -   0.796196  and   0Li -   0.203804
MO   7:   1S  -   0.796006  and   0Li -   0.203994
Localized MO's were stored in: /cluster/projects/nn14654k/ylvaos/basis_set_n_funcs/functionals/lda_x/LiS/inp/LiS_lda_x_augccpvtz.loc

-------------------------   --------------------
FINAL SINGLE POINT ENERGY      -402.800817196374
-------------------------   --------------------



           ************************************************************
           *        Program running with 8 parallel MPI-processes     *
           *              working on a common directory               *
           ************************************************************

------------------------------------------------------------------------------
                              ORCA PROPERTY CALCULATIONS
------------------------------------------------------------------------------

GBWName                                 ... /cluster/projects/nn14654k/ylvaos/basis_set_n_funcs/functionals/lda_x/LiS/inp/LiS_lda_x_augccpvtz.gbw
Number of atoms                         ...      2
Number of basis functions               ...    128
Max core memory                         ...   4096 MB

Electric properties:
Dipole moment                           ... YES
Quadrupole moment                       ... YES
Static polarizability (Dipole/Dipole)   ...  NO
Static polarizability (Dipole/Quad.)    ...  NO
Static polarizability (Quad./Quad.)     ...  NO
Static polarizability (Velocity)        ...  NO
Static hyperpolarizability              ...  NO

Atomic electric properties:
Dipole moment                           ...  NO
Quadrupole moment                       ...  NO
Static polarizability                   ...  NO

Choice of electric origin               ... Center of mass
Position of electric origin             ...     0.000000     0.000000     1.308198

General magnetic properties:
Magnetizability                         ...  NO

EPR properties:
g-Tensor (aka g-matrix)                 ...  NO
Zero-Field splitting spin-orbit         ...  NO
Zero-field splitting spin-spin          ...  NO
Hyperfine couplings                     ...  NO (   0 nuclei)
Quadrupole couplings                    ...  NO (   0 nuclei)
Contact density                         ...  NO (   0 nuclei)

NMR properties:
Chemical shifts                         ...  NO (   0 nuclei)
Spin-rotation constants                 ...  NO (   0 nuclei)
Spin-spin couplings                     ...  NO (   0 nuclei,    0 pairs)

Choice of magnetic origin               ... GIAO
Position of magnetic origin             ...     0.000000     0.000000     0.000000

Properties with geometric perturbations:
SCF Hessian                             ...  NO
IR spectrum                             ...  NO
VCD spectrum                            ...  NO
X-ray spectroscopy properties:
SCF XES/XAS/RIXS spectra                ...  NO

SCF SOC stabilization energy            ...  NO
Diagonal Born-Oppenheimer correction    ...  NO

-------------
DIPOLE MOMENT
-------------

Method             : SCF
Type of density    : Electron Density
Multiplicity       :   2
Irrep              :   0
Energy             :  -402.8008171963741688 Eh
Basis              : AO
                                X                 Y                 Z
Electronic contribution:     -0.000000001      -0.000000004      -4.161775176
Nuclear contribution   :      0.000000000       0.000000000       1.549484202
                        -----------------------------------------
Total Dipole Moment    :     -0.000000001      -0.000000004      -2.612290974
                        -----------------------------------------
Magnitude (a.u.)       :      2.612290974
Magnitude (Debye)      :      6.639915974



--------------------
Rotational spectrum 
--------------------
 
Rotational constants in cm-1:             0.000000             0.639339             0.639339 
Rotational constants in MHz :             0.000000         19166.891897         19166.891897 

Dipole components along the rotational axes: 
x,y,z [a.u.] :    -2.612291    -0.000000    -0.000000 
x,y,z [Debye]:    -6.639916    -0.000000    -0.000000 

 

Dipole moment calculation done in   0.0 sec 

-----------------
QUADRUPOLE MOMENT
-----------------

Method             : SCF
Type of density    : Electron Density
Multiplicity       :   2
Irrep              :   0
Energy             :  -402.8008171963741688 Eh
Basis              : AO

                XX              YY              ZZ              XY              XZ              YZ
  NUC        0.000000000     0.000000000    41.817245673     0.000000000     0.000000000     0.000000000
  EL       -14.027224712   -13.387875870   -45.755791656     1.280761948    -0.000000006    -0.000000003
  TOT      -14.027224712   -13.387875870    -3.938545983     1.280761948    -0.000000006    -0.000000003 (a.u.)
           -18.867096969   -18.007150910    -5.297479045     1.722668622    -0.000000007    -0.000000004 (Buckingham)

diagonalized tensor:
           -15.027604419   -12.387496162    -3.938545983 (a.u.)
           -20.212641888   -16.661605990    -5.297479045 (Buckingham)
           -18.466198741    -7.813091047    26.279289787 (traceless form in Buckingham)

            -0.788088720     0.615561670    -0.000000001
             0.615561670     0.788088720    -0.000000000
            -0.000000000     0.000000001     1.000000000
        
Isotropic quadrupole :   -10.451215521

Quadrupole moment calculation done in   0.0 sec (  0.0 sec for integrals)

Maximum memory used throughout the entire PROP-calculation: 3.8 MB

--------------------------------
SUGGESTED CITATIONS FOR THIS RUN
--------------------------------

Below you find a list of papers that are relevant to this ORCA run
We neither can nor want to force you to cite these papers, but we appreciate if you do
You receive ORCA, which is the product of decades of hard work by many enthusiastic individuals, for free
The only thing we kindly ask in return is that you cite our papers,
We deeply appreciate it, if you show your appreciation for ORCA by not just citing the generic ORCA reference.

Please note that relegating all ORCA citations to the supporting information does *not* help us.
SI sections are not indexed - citations you put there will not count into any citation statistics
But we need these citations in order to attract the funding resources that allow us to do what we are doing

Therefore, if you are a happy ORCA user, please consider citing a few of the papers listed below in the main body of your paper

In addition to the list printed below, the program has created the file /cluster/projects/nn14654k/ylvaos/basis_set_n_funcs/functionals/lda_x/LiS/inp/LiS_lda_x_augccpvtz.bibtex that contains the list in bibtex format
You can import this file easily into all common literature databanks and citation aid programs

It goes without saying that in many instances, there are alternative algorithms to achieve similar
results as the ones you have gotten from ORCA. It is, of course, also the case that in some instances
ORCA just re-implements algorithms worked out by others. We are fully aware of that and we are also
fully appreciative of our colleagues work. Hence this citation list should not be read as indicating
that the listed papers, which are focused on our own work, are the only ones worth citing. It simply
meant to make it easier for users to cite ORCA specific papers. It is not a substitute for doing your
own literature research and citing the relevant literature in a scientifically appropriate manner.

List of essential papers. We consider these as the minimum necessary citations

  1. Neese, F.
     Software update: the ORCA program system, version 6.0
     WIRES Comput. Molec. Sci. 2025 15(1), e70019
     doi.org/10.1002/wcms.70019

List of papers to cite with high priority. The work reported in these papers was absolutely
necessary for this run to complete.
Our perspective: the developers of density functionals and basis sets usually get cited in chemistry papers
Good! But without the algorithms to do something with them, the functionals or basis sets would not do anything.
Hence, in our opinion, the algorithm design and method developments papers are equally worthy of getting cited

  1. Lehtola, S.; Steigemann, C.; Oliveira, M.; Marques, M.
     Recent developments in Libxc - A comprehensive library of functionals for density functional theory
     Software X 2018 7 , 
     doi.org/10.1016/j.softx.2017.11.002
  2. Neese, F.
     The SHARK Integral Generation and Digestion System
     J. Comp. Chem. 2022 44(3), 381
     doi.org/10.1002/jcc.26942

List of suggested additional citations. These are papers that are important in the 'surrounding' of 
of this run, or papers that preceded the highly important papers. If you like your results we are grateful for a citation.

  1. Neese, F.
     The ORCA program system
     WIRES Comput. Molec. Sci. 2012 2(1), 73-78
     doi.org/10.1002/wcms.81
  2. Neese, F.
     Software update: the ORCA program system, version 4.0
     WIRES Comput. Molec. Sci. 2018 8(1), 1-6
     doi.org/10.1002/wcms.1327
  3. Neese, F.; Wennmohs, F.; Becker, U.; Riplinger, C.
     The ORCA quantum chemistry program package
     J. Chem. Phys. 2020 152(22), 224108
     doi.org/10.1063/5.0004608
  4. Neese, F.
     Software update: The ORCA program system—Version 5.0
     WIRES Comput. Molec. Sci. 2022 12(1), e1606
     doi.org/10.1002/wcms.1606

List of optional additional citations

  1. Neese, F.
     Approximate second-order SCF convergence for spin unrestricted wavefunctions
     Chem. Phys. Lett. 2000 325(1-3), 93-98
     doi.org/10.1016/s0009-2614(00)00662-x

Timings for individual modules:

Sum of individual times          ...        4.205 sec (=   0.070 min)
Startup calculation              ...        1.051 sec (=   0.018 min)  25.0 %
SCF iterations                   ...        2.664 sec (=   0.044 min)  63.4 %
Property integrals               ...        0.237 sec (=   0.004 min)   5.6 %
Property calculations            ...        0.240 sec (=   0.004 min)   5.7 %
Orbital localization             ...        0.013 sec (=   0.000 min)   0.3 %
                             ****ORCA TERMINATED NORMALLY****
TOTAL RUN TIME: 0 days 0 hours 0 minutes 4 seconds 980 msec
