
                                 *****************
                                 * O   R   C   A *
                                 *****************

                                            #,                                       
                                            ###                                      
                                            ####                                     
                                            #####                                    
                                            ######                                   
                                           ########,                                 
                                     ,,################,,,,,                         
                               ,,#################################,,                 
                          ,,##########################################,,             
                       ,#########################################, ''#####,          
                    ,#############################################,,   '####,        
                  ,##################################################,,,,####,       
                ,###########''''           ''''###############################       
              ,#####''   ,,,,##########,,,,          '''####'''          '####       
            ,##' ,,,,###########################,,,                        '##       
           ' ,,###''''                  '''############,,,                           
         ,,##''                                '''############,,,,        ,,,,,,###''
      ,#''                                            '''#######################'''  
     '                                                          ''''####''''         
             ,#######,   #######,   ,#######,      ##                                
            ,#'     '#,  ##    ##  ,#'     '#,    #''#        ,####,    ,#,          
            ##       ##  ##   ,#'  ##            #'  '#       #'       ,# #          
            ##       ##  #######   ##           ,######,      #####,      #          
            '#,     ,#'  ##    ##  '#,     ,#' ,#      #,     #,   #      #          
             '#######'   ##     ##  '#######'  #'      '#     '####' #    #          



                #########################################################
                #                        -***-                          #
                #          Department of theory and spectroscopy        #
                #                                                       #
                #                      Frank Neese                      #
                #                                                       #
                #     Directorship, Architecture, Infrastructure        #
                #                    SHARK, DRIVERS                     #
                #        Core code/Algorithms in most modules           #
                #                                                       #
                #        Max Planck Institute fuer Kohlenforschung      #
                #                Kaiser Wilhelm Platz 1                 #
                #                 D-45470 Muelheim/Ruhr                 #
                #                      Germany                          #
                #                                                       #
                #                  All rights reserved                  #
                #                        -***-                          #
                #########################################################


                         Program Version 6.1.1  -  RELEASE   -
                                (GIT: $487d211c$)
                          ($2025-11-21 10:33:24 +0100$)


 With contributions from (in alphabetic order):
[Max-Planck-Institut fuer Kohlenforschung]                               
  Daniel Aravena         : Magnetic Suceptibility                        
  Michael Atanasov       : Ab Initio Ligand Field Theory (pilot matlab implementation)
  Alexander A. Auer      : GIAO ZORA, VPT2 properties, NMR spectrum      
  Ute Becker             : All parallelization in ORCA, NUMFREQ, NUMCALC 
  Giovanni Bistoni       : ED, misc. LED, open-shell LED, HFLD           
  Dmytro Bykov           : pre 5.0 version of the SCF Hessian            
  Marcos Casanova-Páez   : Triplet and SCS-CIS(D). UHF-(DLPNO)-IP/EA/STEOM-CCSD. UHF-CVS-IP/STEOM-CCSD   
  Vijay G. Chilkuri      : MRCI spin determinant printing, contributions to CSF-ICE 
  Pauline Colinet        : FMM embedding                                 
  Dipayan Datta          : RHF DLPNO-CCSD density                        
  Achintya Kumar Dutta   : EOM-CC, STEOM-CC                              
  Nicolas Foglia         : Exact transition moments, OPA infrastructure, MCD improvements    
  Dmitry Ganyushin       : Spin-Orbit,Spin-Spin,Magnetic field MRCI      
  Miquel Garcia-Rates    : C-PCM and meta-GGA Hessian, CCSD/C-PCM, Gaussian charge scheme 
  Tiago L. C. Gouveia    : GS-ROHF, GS-ROCIS                             
  Yang Guo               : DLPNO-NEVPT2, F12-NEVPT2, CIM, IAO-localization        
  Andreas Hansen         : Spin unrestricted coupled pair/coupled cluster methods 
  Ingolf Harden          : AUTO-CI MPn and infrastructure                
  Benjamin Helmich-Paris : MC-RPA, TRAH-(SCF,CASSCF), AVAS, COSX integrals, SCF dyn. polar., MC-PDFT, srDFT 
  Lee Huntington         : MR-EOM, pCC                                   
  Robert Izsak           : Overlap fitted RIJCOSX, COSX-SCS-MP3, EOM     
  Riya Kayal             : Wick's Theorem for AUTO-CI, AUTO-CI UHF-CCSDT 
  Emily Kempfer          : AUTO-CI RHF CISDT and CCSDT, approximate NEVPT4
  Christian Kollmar      : KDIIS, OOCD, Brueckner-CCSD(T), CCSD density, CASPT2, CASPT2-K, improved NEVPT2 
  Axel Koslowski         : Symmetry handling                             
  Simone Kossmann        : meta-GGA functionals, TD-DFT gradient, OOMP2, (MP2 Hessian; deprecated post 5.0) 
  Lucas Lang             : DCDCAS, Hyperfine gauge corrections, ICE-SOC+SSC
  Marvin Lechner         : AUTO-CI (C++ implementation), FIC-MRCC        
  Spencer Leger          : CASSCF response                               
  Dagmar Lenk            : GEPOL surface, SMD, ORCA-2-JSON               
  Dimitrios Liakos       : Extrapolation schemes; Compound Job, Property file
  Dimitrios Manganas     : Further ROCIS development; embedding schemes. LFT, Crystal Embedding 
  Dimitrios Pantazis     : SARC Basis sets                               
  Anastasios Papadopoulos: AUTO-CI, single reference methods and gradients 
  Taras Petrenko         : pre 6.0 DFT Hessian and TD-DFT gradient,  ECA, NRVS 
  Petra Pikulova         : Analytic Raman intensities                    
  Peter Pinski           : DLPNO-MP2, DLPNO-MP2 Gradient                 
  Shashank Vittal Rao    : ES-AILFT, MagRelax                            
  Christoph Reimann      : Effective Core Potentials                     
  Marius Retegan         : Local ZFS, SOC                                
  Christoph Riplinger    : Optimizer, TS searches, QM/MM, DLPNO-CCSD(T), (RO)-DLPNO pert. Triples 
  Michael Roemelt        : Original ROCIS implementation, recursive CI coupling coefficients
  Masaaki Saitow         : Open-shell DLPNO-CCSD energy and density      
  Barbara Sandhoefer     : DKH picture change effects                    
  Yorick L. A. Schmerwitz: GMF and freeze-and-release deltaSCF, NEB S-IDPP initial path                    
  Kantharuban Sivalingam : CASSCF convergence/infrastructure, NEVPT2, NEVPT3, NEVPT4(SD), FIC-MRCI and CEPA variants
  Bernardo de Souza      : ESD, SOC TD-DFT                               
  Georgi L. Stoychev     : AutoAux, RI-MP2 NMR, DLPNO-MP2 response, X2C  
  Van Anh Tran           : RI-MP2 g-tensors                              
  Willem Van den Heuvel  : Paramagnetic NMR                              
  Zikuan Wang            : NOTCH, Electric field optimization            
  Frank Wennmohs         : Technical directorship and infrastructure     
  Hang Xu                : AUTO-CI-Response properties                   
                                                                         
[FACCTs GmbH]                                                            
  Markus Bursch, Nicolas Foglia, Miquel Garcia-Rates, Ingolf Harden, Hagen Neugebauer, Anastasios Papadopoulos, 
  Christoph Riplinger, Bernardo de Souza, Georgi L. Stoychev                                                    
                                                                 
  APM, various basis sets, CI-OPT, improved COSX, DLPNO-Multilevel,           
  DOCKER, DRACO, updates on ESD, Fragmentator, GOAT, IRC, LR-CPCM, L-BFGS, MBIS, meta-GGA TD-DFT gradient, ML-optimized integration grids, 
  MM, NACMEs, nearIR, NEB, NEB-TS, NL-DFT gradient (VV10), 2- and 3-layer-ONIOM, interface openCOSMO-RS, QMMM,   
  Crystal-QMMM, RESP, rigid body optimization, SF, symmetry and pop. for TD-DFT, various functionals, SOLVATOR                                   
                                                                         
[Other institutions]                                                     
  V. Asgeirsson          : NEB                                           
  Christoph Bannwarth    : sTDA-DFT, sTD-DFT, PBEh-3c, B97-3c, D3        
  Giovanni Bistoni       : ETS/NOCV, ADLD/ADEX, COVALED                  
  Martin Brehm           : Molecular dynamics                            
  Ronald Cardenas        : ETS/NOCV                                      
  Martina Colucci        : COVALED                                       
  Sebastian Ehlert       : rSCAN, r2SCAN, r2SCAN-3c, D4, dhf basis sets  
  Marvin Friede          : D4 for Fr, Ra, Ac-Lr                          
  Lars Goerigk           : TD-DFT with DH, B97 family of functionals     
  Stefan Grimme          : VdW corrections, initial TS optimization, DFT functionals, gCP, sTDA/sTD-DF 
  Waldemar Hujo          : DFT-NL                                        
  H. Jonsson             : NEB                                           
  Holger Kruse           : gCP                                           
  Marcel Mueller         : wB97X-3c, vDZP basis set                      
  Hagen Neugebauer       : wr2SCAN, Native XTB                           
  Gianluca Regni         : ADLD/ADEX                                     
  Tobias Risthaus        : pre 6.0 range-separated hybrid DFT and stability analysis
  Lukas Wittmann         : regularized MP2, r2SCAN double-hybrids, wr2SCAN        
                                                                         
We gratefully acknowledge several colleagues who have allowed us to      
interface, adapt or use parts of their codes:                            
  Ed Valeev, F. Pavosevic, A. Kumar             : LibInt (2-el integral package), F12 methods 
  Garnet Chan, S. Sharma, J. Yang, R. Olivares  : DMRG                   
  Ulf Ekstrom                                   : XCFun DFT Library      
  Mihaly Kallay                                 : mrcc  (arbitrary order and MRCC methods)
  Frank Weinhold                                : gennbo (NPA and NBO analysis)           
  Simon Mueller                                 : openCOSMO-RS                            
  Christopher J. Cramer and Donald G. Truhlar   : smd solvation model                     
  S Lehtola, MJT Oliveira, MAL Marques          : LibXC Library                           
  Liviu Ungur et al                             : ANISO software                          


 Your calculation uses the libint2 library for the computation of 2-el integrals
 For citations please refer to: http://libint.valeyev.net

 Your ORCA version has been built with support for libXC version: 7.0.0
 For citations please refer to: https://libxc.gitlab.io

 This ORCA versions uses:
   CBLAS   interface :  Fast vector & matrix operations
   LAPACKE interface :  Fast linear algebra routines
   SCALAPACK package :  Parallel linear algebra routines
   Shared memory     :  Shared parallel matrices
   BLAS/LAPACK       :  OpenBLAS 0.3.29  USE64BITINT DYNAMIC_ARCH NO_AFFINITY Cooperlake SINGLE_THREADED
        Core in use  :  Cooperlake
   Copyright (c) 2011-2014, The OpenBLAS Project


  ***********************************
  * Starting time: Wed May 20 12:36:45 2026
  * Host name:     c1-40
  * Process ID:    660367
  * Working dir.:  /cluster/projects/nn14654k/ylvaos/basis_set_n_funcs/functionals/lda_x/LiS/out
  ***********************************

Using LibXC functional ID   1 : Slater exchange
[ 1]  P. A. M. Dirac.,  Math. Proc. Cambridge Philos. Soc. 26, 376 (1930)
[ 2]  F. Bloch.,  Z. Phys. 57, 545 (1929)
Using LibXC functional ID   1 : Slater exchange
[ 1]  P. A. M. Dirac.,  Math. Proc. Cambridge Philos. Soc. 26, 376 (1930)
[ 2]  F. Bloch.,  Z. Phys. 57, 545 (1929)
Your calculation utilizes LibXC
by S. Lehtola, C. Steigemann, M. J. T. Oliveira & M. A. L. Marques
Please cite in your paper:
Lehtola, S.; Steigemann, C.; Oliveira, M.J.T.; Marques, M. A. L. Software X, 7, (2018), 1.
   

================================================================================

----- Orbital basis set information -----
Your calculation utilizes the basis: pc-4
   H, C-F              : F. Jensen, J. Chem. Phys. 115, 9113 (2001).
                         F. Jensen, J. Chem. Phys. 116, 7372 (2002).
                         F. Jensen, J. Chem. Phys. 117, 9234 (2002).
   Si-Cl               : F. Jensen, T. Helgaker, J. Chem. Phys. 121, 3463 (2004).
   He-B, Ne-Mg, Al, Ar : F. Jensen, J. Phys. Chem. A 111, 11198 (2007).
   K, Ca, Ga-Kr        : F. Jensen, J. Chem. Phys. 136, 094110 (2012).
   Sc-Zn               : F. Jensen, J. Chem. Phys. 138, 014107 (2013).

================================================================================
                                        WARNINGS
                       Please study these warnings very carefully!
================================================================================


WARNING: The basis set has functions with high angular momentum (Lmax>4).
         We might need to increase small grids for safety reasons and
         in general, DEFGRID3 is recommend for such cases.
  ===> : GRIDX1, TD-DFT and the CP-SCF AngGrids will be increased to at least 2


WARNING: your system is open-shell and RHF/RKS was chosen
  ===> : WILL SWITCH to UHF/UKS


================================================================================
                                       INPUT FILE
================================================================================
NAME = /cluster/projects/nn14654k/ylvaos/basis_set_n_funcs/functionals/lda_x/LiS/inp/LiS_lda_x_pc4.inp
|  1> ! dft pc-4 TightSCF
|  2> %pal nprocs 8 end
|  3> 
|  4> %loc
|  5>   LocMet NewBoys
|  6>   Occ true
|  7> end
|  8> 
|  9> %method
| 10>   exchange lda_x
| 11>   correlation None
| 12> end
| 13> 
| 14> %elprop
| 15>   Dipole true
| 16>   Quadrupole true
| 17> end
| 18> 
| 19> * xyz 0 2
| 20> Li    0.000000000000   0.000000000000  -1.074850000000
| 21> S    0.000000000000   0.000000000000   1.074850000000
| 22> *
| 23> 
| 24> 
| 25>                          ****END OF INPUT****
================================================================================

                       ****************************
                       * Single Point Calculation *
                       ****************************

---------------------------------
CARTESIAN COORDINATES (ANGSTROEM)
---------------------------------
  Li     0.000000    0.000000   -1.074850
  S      0.000000    0.000000    1.074850

----------------------------
CARTESIAN COORDINATES (A.U.)
----------------------------
  NO LB      ZA    FRAG     MASS         X           Y           Z
   0 Li    3.0000    0     6.941    0.000000    0.000000   -2.031172
   1 S    16.0000    0    32.060    0.000000    0.000000    2.031172

--------------------------------
INTERNAL COORDINATES (ANGSTROEM)
--------------------------------
 Li     0   0   0     0.000000000000     0.00000000     0.00000000
 S      1   0   0     2.149700000000     0.00000000     0.00000000

---------------------------
INTERNAL COORDINATES (A.U.)
---------------------------
 Li     0   0   0     0.000000000000     0.00000000     0.00000000
 S      1   0   0     4.062344270091     0.00000000     0.00000000

---------------------
BASIS SET INFORMATION
---------------------
There are 2 groups of distinct atoms

 Group   1 Type Li  : 30s8p3d2f1g contracted to 8s4p3d2f1g pattern {1212111111/5111/111/11/1}
 Group   2 Type S   : 43s26p6d3f2g1h contracted to 7s6p6d3f2g1h pattern {1512121111/11111111/111111/111/11/1}

Atom   0Li   basis set group =>   1
Atom   1S    basis set group =>   2


           ************************************************************
           *        Program running with 8 parallel MPI-processes     *
           *              working on a common directory               *
           ************************************************************
------------------------------------------------------------------------------
                             ORCA STARTUP CALCULATIONS
------------------------------------------------------------------------------
------------------------------------------------------------------------------
                   ___                                                        
                  /   \      - P O W E R E D   B Y -                         
                 /     \                                                     
                 |  |  |   _    _      __       _____    __    __             
                 |  |  |  | |  | |    /  \     |  _  \  |  |  /  |          
                  \  \/   | |  | |   /    \    | | | |  |  | /  /          
                 / \  \   | |__| |  /  /\  \   | |_| |  |  |/  /          
                |  |  |   |  __  | /  /__\  \  |    /   |      \           
                |  |  |   | |  | | |   __   |  |    \   |  |\   \          
                \     /   | |  | | |  |  |  |  | |\  \  |  | \   \       
                 \___/    |_|  |_| |__|  |__|  |_| \__\ |__|  \__/        
                                                                              
                      - O R C A' S   B I G   F R I E N D -                    
                                      &                                       
                       - I N T E G R A L  F E E D E R -                       
                                                                              
 v1 FN, 2020, v2 2021, v3 2022-2024                                           
------------------------------------------------------------------------------


----------------------
SHARK INTEGRAL PACKAGE
----------------------

Number of atoms                             ...      2
Number of basis functions                   ...    163
Number of shells                            ...     43
Maximum angular momentum                    ...      5
Integral batch strategy                     ... SHARK/LIBINT Hybrid
RI-J (if used) integral strategy            ... SPLIT-RIJ (Revised 2003 algorithm where possible)
Printlevel                                  ...      1
Contraction scheme used                     ... SEGMENTED contraction
Prescreening option                         ... SCHWARTZ
   Thresh                                   ... 2.500e-11
   Tcut                                     ... 2.500e-12
   Tpresel                                  ... 2.500e-12 
Coulomb Range Separation                    ... NOT USED
Exchange Range Separation                   ... NOT USED
Multipole approximations                    ... NOT USED
Finite Nucleus Model                        ... NOT USED
CABS basis                                  ... NOT available
Auxiliary Coulomb fitting basis             ... NOT available
Auxiliary J/K fitting basis                 ... NOT available
Auxiliary Correlation fitting basis         ... NOT available
Auxiliary 'external' fitting basis          ... NOT available

Checking pre-screening integrals            ... done (  0.0 sec) Dimension = 43
   => SHARK Basis and OBASIS are compatible. Storing Pre-screening
Shell pair information
Shell pair cut-off parameter TPreSel        ...   2.5e-12
Total number of shell pairs                 ...       946
Shell pairs after pre-screening             ...       946
Total number of primitive shell pairs       ...      8364
Primitive shell pairs kept                  ...      6908
          la=0 lb=0:    120 shell pairs
          la=1 lb=0:    150 shell pairs
          la=1 lb=1:     55 shell pairs
          la=2 lb=0:    135 shell pairs
          la=2 lb=1:     90 shell pairs
          la=2 lb=2:     45 shell pairs
          la=3 lb=0:     75 shell pairs
          la=3 lb=1:     50 shell pairs
          la=3 lb=2:     45 shell pairs
          la=3 lb=3:     15 shell pairs
          la=4 lb=0:     45 shell pairs
          la=4 lb=1:     30 shell pairs
          la=4 lb=2:     27 shell pairs
          la=4 lb=3:     15 shell pairs
          la=4 lb=4:      6 shell pairs
          la=5 lb=0:     15 shell pairs
          la=5 lb=1:     10 shell pairs
          la=5 lb=2:      9 shell pairs
          la=5 lb=3:      5 shell pairs
          la=5 lb=4:      3 shell pairs
          la=5 lb=5:      1 shell pairs

Checking whether 4 symmetric matrices of dimension 163 fit in memory
:Max Core in MB      =   4096.00
 MB in use           =      7.83
 MB left             =   4088.17
 MB needed           =      0.41
 Data fit in memory  = YES
Calculating Nuclear repulsion               ... done (  0.0 sec) ENN=     11.815837557985 Eh

Diagonalization of the overlap matrix:
Smallest eigenvalue                        ... 1.920e-04
Time for diagonalization                   ...    0.002 sec
Threshold for overlap eigenvalues          ... 1.000e-07
Number of eigenvalues below threshold      ... 0
Time for construction of square roots      ...    0.002 sec
Total time needed                          ...    0.006 sec

-------------------
DFT GRID GENERATION
-------------------

General Integration Accuracy     IntAcc      ... 4.388
Radial Grid Type                 RadialGrid  ... OptM3 with GC (2021)
Angular Grid (max. ang.)         AngularGrid ... 4 (Lebedev-302)
Angular grid pruning method      GridPruning ... 4 (adaptive)
Weight generation scheme         WeightScheme... mBecke (2022)
Basis function cutoff            BFCut       ... 1.0000e-11
Integration weight cutoff        WCut        ... 1.0000e-14
Partially contracted basis set               ... off
Rotationally invariant grid construction     ... off
Angular grids for H and He will be reduced by one unit
Diffuse basis detected: some atoms will have their outermost
                        angular grid increased by 1.
Core-polarized basis detected: some atoms will have their core
                               angular grid increased.

Total number of grid points                  ...    16074
Total number of batches                      ...      252
Average number of points per batch           ...       63
Average number of grid points per atom       ...     8037
Grids setup in   0.1 sec
Initializing property integral containers    ... done (  0.0 sec)

SHARK setup successfully completed in   0.2 seconds

Maximum memory used throughout the entire STARTUP-calculation: 99.9 MB


           ************************************************************
           *        Program running with 8 parallel MPI-processes     *
           *              working on a common directory               *
           ************************************************************
-------------------------------------------------------------------------------
                                 ORCA GUESS
                   Start orbitals & Density for SCF / CASSCF
-------------------------------------------------------------------------------

------------
SCF SETTINGS
------------
Hamiltonian:
 Density Functional     Method          .... DFT(GTOs)
  Functional kind                       .... Exchange
  Functional name                       .... Slater exchange
  Functional family                     .... LDA
  Functional refs                              
    [ 0] P. A. M. Dirac.,  Math. Proc. Cambridge Philos. Soc. 26, 376 (1930), doi: 10.1017/S0305004100016108
    [ 1] F. Bloch.,  Z. Phys. 57, 545 (1929), doi: 10.1007/BF01340281
  Functional external parameters        .... 0
 Correlation Functional Correlation     .... No Correlation
 Gradients option       PostSCFGGA      .... off


General Settings:
 Integral files         IntName         .... /cluster/projects/nn14654k/ylvaos/basis_set_n_funcs/functionals/lda_x/LiS/inp/LiS_lda_x_pc4
 Hartree-Fock type      HFTyp           .... UHF
 Total Charge           Charge          ....    0
 Multiplicity           Mult            ....    2
 Number of Electrons    NEL             ....   19
 Basis Dimension        Dim             ....  163
 Nuclear Repulsion      ENuc            ....     11.8158375580 Eh

Convergence Acceleration:
 AO-DIIS                CNVDIIS         .... on
   Start iteration      DIISMaxIt       ....    12
   Startup error        DIISStart       ....  0.200000
   # of expansion vecs  DIISMaxEq       ....     5
   Bias factor          DIISBfac        ....   1.050
   Max. coefficient     DIISMaxC        ....  10.000
 MO-DIIS                CNVKDIIS        .... off
 Trust-Rad. Augm. Hess. CNVTRAH         .... auto
   Auto Start mean grad. ratio tolernc. ....  1.125000
   Auto Start start iteration           ....    50
   Auto Start num. interpolation iter.  ....    10
   Max. Number of Micro iterations      ....    24
   Max. Number of Macro iterations      .... Maxiter - #DIIS iter
   Number of Davidson start vectors     ....     2
   Converg. threshold    (grad. norm)   ....   1.000e-05
   Grad. Scal. Fac. for Micro threshold ....   0.100
   Minimum threshold for Micro iter.    ....   1.000e-02
   NR start threshold (gradient norm)   ....   1.000e-04
   Initial trust radius                 ....   0.400
   Minimum AH scaling param. (alpha)    ....   1.000
   Maximum AH scaling param. (alpha)    .... 1000.000
   Quad. conv. algorithm                .... NR
   White noise on init. David. guess    .... on
   Maximum white noise                  ....   0.010
   Pseudo random numbers                .... off
   Inactive MOs                         .... canonical
   Orbital update algorithm             .... Taylor
   Preconditioner                       .... Diag
   Full preconditioner red. dimension   ....   250
 SOSCF                 CNVSOSCF           .... on
   Start iteration     SOSCFMaxIt         ....   150
   Startup grad/error  SOSCFStart         ....  0.003300
   Hessian update      SOSCFHessUp        .... L-BFGS
   Autom. constraints  SOSCFAutoConstrain .... off
 Level Shifting         CNVShift        .... on
   Level shift para.    LevelShift      ....    0.2500
   Turn off err/grad.   ShiftErr        ....    0.0010
 Zerner damping         CNVZerner       .... off
 Static damping         CNVDamp         .... on
   Fraction old density DampFac         ....    0.7000
   Max. Damping (<1)    DampMax         ....    0.9800
   Min. Damping (>=0)   DampMin         ....    0.0000
   Turn off err/grad.   DampErr         ....    0.1000

SCF Procedure:
 Maximum # iterations   MaxIter         ....   125
 SCF integral mode      SCFMode         .... Direct
   Integral package                     .... SHARK and LIBINT hybrid scheme
 Reset frequency        DirectResetFreq ....    20
 Integral Threshold     Thresh          ....  2.500e-11 Eh
 Primitive CutOff       TCut            ....  2.500e-12 Eh

Convergence Tolerance:
 Convergence Check Mode ConvCheckMode   .... Total+1el-Energy
 Convergence forced     ConvForced      .... 0
 Energy Change          TolE            ....  1.000e-08 Eh
 1-El. energy change                    ....  1.000e-05 Eh
 Orbital Gradient       TolG            ....  1.000e-05
 Orbital Rotation angle TolX            ....  1.000e-05
 DIIS Error             TolErr          ....  5.000e-07

------------------------------
INITIAL GUESS: MODEL POTENTIAL
------------------------------
Loading Hartree-Fock densities                     ... done
Calculating cut-offs                               ... done
Initializing the effective Hamiltonian             ... done
Setting up the integral package (SHARK)            ... done
Starting the Coulomb interaction                   ... done (   0.0 sec)
Making the grid                                    ... done (   0.0 sec)
Mapping shells                                     ... done
Starting the XC term evaluation                    ... done (   0.0 sec)
  promolecular density results
     # of electrons  =     18.999681825
     EX              =    -24.527411549
     EC              =      0.000000000
     EX+EC           =    -24.527411549
Transforming the Hamiltonian                       ... done (   0.0 sec)
Diagonalizing the Hamiltonian                      ... done (   0.0 sec)
Back transforming the eigenvectors                 ... done (   0.0 sec)
Now organizing SCF variables                       ... done
                      ------------------
                      INITIAL GUESS DONE (   0.1 sec)
                      ------------------
             **** ENERGY FILE WAS UPDATED (/cluster/projects/nn14654k/ylvaos/basis_set_n_funcs/functionals/lda_x/LiS/inp/LiS_lda_x_pc4.en.tmp) ****
Finished Guess after   0.1 sec
Maximum memory used throughout the entire GUESS-calculation: 17.2 MB


           ************************************************************
           *        Program running with 8 parallel MPI-processes     *
           *              working on a common directory               *
           ************************************************************

-------------------------------------------------------------------------------------------
                                      ORCA LEAN-SCF
                              memory conserving SCF solver
-------------------------------------------------------------------------------------------

----------------------------------------D-I-I-S--------------------------------------------
Iteration    Energy (Eh)           Delta-E    RMSDP     MaxDP     DIISErr   Damp  Time(sec)
-------------------------------------------------------------------------------------------
               ***  Starting incremental Fock matrix formation  ***
    1    -402.7809075108496017     0.00e+00  1.38e-03  2.55e-02  4.94e-02  0.700   1.1
Warning: op=0 Small HOMO/LUMO gap (   0.057) - skipping pre-diagonalization
         Will do a full diagonalization
    2    -402.7940341395993187    -1.31e-02  1.07e-03  1.55e-02  2.86e-02  0.700   1.1
                               ***Turning on AO-DIIS***
    3    -402.8002989648104517    -6.26e-03  4.64e-04  5.70e-03  1.49e-02  0.700   1.0
    4    -402.8035196626758534    -3.22e-03  8.42e-04  1.22e-02  9.92e-03  0.000   1.0
    5    -402.8105518223655395    -7.03e-03  2.04e-04  2.93e-03  3.64e-03  0.000   1.0
                              *** Initializing SOSCF ***
---------------------------------------S-O-S-C-F--------------------------------------
Iteration    Energy (Eh)           Delta-E    RMSDP     MaxDP     MaxGrad    Time(sec)
--------------------------------------------------------------------------------------
    6    -402.8107040934914949    -1.52e-04  9.32e-05  1.20e-03  1.80e-03     1.0
               *** Restarting incremental Fock matrix formation ***
    7    -402.8107435533653415    -3.95e-05  7.16e-05  6.75e-04  8.13e-04     1.0
    8    -402.8107520547321769    -8.50e-06  5.74e-05  1.04e-03  4.55e-04     1.0
    9    -402.8107549764803252    -2.92e-06  1.70e-05  3.18e-04  2.07e-04     1.0
   10    -402.8107553538877141    -3.77e-07  8.90e-06  1.32e-04  5.42e-05     1.0
   11    -402.8107554366381464    -8.28e-08  4.11e-06  6.63e-05  4.07e-05     1.0
   12    -402.8107554582311423    -2.16e-08  2.09e-06  3.29e-05  1.54e-05     1.0
   13    -402.8107554603237190    -2.09e-09  6.84e-07  7.08e-06  2.96e-06     0.9
                 **** Energy Check signals convergence ****

               *****************************************************
               *                     SUCCESS                       *
               *           SCF CONVERGED AFTER  13 CYCLES          *
               *****************************************************

             **** ENERGY FILE WAS UPDATED (/cluster/projects/nn14654k/ylvaos/basis_set_n_funcs/functionals/lda_x/LiS/inp/LiS_lda_x_pc4.en.tmp) ****

----------------
TOTAL SCF ENERGY
----------------

Total Energy       :       -402.81075546055240 Eh          -10961.03790 eV

Components:
Nuclear Repulsion  :         11.81583755798484 Eh             321.52529 eV
Electronic Energy  :       -414.62659301853728 Eh          -11282.56319 eV
One Electron Energy:       -583.88362900659376 Eh          -15888.28129 eV
Two Electron Energy:        169.25703598805651 Eh            4605.71810 eV

Virial components:
Potential Energy   :       -807.01134396632119 Eh          -21959.89509 eV
Kinetic Energy     :        404.20058850576874 Eh           10998.85718 eV
Virial Ratio       :          1.99656152641847

DFT components:
N(Alpha)           :       10.000000484173 electrons
N(Beta)            :        9.000001270196 electrons
N(Total)           :       19.000001754368 electrons
E(X)               :      -24.564404770190 Eh       
E(C)               :        0.000000000000 Eh       
E(XC)              :      -24.564404770190 Eh       

---------------
SCF CONVERGENCE
---------------

  Last Energy change         ...    2.0926e-09  Tolerance :   1.0000e-08
  Last MAX-Density change    ...    7.0751e-06  Tolerance :   1.0000e-07
  Last RMS-Density change    ...    6.8393e-07  Tolerance :   5.0000e-09
  Last DIIS Error            ...    1.8021e-03  Tolerance :   5.0000e-07
  Last Orbital Gradient      ...    2.9561e-06  Tolerance :   1.0000e-05
  Last Orbital Rotation      ...    2.3866e-05  Tolerance :   1.0000e-05


----------------------
UHF SPIN CONTAMINATION
----------------------

Warning: in a DFT calculation there is little theoretical justification to 
         calculate <S**2> as in Hartree-Fock theory. We will do it anyways
         but you should keep in mind that the values have only limited relevance

Expectation value of <S**2>     :     0.755412
Ideal value S*(S+1) for S=0.5   :     0.750000
Deviation                       :     0.005412

----------------
ORBITAL ENERGIES
----------------
                 SPIN UP ORBITALS
  NO   OCC          E(Eh)            E(eV) 
   0   1.0000     -87.567762     -2382.8399 
   1   1.0000      -7.526052      -204.7943 
   2   1.0000      -5.587253      -152.0369 
   3   1.0000      -5.571867      -151.6182 
   4   1.0000      -5.571506      -151.6084 
   5   1.0000      -1.799483       -48.9664 
   6   1.0000      -0.520270       -14.1573 
   7   1.0000      -0.188514        -5.1297 
   8   1.0000      -0.167557        -4.5595 
   9   1.0000      -0.146531        -3.9873 
  10   0.0000      -0.048780        -1.3274 
  11   0.0000       0.002505         0.0682 
  12   0.0000       0.007365         0.2004 
  13   0.0000       0.020156         0.5485 
  14   0.0000       0.029912         0.8140 
  15   0.0000       0.075938         2.0664 
  16   0.0000       0.081032         2.2050 
  17   0.0000       0.095684         2.6037 
  18   0.0000       0.107993         2.9386 
  19   0.0000       0.108494         2.9523 
  20   0.0000       0.116512         3.1704 

                 SPIN DOWN ORBITALS
  NO   OCC          E(Eh)            E(eV) 
   0   1.0000     -87.562800     -2382.7049 
   1   1.0000      -7.519751      -204.6228 
   2   1.0000      -5.573653      -151.6668 
   3   1.0000      -5.567319      -151.4945 
   4   1.0000      -5.566825      -151.4810 
   5   1.0000      -1.799673       -48.9716 
   6   1.0000      -0.479030       -13.0351 
   7   1.0000      -0.149039        -4.0556 
   8   1.0000      -0.128402        -3.4940 
   9   0.0000      -0.118881        -3.2349 
  10   0.0000      -0.048869        -1.3298 
  11   0.0000       0.005916         0.1610 
  12   0.0000       0.009953         0.2708 
  13   0.0000       0.020742         0.5644 
  14   0.0000       0.033909         0.9227 
  15   0.0000       0.079827         2.1722 
  16   0.0000       0.083749         2.2789 
  17   0.0000       0.096917         2.6372 
  18   0.0000       0.109656         2.9839 
  19   0.0000       0.118576         3.2266 
*Only the first 10 virtual orbitals were printed.

                    ********************************
                    * MULLIKEN POPULATION ANALYSIS *
                    ********************************

--------------------------------------------
MULLIKEN ATOMIC CHARGES AND SPIN POPULATIONS
--------------------------------------------
   0 Li:    0.455728   -0.017799
   1 S :   -0.455728    1.017799
Sum of atomic charges         :   -0.0000000
Sum of atomic spin populations:    1.0000000

-----------------------------------------------------
MULLIKEN REDUCED ORBITAL CHARGES AND SPIN POPULATIONS
-----------------------------------------------------
CHARGE
  0 Lis       :     2.195709  s :     2.195709
      pz      :     0.146624  p :     0.298101
      px      :     0.079527
      py      :     0.071950
      dz2     :     0.012756  d :     0.044071
      dxz     :     0.016271
      dyz     :     0.014990
      dx2y2   :     0.000000
      dxy     :     0.000053
      f0      :     0.001764  f :     0.006054
      f+1     :     0.002217
      f-1     :     0.002037
      f+2     :     0.000000
      f-2     :     0.000023
      f+3     :     0.000006
      f-3     :     0.000007
      g0      :     0.000157  g :     0.000337
      g+1     :     0.000092
      g-1     :     0.000087
      g+2     :     0.000000
      g-2     :     0.000001
      g+3     :     0.000000
      g-3     :     0.000000
      g+4     :     0.000000
      g-4     :     0.000000

  1 S s       :     5.939385  s :     5.939385
      pz      :     3.700275  p :    10.506631
      px      :     3.441620
      py      :     3.364736
      dz2     :     0.001631  d :     0.008554
      dxz     :     0.002977
      dyz     :     0.002858
      dx2y2   :     0.000008
      dxy     :     0.001079
      f0      :     0.000303  f :     0.001080
      f+1     :     0.000064
      f-1     :     0.000047
      f+2     :     0.000001
      f-2     :     0.000171
      f+3     :     0.000245
      f-3     :     0.000249
      g0      :     0.000056  g :     0.000075
      g+1     :     0.000009
      g-1     :     0.000008
      g+2     :     0.000000
      g-2     :     0.000001
      g+3     :     0.000001
      g-3     :     0.000001
      g+4     :     0.000001
      g-4     :     0.000000
      h0      :     0.000003  h :     0.000004
      h+1     :     0.000000
      h-1     :     0.000000
      h+2     :     0.000000
      h-2     :     0.000000
      h+3     :     0.000000
      h-3     :     0.000000
      h+4     :     0.000000
      h-4     :     0.000000
      h+5     :     0.000000
      h-5     :     0.000000


SPIN
  0 Lis       :    -0.025860  s :    -0.025860
      pz      :    -0.010641  p :     0.001967
      px      :     0.004116
      py      :     0.008492
      dz2     :    -0.000832  d :     0.005285
      dxz     :     0.002599
      dyz     :     0.003486
      dx2y2   :     0.000000
      dxy     :     0.000032
      f0      :    -0.000078  f :     0.000750
      f+1     :     0.000338
      f-1     :     0.000457
      f+2     :     0.000000
      f-2     :     0.000022
      f+3     :     0.000005
      f-3     :     0.000006
      g0      :    -0.000002  g :     0.000059
      g+1     :     0.000027
      g-1     :     0.000032
      g+2     :     0.000000
      g-2     :     0.000001
      g+3     :     0.000000
      g-3     :     0.000000
      g+4     :    -0.000000
      g-4     :    -0.000000

  1 S s       :     0.006857  s :     0.006857
      pz      :     0.028587  p :     1.006261
      px      :     0.448586
      py      :     0.529088
      dz2     :     0.000823  d :     0.004258
      dxz     :     0.001137
      dyz     :     0.001309
      dx2y2   :     0.000007
      dxy     :     0.000981
      f0      :    -0.000062  f :     0.000422
      f+1     :    -0.000086
      f-1     :    -0.000079
      f+2     :     0.000001
      f-2     :     0.000164
      f+3     :     0.000241
      f-3     :     0.000242
      g0      :    -0.000001  g :     0.000001
      g+1     :     0.000000
      g-1     :     0.000001
      g+2     :     0.000000
      g-2     :     0.000000
      g+3     :     0.000001
      g-3     :     0.000001
      g+4     :    -0.000001
      g-4     :    -0.000000
      h0      :     0.000000  h :     0.000000
      h+1     :     0.000000
      h-1     :     0.000000
      h+2     :    -0.000000
      h-2     :    -0.000000
      h+3     :    -0.000000
      h-3     :    -0.000000
      h+4     :    -0.000000
      h-4     :    -0.000000
      h+5     :    -0.000000
      h-5     :    -0.000000



                     *******************************
                     * LOEWDIN POPULATION ANALYSIS *
                     *******************************

-------------------------------------------
LOEWDIN ATOMIC CHARGES AND SPIN POPULATIONS
-------------------------------------------
   0 Li:   -0.207994    0.103233
   1 S :    0.207994    0.896767

----------------------------------------------------
LOEWDIN REDUCED ORBITAL CHARGES AND SPIN POPULATIONS
----------------------------------------------------
CHARGE
  0 Lis       :     2.242805  s :     2.242805
      pz      :     0.330370  p :     0.561663
      px      :     0.120586
      py      :     0.110707
      dz2     :     0.139535  d :     0.273533
      dxz     :     0.068851
      dyz     :     0.065089
      dx2y2   :     0.000000
      dxy     :     0.000057
      f0      :     0.051558  f :     0.121534
      f+1     :     0.035806
      f-1     :     0.034122
      f+2     :     0.000000
      f-2     :     0.000035
      f+3     :     0.000006
      f-3     :     0.000007
      g0      :     0.004186  g :     0.008459
      g+1     :     0.002185
      g-1     :     0.002083
      g+2     :     0.000000
      g-2     :     0.000003
      g+3     :     0.000001
      g-3     :     0.000001
      g+4     :     0.000000
      g-4     :     0.000000

  1 S s       :     5.539144  s :     5.539144
      pz      :     3.675500  p :    10.234553
      px      :     3.314849
      py      :     3.244204
      dz2     :     0.012749  d :     0.014259
      dxz     :     0.000226
      dyz     :     0.000211
      dx2y2   :     0.000008
      dxy     :     0.001064
      f0      :     0.002441  f :     0.003627
      f+1     :     0.000251
      f-1     :     0.000273
      f+2     :     0.000001
      f-2     :     0.000168
      f+3     :     0.000245
      f-3     :     0.000248
      g0      :     0.000341  g :     0.000386
      g+1     :     0.000021
      g-1     :     0.000021
      g+2     :     0.000000
      g-2     :     0.000001
      g+3     :     0.000000
      g-3     :     0.000000
      g+4     :     0.000001
      g-4     :     0.000000
      h0      :     0.000031  h :     0.000037
      h+1     :     0.000003
      h-1     :     0.000003
      h+2     :     0.000000
      h-2     :     0.000000
      h+3     :     0.000000
      h-3     :     0.000000
      h+4     :     0.000000
      h-4     :     0.000000
      h+5     :     0.000000
      h-5     :     0.000000


SPIN
  0 Lis       :    -0.011801  s :    -0.011801
      pz      :    -0.001294  p :     0.039034
      px      :     0.016886
      py      :     0.023441
      dz2     :     0.001312  d :     0.047190
      dxz     :     0.021015
      dyz     :     0.024827
      dx2y2   :     0.000000
      dxy     :     0.000036
      f0      :     0.000592  f :     0.027188
      f+1     :     0.012264
      f-1     :     0.014288
      f+2     :     0.000000
      f-2     :     0.000032
      f+3     :     0.000006
      f-3     :     0.000006
      g0      :    -0.000015  g :     0.001621
      g+1     :     0.000754
      g-1     :     0.000878
      g+2     :     0.000000
      g-2     :     0.000003
      g+3     :     0.000001
      g-3     :     0.000001
      g+4     :    -0.000000
      g-4     :    -0.000000

  1 S s       :     0.003362  s :     0.003362
      pz      :     0.005689  p :     0.890243
      px      :     0.405522
      py      :     0.479032
      dz2     :     0.000714  d :     0.001778
      dxz     :     0.000037
      dyz     :     0.000052
      dx2y2   :     0.000007
      dxy     :     0.000968
      f0      :     0.000228  f :     0.001351
      f+1     :     0.000227
      f-1     :     0.000253
      f+2     :     0.000001
      f-2     :     0.000160
      f+3     :     0.000241
      f-3     :     0.000242
      g0      :     0.000004  g :     0.000031
      g+1     :     0.000013
      g-1     :     0.000014
      g+2     :     0.000000
      g-2     :     0.000000
      g+3     :     0.000000
      g-3     :     0.000000
      g+4     :    -0.000001
      g-4     :    -0.000000
      h0      :    -0.000001  h :     0.000002
      h+1     :     0.000001
      h-1     :     0.000001
      h+2     :    -0.000000
      h-2     :    -0.000000
      h+3     :    -0.000000
      h-3     :    -0.000000
      h+4     :    -0.000000
      h-4     :    -0.000000
      h+5     :    -0.000000
      h-5     :    -0.000000



                      *****************************
                      * MAYER POPULATION ANALYSIS *
                      *****************************

  NA   - Mulliken gross atomic population
  ZA   - Total nuclear charge
  QA   - Mulliken gross atomic charge
  VA   - Mayer's total valence
  BVA  - Mayer's bonded valence
  FA   - Mayer's free valence

  ATOM       NA         ZA         QA         VA         BVA        FA
  0 Li     2.5443     3.0000     0.4557     0.9115     0.9080     0.0035
  1 S     16.4557    16.0000    -0.4557     1.8355     0.9080     0.9275

  Mayer bond orders larger than 0.100000
B(  0-Li,  1-S ) :   0.9080 

-------
TIMINGS
-------

Total SCF time: 0 days 0 hours 0 min 14 sec 

Total time                  ....      14.325 sec
Sum of individual times     ....      13.447 sec  ( 93.9%)

SCF preparation             ....       0.085 sec  (  0.6%)
Fock matrix formation       ....      12.798 sec  ( 89.3%)
  Startup                   ....       0.021 sec  (  0.2% of F)
  Coulomb formation         ....      12.824 sec  (100.2% of F)
  XC integration            ....       0.458 sec  (  3.6% of F)
    XC Preparation          ....       0.000 sec  (  0.0% of XC)
    Basis function eval.    ....       0.025 sec  (  5.4% of XC)
    Density eval.           ....       0.052 sec  ( 11.4% of XC)
    XC-Functional eval.     ....       0.005 sec  (  1.2% of XC)
    XC-Potential eval.      ....       0.087 sec  ( 19.0% of XC)
Diagonalization             ....       0.000 sec  (  0.0%)
Density matrix formation    ....       0.137 sec  (  1.0%)
Total Energy calculation    ....       0.025 sec  (  0.2%)
Population analysis         ....       0.014 sec  (  0.1%)
Orbital Transformation      ....       0.033 sec  (  0.2%)
Orbital Orthonormalization  ....       0.000 sec  (  0.0%)
DIIS solution               ....       0.184 sec  (  1.3%)
SOSCF solution              ....       0.171 sec  (  1.2%)
Finished LeanSCF after  14.4 sec

Maximum memory used throughout the entire LEANSCF-calculation: 98.9 MB


           ************************************************************
           *        Program running with 8 parallel MPI-processes     *
           *              working on a common directory               *
           ************************************************************

------------------------------------------------------------------------------
                         ORCA PROPERTY INTEGRAL CALCULATIONS
------------------------------------------------------------------------------

GBWName                                   ... /cluster/projects/nn14654k/ylvaos/basis_set_n_funcs/functionals/lda_x/LiS/inp/LiS_lda_x_pc4.gbw
Number of atoms                           ...      2
Number of basis functions                 ...    163
Max core memory                           ...   4096 MB

Dipole integrals                          ... YES
Quadrupole integrals                      ... YES
Linear momentum integrals                 ...  NO
Angular momentum integrals                ...  NO
Higher moments length integrals           ...  NO
Higher moments velocity integrals         ...  NO
Kinetic energy integrals                  ...  NO
GIAO right hand sides                     ...  NO
GIAO dipole derivative integrals          ...  NO
SOC integrals                             ...  NO
EPR diamagnetic integrals (GIAO)          ...  NO
EPR gauge integrals                       ...  NO
Field gradient integrals                  ...  NO (   0 nuclei)
Spin-dipole/Fermi contact integrals       ...  NO (   0 nuclei)
Contact density integrals                 ...  NO (   0 nuclei)
Nucleus-orbit integrals                   ...  NO (   0 nuclei)
Geometric perturbations                   ...  NO (   2 nuclei)

Choice of electric origin   ... Center of mass
Position of electric origin ... (  0.0000,  0.0000,  1.3082) 
Choice of magnetic origin   ... GIAO
Position of magnetic origin ... (  0.0000,  0.0000,  0.0000) 

Calculating integrals                     ... Electric Dipole (Length)     done (  0.0 sec)
Calculating integrals                     ... Electric Quadrupole (Length) done (  0.0 sec)

Property integrals calculated in   0.0 sec

Maximum memory used throughout the entire PROPINT-calculation: 18.0 MB
------------------------------------------------------------------------------
                           ORCA ORBITAL LOCALIZATION
------------------------------------------------------------------------------

Input orbitals are from                  ... /cluster/projects/nn14654k/ylvaos/basis_set_n_funcs/functionals/lda_x/LiS/inp/LiS_lda_x_pc4.gbw
Output orbitals are to                   ... /cluster/projects/nn14654k/ylvaos/basis_set_n_funcs/functionals/lda_x/LiS/inp/LiS_lda_x_pc4.loc
Max. number of iterations                ... 128
Localizations seeded randomly            ... on
Convergence tolerance                    ... 1.000e-06
Threshold for strong local MOs           ... 9.500e-01
Threshold for bond MOs                   ... 8.500e-01
Operator                                 ... 0
Orbital range for localization           ... 5 to 9
Localization criterion                   ... NEW-BOYS
Doing the dipole integrals               ... o.k.
Initial value of the localization sum :    12.265726
ITERATION   0 : L=   15.4990669130 DL=  3.23e+00 (AVERGE_DL)=    0.5686247484 
ITERATION   1 : L=   15.7393668031 DL=  2.40e-01 (AVERGE_DL)=    0.1550160927 
ITERATION   2 : L=   15.7792701929 DL=  3.99e-02 (AVERGE_DL)=    0.0631691300 
ITERATION   3 : L=   15.8202286165 DL=  4.10e-02 (AVERGE_DL)=    0.0639987684 
ITERATION   4 : L=   15.8446239955 DL=  2.44e-02 (AVERGE_DL)=    0.0493916784 
ITERATION   5 : L=   15.8611320643 DL=  1.65e-02 (AVERGE_DL)=    0.0406301229 
ITERATION   6 : L=   15.8709492549 DL=  9.82e-03 (AVERGE_DL)=    0.0313323963 
ITERATION   7 : L=   15.8767902014 DL=  5.84e-03 (AVERGE_DL)=    0.0241680502 
ITERATION   8 : L=   15.8802032923 DL=  3.41e-03 (AVERGE_DL)=    0.0184745525 
ITERATION   9 : L=   15.8822030905 DL=  2.00e-03 (AVERGE_DL)=    0.0141414221 
ITERATION  10 : L=   15.8833785032 DL=  1.18e-03 (AVERGE_DL)=    0.0108416454 
ITERATION  11 : L=   15.8840739500 DL=  6.95e-04 (AVERGE_DL)=    0.0083393450 
ITERATION  12 : L=   15.8844886908 DL=  4.15e-04 (AVERGE_DL)=    0.0064400373 
ITERATION  13 : L=   15.8847386059 DL=  2.50e-04 (AVERGE_DL)=    0.0049991510 
ITERATION  14 : L=   15.8848913726 DL=  1.53e-04 (AVERGE_DL)=    0.0039085383 
ITERATION  15 : L=   15.8849867462 DL=  9.54e-05 (AVERGE_DL)=    0.0030882618 
ITERATION  16 : L=   15.8850481930 DL=  6.14e-05 (AVERGE_DL)=    0.0024788464 
ITERATION  17 : L=   15.8850896326 DL=  4.14e-05 (AVERGE_DL)=    0.0020356723 
ITERATION  18 : L=   15.8851193524 DL=  2.97e-05 (AVERGE_DL)=    0.0017239431 
ITERATION  19 : L=   15.8851423037 DL=  2.30e-05 (AVERGE_DL)=    0.0015149673 
ITERATION  20 : L=   15.8851614556 DL=  1.92e-05 (AVERGE_DL)=    0.0013839031 
ITERATION  21 : L=   15.8851785943 DL=  1.71e-05 (AVERGE_DL)=    0.0013091509 
ITERATION  22 : L=   15.8851948005 DL=  1.62e-05 (AVERGE_DL)=    0.0012730333 
ITERATION  23 : L=   15.8852107318 DL=  1.59e-05 (AVERGE_DL)=    0.0012621953 
ITERATION  24 : L=   15.8852267857 DL=  1.61e-05 (AVERGE_DL)=    0.0012670374 
ITERATION  25 : L=   15.8852432276 DL=  1.64e-05 (AVERGE_DL)=    0.0012822621 
ITERATION  26 : L=   15.8852602266 DL=  1.70e-05 (AVERGE_DL)=    0.0013038003 
ITERATION  27 : L=   15.8852778667 DL=  1.76e-05 (AVERGE_DL)=    0.0013281596 
ITERATION  28 : L=   15.8852962372 DL=  1.84e-05 (AVERGE_DL)=    0.0013553794 
ITERATION  29 : L=   15.8853153939 DL=  1.92e-05 (AVERGE_DL)=    0.0013840783 
ITERATION  30 : L=   15.8853353829 DL=  2.00e-05 (AVERGE_DL)=    0.0014138244 
ITERATION  31 : L=   15.8853562432 DL=  2.09e-05 (AVERGE_DL)=    0.0014443080 
ITERATION  32 : L=   15.8853780098 DL=  2.18e-05 (AVERGE_DL)=    0.0014753523 
ITERATION  33 : L=   15.8854007156 DL=  2.27e-05 (AVERGE_DL)=    0.0015068423 
ITERATION  34 : L=   15.8854243918 DL=  2.37e-05 (AVERGE_DL)=    0.0015387088 
ITERATION  35 : L=   15.8854490689 DL=  2.47e-05 (AVERGE_DL)=    0.0015708941 
ITERATION  36 : L=   15.8854747763 DL=  2.57e-05 (AVERGE_DL)=    0.0016033520 
ITERATION  37 : L=   15.8855015426 DL=  2.68e-05 (AVERGE_DL)=    0.0016360434 
ITERATION  38 : L=   15.8855293959 DL=  2.79e-05 (AVERGE_DL)=    0.0016689304 
ITERATION  39 : L=   15.8855583633 DL=  2.90e-05 (AVERGE_DL)=    0.0017019795 
ITERATION  40 : L=   15.8855884706 DL=  3.01e-05 (AVERGE_DL)=    0.0017351471 
ITERATION  41 : L=   15.8856197425 DL=  3.13e-05 (AVERGE_DL)=    0.0017683864 
ITERATION  42 : L=   15.8856522026 DL=  3.25e-05 (AVERGE_DL)=    0.0018016684 
ITERATION  43 : L=   15.8856858721 DL=  3.37e-05 (AVERGE_DL)=    0.0018349238 
ITERATION  44 : L=   15.8857207675 DL=  3.49e-05 (AVERGE_DL)=    0.0018680321 
ITERATION  45 : L=   15.8857569140 DL=  3.61e-05 (AVERGE_DL)=    0.0019012222 
ITERATION  46 : L=   15.8857943218 DL=  3.74e-05 (AVERGE_DL)=    0.0019341106 
ITERATION  47 : L=   15.8858330039 DL=  3.87e-05 (AVERGE_DL)=    0.0019667758 
ITERATION  48 : L=   15.8858729696 DL=  4.00e-05 (AVERGE_DL)=    0.0019991434 
ITERATION  49 : L=   15.8859142256 DL=  4.13e-05 (AVERGE_DL)=    0.0020311564 
ITERATION  50 : L=   15.8859567746 DL=  4.25e-05 (AVERGE_DL)=    0.0020627405 
ITERATION  51 : L=   15.8860006162 DL=  4.38e-05 (AVERGE_DL)=    0.0020938399 
ITERATION  52 : L=   15.8860457454 DL=  4.51e-05 (AVERGE_DL)=    0.0021243630 
ITERATION  53 : L=   15.8860921531 DL=  4.64e-05 (AVERGE_DL)=    0.0021542447 
ITERATION  54 : L=   15.8861398263 DL=  4.77e-05 (AVERGE_DL)=    0.0021834194 
ITERATION  55 : L=   15.8861887469 DL=  4.89e-05 (AVERGE_DL)=    0.0022118001 
ITERATION  56 : L=   15.8862388919 DL=  5.01e-05 (AVERGE_DL)=    0.0022393068 
ITERATION  57 : L=   15.8862902333 DL=  5.13e-05 (AVERGE_DL)=    0.0022658639 
ITERATION  58 : L=   15.8863427381 DL=  5.25e-05 (AVERGE_DL)=    0.0022913930 
ITERATION  59 : L=   15.8863963683 DL=  5.36e-05 (AVERGE_DL)=    0.0023158189 
ITERATION  60 : L=   15.8864510798 DL=  5.47e-05 (AVERGE_DL)=    0.0023390504 
ITERATION  61 : L=   15.8865068237 DL=  5.57e-05 (AVERGE_DL)=    0.0023610151 
ITERATION  62 : L=   15.8865635459 DL=  5.67e-05 (AVERGE_DL)=    0.0023816423 
ITERATION  63 : L=   15.8866211866 DL=  5.76e-05 (AVERGE_DL)=    0.0024008470 
ITERATION  64 : L=   15.8866796807 DL=  5.85e-05 (AVERGE_DL)=    0.0024185557 
ITERATION  65 : L=   15.8867389584 DL=  5.93e-05 (AVERGE_DL)=    0.0024346998 
ITERATION  66 : L=   15.8867989450 DL=  6.00e-05 (AVERGE_DL)=    0.0024492164 
ITERATION  67 : L=   15.8868595617 DL=  6.06e-05 (AVERGE_DL)=    0.0024620466 
ITERATION  68 : L=   15.8869207245 DL=  6.12e-05 (AVERGE_DL)=    0.0024731114 
ITERATION  69 : L=   15.8869823462 DL=  6.16e-05 (AVERGE_DL)=    0.0024823710 
ITERATION  70 : L=   15.8870443364 DL=  6.20e-05 (AVERGE_DL)=    0.0024897843 
ITERATION  71 : L=   15.8871066014 DL=  6.23e-05 (AVERGE_DL)=    0.0024952949 
ITERATION  72 : L=   15.8871690449 DL=  6.24e-05 (AVERGE_DL)=    0.0024988692 
ITERATION  73 : L=   15.8872315685 DL=  6.25e-05 (AVERGE_DL)=    0.0025004731 
ITERATION  74 : L=   15.8872940739 DL=  6.25e-05 (AVERGE_DL)=    0.0025001087 
ITERATION  75 : L=   15.8873564602 DL=  6.24e-05 (AVERGE_DL)=    0.0024977245 
ITERATION  76 : L=   15.8874186278 DL=  6.22e-05 (AVERGE_DL)=    0.0024933436 
ITERATION  77 : L=   15.8874804769 DL=  6.18e-05 (AVERGE_DL)=    0.0024869479 
ITERATION  78 : L=   15.8875419089 DL=  6.14e-05 (AVERGE_DL)=    0.0024785480 
ITERATION  79 : L=   15.8876028272 DL=  6.09e-05 (AVERGE_DL)=    0.0024681627 
ITERATION  80 : L=   15.8876631381 DL=  6.03e-05 (AVERGE_DL)=    0.0024558283 
ITERATION  81 : L=   15.8877227497 DL=  5.96e-05 (AVERGE_DL)=    0.0024415471 
ITERATION  82 : L=   15.8877815743 DL=  5.88e-05 (AVERGE_DL)=    0.0024253782 
ITERATION  83 : L=   15.8878395280 DL=  5.80e-05 (AVERGE_DL)=    0.0024073584 
ITERATION  84 : L=   15.8878965322 DL=  5.70e-05 (AVERGE_DL)=    0.0023875558 
ITERATION  85 : L=   15.8879525122 DL=  5.60e-05 (AVERGE_DL)=    0.0023660087 
ITERATION  86 : L=   15.8880073991 DL=  5.49e-05 (AVERGE_DL)=    0.0023427959 
ITERATION  87 : L=   15.8880611295 DL=  5.37e-05 (AVERGE_DL)=    0.0023179813 
ITERATION  88 : L=   15.8881136463 DL=  5.25e-05 (AVERGE_DL)=    0.0022916546 
ITERATION  89 : L=   15.8881648978 DL=  5.13e-05 (AVERGE_DL)=    0.0022638787 
ITERATION  90 : L=   15.8882148385 DL=  4.99e-05 (AVERGE_DL)=    0.0022347417 
ITERATION  91 : L=   15.8882634294 DL=  4.86e-05 (AVERGE_DL)=    0.0022043350 
ITERATION  92 : L=   15.8883106384 DL=  4.72e-05 (AVERGE_DL)=    0.0021727621 
ITERATION  93 : L=   15.8883564380 DL=  4.58e-05 (AVERGE_DL)=    0.0021400844 
ITERATION  94 : L=   15.8884008079 DL=  4.44e-05 (AVERGE_DL)=    0.0021064167 
ITERATION  95 : L=   15.8884437332 DL=  4.29e-05 (AVERGE_DL)=    0.0020718435 
ITERATION  96 : L=   15.8884852055 DL=  4.15e-05 (AVERGE_DL)=    0.0020364738 
ITERATION  97 : L=   15.8885252209 DL=  4.00e-05 (AVERGE_DL)=    0.0020003838 
ITERATION  98 : L=   15.8885637809 DL=  3.86e-05 (AVERGE_DL)=    0.0019636700 
ITERATION  99 : L=   15.8886008920 DL=  3.71e-05 (AVERGE_DL)=    0.0019264266 
ITERATION 100 : L=   15.8886365659 DL=  3.57e-05 (AVERGE_DL)=    0.0018887525 
ITERATION 101 : L=   15.8886708175 DL=  3.43e-05 (AVERGE_DL)=    0.0018507188 
ITERATION 102 : L=   15.8887036660 DL=  3.28e-05 (AVERGE_DL)=    0.0018124139 
ITERATION 103 : L=   15.8887351338 DL=  3.15e-05 (AVERGE_DL)=    0.0017739184 
ITERATION 104 : L=   15.8887652472 DL=  3.01e-05 (AVERGE_DL)=    0.0017353213 
ITERATION 105 : L=   15.8887940346 DL=  2.88e-05 (AVERGE_DL)=    0.0016966854 
ITERATION 106 : L=   15.8888215268 DL=  2.75e-05 (AVERGE_DL)=    0.0016580754 
ITERATION 107 : L=   15.8888477567 DL=  2.62e-05 (AVERGE_DL)=    0.0016195660 
ITERATION 108 : L=   15.8888727595 DL=  2.50e-05 (AVERGE_DL)=    0.0015812266 
ITERATION 109 : L=   15.8888965712 DL=  2.38e-05 (AVERGE_DL)=    0.0015431059 
ITERATION 110 : L=   15.8889192292 DL=  2.27e-05 (AVERGE_DL)=    0.0015052568 
ITERATION 111 : L=   15.8889407719 DL=  2.15e-05 (AVERGE_DL)=    0.0014677419 
ITERATION 112 : L=   15.8889612377 DL=  2.05e-05 (AVERGE_DL)=    0.0014305866 
ITERATION 113 : L=   15.8889806661 DL=  1.94e-05 (AVERGE_DL)=    0.0013938603 
ITERATION 114 : L=   15.8889990963 DL=  1.84e-05 (AVERGE_DL)=    0.0013575780 
ITERATION 115 : L=   15.8890165673 DL=  1.75e-05 (AVERGE_DL)=    0.0013217776 
ITERATION 116 : L=   15.8890331182 DL=  1.66e-05 (AVERGE_DL)=    0.0012865052 
ITERATION 117 : L=   15.8890487878 DL=  1.57e-05 (AVERGE_DL)=    0.0012517802 
ITERATION 118 : L=   15.8890636137 DL=  1.48e-05 (AVERGE_DL)=    0.0012176194 
ITERATION 119 : L=   15.8890776334 DL=  1.40e-05 (AVERGE_DL)=    0.0011840466 
ITERATION 120 : L=   15.8890908835 DL=  1.33e-05 (AVERGE_DL)=    0.0011510919 
ITERATION 121 : L=   15.8891033996 DL=  1.25e-05 (AVERGE_DL)=    0.0011187522 
ITERATION 122 : L=   15.8891152166 DL=  1.18e-05 (AVERGE_DL)=    0.0010870608 
ITERATION 123 : L=   15.8891263681 DL=  1.12e-05 (AVERGE_DL)=    0.0010560057 
ITERATION 124 : L=   15.8891368869 DL=  1.05e-05 (AVERGE_DL)=    0.0010256144 
ITERATION 125 : L=   15.8891468045 DL=  9.92e-06 (AVERGE_DL)=    0.0009958698 
ITERATION 126 : L=   15.8891561515 DL=  9.35e-06 (AVERGE_DL)=    0.0009667992 
ITERATION 127 : L=   15.8891649574 DL=  8.81e-06 (AVERGE_DL)=    0.0009383986 
MAXIMUM NO OF ITERATIONS EXCEEDED - LOCALIZATION NOT CONVERGED


--------------------------------------------------------------------------------
                    LOCALIZED MOLECULAR ORBITAL COMPOSITIONS
--------------------------------------------------------------------------------

The Mulliken populations for each LMO on each atom are computed
The LMO`s will be ordered according to atom index and type
  (A) Strongly localized MO`s have populations of >=0.950 on one atom
  (B) Two center bond orbitals have populations of >=0.850 on two atoms
  (C) Other MO`s are considered to be `delocalized`

FOUND  -   2 strongly local MO`s
       -   3 two center bond MO`s
       -   0 significantly delocalized MO`s

Rather strongly localized orbitals:
MO   6:   1S  -   0.978714
MO   5:   0Li -   1.007699
Bond-like localized orbitals:
MO   9:   1S  -   0.911008  and   0Li -   0.088992
MO   8:   1S  -   0.909070  and   0Li -   0.090930
MO   7:   1S  -   0.945660  and   0Li -   0.054340
Localized MO's were stored in: /cluster/projects/nn14654k/ylvaos/basis_set_n_funcs/functionals/lda_x/LiS/inp/LiS_lda_x_pc4.loc
------------------------------------------------------------------------------
                           ORCA ORBITAL LOCALIZATION
------------------------------------------------------------------------------

Input orbitals are from                  ... /cluster/projects/nn14654k/ylvaos/basis_set_n_funcs/functionals/lda_x/LiS/inp/LiS_lda_x_pc4.loc
Output orbitals are to                   ... /cluster/projects/nn14654k/ylvaos/basis_set_n_funcs/functionals/lda_x/LiS/inp/LiS_lda_x_pc4.loc
Max. number of iterations                ... 128
Localizations seeded randomly            ... on
Convergence tolerance                    ... 1.000e-06
Threshold for strong local MOs           ... 9.500e-01
Threshold for bond MOs                   ... 8.500e-01
Operator                                 ... 1
Orbital range for localization           ... 5 to 8
Localization criterion                   ... NEW-BOYS
Doing the dipole integrals               ... o.k.
Initial value of the localization sum :    11.908298
ITERATION   0 : L=   14.7796690357 DL=  2.87e+00 (AVERGE_DL)=    0.6917815885 
ITERATION   1 : L=   14.8426112012 DL=  6.29e-02 (AVERGE_DL)=    0.1024224630 
ITERATION   2 : L=   14.8766274098 DL=  3.40e-02 (AVERGE_DL)=    0.0752952063 
ITERATION   3 : L=   14.9661328473 DL=  8.95e-02 (AVERGE_DL)=    0.1221375164 
ITERATION   4 : L=   15.1306990716 DL=  1.65e-01 (AVERGE_DL)=    0.1656131156 
ITERATION   5 : L=   15.2710295295 DL=  1.40e-01 (AVERGE_DL)=    0.1529326965 
ITERATION   6 : L=   15.3371213683 DL=  6.61e-02 (AVERGE_DL)=    0.1049538302 
ITERATION   7 : L=   15.3612363376 DL=  2.41e-02 (AVERGE_DL)=    0.0633968576 
ITERATION   8 : L=   15.3694385351 DL=  8.20e-03 (AVERGE_DL)=    0.0369734082 
ITERATION   9 : L=   15.3721950798 DL=  2.76e-03 (AVERGE_DL)=    0.0214341809 
ITERATION  10 : L=   15.3731234374 DL=  9.28e-04 (AVERGE_DL)=    0.0124389018 
ITERATION  11 : L=   15.3734373711 DL=  3.14e-04 (AVERGE_DL)=    0.0072334137 
ITERATION  12 : L=   15.3735438815 DL=  1.07e-04 (AVERGE_DL)=    0.0042132814 
ITERATION  13 : L=   15.3735800986 DL=  3.62e-05 (AVERGE_DL)=    0.0024568637 
ITERATION  14 : L=   15.3735924308 DL=  1.23e-05 (AVERGE_DL)=    0.0014336583 
ITERATION  15 : L=   15.3735966337 DL=  4.20e-06 (AVERGE_DL)=    0.0008369415 
ITERATION  16 : L=   15.3735980666 DL=  1.43e-06 (AVERGE_DL)=    0.0004886906 
ITERATION  17 : L=   15.3735985555 DL=  4.89e-07 (AVERGE_DL)=    0.0002854485 
LOCALIZATION SUM CONVERGED


--------------------------------------------------------------------------------
                    LOCALIZED MOLECULAR ORBITAL COMPOSITIONS
--------------------------------------------------------------------------------

The Mulliken populations for each LMO on each atom are computed
The LMO`s will be ordered according to atom index and type
  (A) Strongly localized MO`s have populations of >=0.950 on one atom
  (B) Two center bond orbitals have populations of >=0.850 on two atoms
  (C) Other MO`s are considered to be `delocalized`

FOUND  -   2 strongly local MO`s
       -   2 two center bond MO`s
       -   0 significantly delocalized MO`s

Rather strongly localized orbitals:
MO   6:   1S  -   0.987817
MO   5:   0Li -   1.007669
Bond-like localized orbitals:
MO   8:   1S  -   0.869531  and   0Li -   0.130469
MO   7:   1S  -   0.869433  and   0Li -   0.130567
Localized MO's were stored in: /cluster/projects/nn14654k/ylvaos/basis_set_n_funcs/functionals/lda_x/LiS/inp/LiS_lda_x_pc4.loc

-------------------------   --------------------
FINAL SINGLE POINT ENERGY      -402.810755460552
-------------------------   --------------------



           ************************************************************
           *        Program running with 8 parallel MPI-processes     *
           *              working on a common directory               *
           ************************************************************

------------------------------------------------------------------------------
                              ORCA PROPERTY CALCULATIONS
------------------------------------------------------------------------------

GBWName                                 ... /cluster/projects/nn14654k/ylvaos/basis_set_n_funcs/functionals/lda_x/LiS/inp/LiS_lda_x_pc4.gbw
Number of atoms                         ...      2
Number of basis functions               ...    163
Max core memory                         ...   4096 MB

Electric properties:
Dipole moment                           ... YES
Quadrupole moment                       ... YES
Static polarizability (Dipole/Dipole)   ...  NO
Static polarizability (Dipole/Quad.)    ...  NO
Static polarizability (Quad./Quad.)     ...  NO
Static polarizability (Velocity)        ...  NO
Static hyperpolarizability              ...  NO

Atomic electric properties:
Dipole moment                           ...  NO
Quadrupole moment                       ...  NO
Static polarizability                   ...  NO

Choice of electric origin               ... Center of mass
Position of electric origin             ...     0.000000     0.000000     1.308198

General magnetic properties:
Magnetizability                         ...  NO

EPR properties:
g-Tensor (aka g-matrix)                 ...  NO
Zero-Field splitting spin-orbit         ...  NO
Zero-field splitting spin-spin          ...  NO
Hyperfine couplings                     ...  NO (   0 nuclei)
Quadrupole couplings                    ...  NO (   0 nuclei)
Contact density                         ...  NO (   0 nuclei)

NMR properties:
Chemical shifts                         ...  NO (   0 nuclei)
Spin-rotation constants                 ...  NO (   0 nuclei)
Spin-spin couplings                     ...  NO (   0 nuclei,    0 pairs)

Choice of magnetic origin               ... GIAO
Position of magnetic origin             ...     0.000000     0.000000     0.000000

Properties with geometric perturbations:
SCF Hessian                             ...  NO
IR spectrum                             ...  NO
VCD spectrum                            ...  NO
X-ray spectroscopy properties:
SCF XES/XAS/RIXS spectra                ...  NO

SCF SOC stabilization energy            ...  NO
Diagonal Born-Oppenheimer correction    ...  NO

-------------
DIPOLE MOMENT
-------------

Method             : SCF
Type of density    : Electron Density
Multiplicity       :   2
Irrep              :   0
Energy             :  -402.8107554605524001 Eh
Basis              : AO
                                X                 Y                 Z
Electronic contribution:     -0.000000001       0.000000001      -4.157348345
Nuclear contribution   :      0.000000000       0.000000000       1.549484202
                        -----------------------------------------
Total Dipole Moment    :     -0.000000001       0.000000001      -2.607864143
                        -----------------------------------------
Magnitude (a.u.)       :      2.607864143
Magnitude (Debye)      :      6.628663863



--------------------
Rotational spectrum 
--------------------
 
Rotational constants in cm-1:             0.000000             0.639339             0.639339 
Rotational constants in MHz :             0.000000         19166.891897         19166.891897 

Dipole components along the rotational axes: 
x,y,z [a.u.] :    -2.607864     0.000000    -0.000000 
x,y,z [Debye]:    -6.628664     0.000000    -0.000000 

 

Dipole moment calculation done in   0.0 sec 

-----------------
QUADRUPOLE MOMENT
-----------------

Method             : SCF
Type of density    : Electron Density
Multiplicity       :   2
Irrep              :   0
Energy             :  -402.8107554605524001 Eh
Basis              : AO

                XX              YY              ZZ              XY              XZ              YZ
  NUC        0.000000000     0.000000000    41.817245673     0.000000000     0.000000000     0.000000000
  EL       -13.790903769   -13.560823812   -45.784076980    -1.331679058     0.000000010     0.000000004
  TOT      -13.790903769   -13.560823812    -3.966831306    -1.331679058     0.000000010     0.000000004 (a.u.)
           -18.549237218   -18.239771807    -5.335523773    -1.791153876     0.000000013     0.000000006 (Buckingham)

diagonalized tensor:
           -15.012502600   -12.339224980    -3.966831306 (a.u.)
           -20.192329425   -16.596679600    -5.335523773 (Buckingham)
           -18.452455478    -7.665506001    26.117961479 (traceless form in Buckingham)

            -0.736907937    -0.675993116     0.000000001
            -0.675993116     0.736907937     0.000000000
             0.000000001     0.000000000     1.000000000
        
Isotropic quadrupole :   -10.439519629

Quadrupole moment calculation done in   0.0 sec (  0.0 sec for integrals)

Maximum memory used throughout the entire PROP-calculation: 10.5 MB

--------------------------------
SUGGESTED CITATIONS FOR THIS RUN
--------------------------------

Below you find a list of papers that are relevant to this ORCA run
We neither can nor want to force you to cite these papers, but we appreciate if you do
You receive ORCA, which is the product of decades of hard work by many enthusiastic individuals, for free
The only thing we kindly ask in return is that you cite our papers,
We deeply appreciate it, if you show your appreciation for ORCA by not just citing the generic ORCA reference.

Please note that relegating all ORCA citations to the supporting information does *not* help us.
SI sections are not indexed - citations you put there will not count into any citation statistics
But we need these citations in order to attract the funding resources that allow us to do what we are doing

Therefore, if you are a happy ORCA user, please consider citing a few of the papers listed below in the main body of your paper

In addition to the list printed below, the program has created the file /cluster/projects/nn14654k/ylvaos/basis_set_n_funcs/functionals/lda_x/LiS/inp/LiS_lda_x_pc4.bibtex that contains the list in bibtex format
You can import this file easily into all common literature databanks and citation aid programs

It goes without saying that in many instances, there are alternative algorithms to achieve similar
results as the ones you have gotten from ORCA. It is, of course, also the case that in some instances
ORCA just re-implements algorithms worked out by others. We are fully aware of that and we are also
fully appreciative of our colleagues work. Hence this citation list should not be read as indicating
that the listed papers, which are focused on our own work, are the only ones worth citing. It simply
meant to make it easier for users to cite ORCA specific papers. It is not a substitute for doing your
own literature research and citing the relevant literature in a scientifically appropriate manner.

List of essential papers. We consider these as the minimum necessary citations

  1. Neese, F.
     Software update: the ORCA program system, version 6.0
     WIRES Comput. Molec. Sci. 2025 15(1), e70019
     doi.org/10.1002/wcms.70019

List of papers to cite with high priority. The work reported in these papers was absolutely
necessary for this run to complete.
Our perspective: the developers of density functionals and basis sets usually get cited in chemistry papers
Good! But without the algorithms to do something with them, the functionals or basis sets would not do anything.
Hence, in our opinion, the algorithm design and method developments papers are equally worthy of getting cited

  1. Lehtola, S.; Steigemann, C.; Oliveira, M.; Marques, M.
     Recent developments in Libxc - A comprehensive library of functionals for density functional theory
     Software X 2018 7 , 
     doi.org/10.1016/j.softx.2017.11.002
  2. Neese, F.
     The SHARK Integral Generation and Digestion System
     J. Comp. Chem. 2022 44(3), 381
     doi.org/10.1002/jcc.26942

List of suggested additional citations. These are papers that are important in the 'surrounding' of 
of this run, or papers that preceded the highly important papers. If you like your results we are grateful for a citation.

  1. Neese, F.
     The ORCA program system
     WIRES Comput. Molec. Sci. 2012 2(1), 73-78
     doi.org/10.1002/wcms.81
  2. Neese, F.
     Software update: the ORCA program system, version 4.0
     WIRES Comput. Molec. Sci. 2018 8(1), 1-6
     doi.org/10.1002/wcms.1327
  3. Neese, F.; Wennmohs, F.; Becker, U.; Riplinger, C.
     The ORCA quantum chemistry program package
     J. Chem. Phys. 2020 152(22), 224108
     doi.org/10.1063/5.0004608
  4. Neese, F.
     Software update: The ORCA program system—Version 5.0
     WIRES Comput. Molec. Sci. 2022 12(1), e1606
     doi.org/10.1002/wcms.1606

List of optional additional citations

  1. Neese, F.
     Approximate second-order SCF convergence for spin unrestricted wavefunctions
     Chem. Phys. Lett. 2000 325(1-3), 93-98
     doi.org/10.1016/s0009-2614(00)00662-x

Timings for individual modules:

Sum of individual times          ...       15.949 sec (=   0.266 min)
Startup calculation              ...        0.533 sec (=   0.009 min)   3.3 %
SCF iterations                   ...       14.912 sec (=   0.249 min)  93.5 %
Property integrals               ...        0.248 sec (=   0.004 min)   1.6 %
Property calculations            ...        0.248 sec (=   0.004 min)   1.6 %
Orbital localization             ...        0.008 sec (=   0.000 min)   0.1 %
                             ****ORCA TERMINATED NORMALLY****
TOTAL RUN TIME: 0 days 0 hours 0 minutes 16 seconds 643 msec
