
                                 *****************
                                 * O   R   C   A *
                                 *****************

                                            #,                                       
                                            ###                                      
                                            ####                                     
                                            #####                                    
                                            ######                                   
                                           ########,                                 
                                     ,,################,,,,,                         
                               ,,#################################,,                 
                          ,,##########################################,,             
                       ,#########################################, ''#####,          
                    ,#############################################,,   '####,        
                  ,##################################################,,,,####,       
                ,###########''''           ''''###############################       
              ,#####''   ,,,,##########,,,,          '''####'''          '####       
            ,##' ,,,,###########################,,,                        '##       
           ' ,,###''''                  '''############,,,                           
         ,,##''                                '''############,,,,        ,,,,,,###''
      ,#''                                            '''#######################'''  
     '                                                          ''''####''''         
             ,#######,   #######,   ,#######,      ##                                
            ,#'     '#,  ##    ##  ,#'     '#,    #''#        ,####,    ,#,          
            ##       ##  ##   ,#'  ##            #'  '#       #'       ,# #          
            ##       ##  #######   ##           ,######,      #####,      #          
            '#,     ,#'  ##    ##  '#,     ,#' ,#      #,     #,   #      #          
             '#######'   ##     ##  '#######'  #'      '#     '####' #    #          



                #########################################################
                #                        -***-                          #
                #          Department of theory and spectroscopy        #
                #                                                       #
                #                      Frank Neese                      #
                #                                                       #
                #     Directorship, Architecture, Infrastructure        #
                #                    SHARK, DRIVERS                     #
                #        Core code/Algorithms in most modules           #
                #                                                       #
                #        Max Planck Institute fuer Kohlenforschung      #
                #                Kaiser Wilhelm Platz 1                 #
                #                 D-45470 Muelheim/Ruhr                 #
                #                      Germany                          #
                #                                                       #
                #                  All rights reserved                  #
                #                        -***-                          #
                #########################################################


                         Program Version 6.1.1  -  RELEASE   -
                                (GIT: $487d211c$)
                          ($2025-11-21 10:33:24 +0100$)


 With contributions from (in alphabetic order):
[Max-Planck-Institut fuer Kohlenforschung]                               
  Daniel Aravena         : Magnetic Suceptibility                        
  Michael Atanasov       : Ab Initio Ligand Field Theory (pilot matlab implementation)
  Alexander A. Auer      : GIAO ZORA, VPT2 properties, NMR spectrum      
  Ute Becker             : All parallelization in ORCA, NUMFREQ, NUMCALC 
  Giovanni Bistoni       : ED, misc. LED, open-shell LED, HFLD           
  Dmytro Bykov           : pre 5.0 version of the SCF Hessian            
  Marcos Casanova-Páez   : Triplet and SCS-CIS(D). UHF-(DLPNO)-IP/EA/STEOM-CCSD. UHF-CVS-IP/STEOM-CCSD   
  Vijay G. Chilkuri      : MRCI spin determinant printing, contributions to CSF-ICE 
  Pauline Colinet        : FMM embedding                                 
  Dipayan Datta          : RHF DLPNO-CCSD density                        
  Achintya Kumar Dutta   : EOM-CC, STEOM-CC                              
  Nicolas Foglia         : Exact transition moments, OPA infrastructure, MCD improvements    
  Dmitry Ganyushin       : Spin-Orbit,Spin-Spin,Magnetic field MRCI      
  Miquel Garcia-Rates    : C-PCM and meta-GGA Hessian, CCSD/C-PCM, Gaussian charge scheme 
  Tiago L. C. Gouveia    : GS-ROHF, GS-ROCIS                             
  Yang Guo               : DLPNO-NEVPT2, F12-NEVPT2, CIM, IAO-localization        
  Andreas Hansen         : Spin unrestricted coupled pair/coupled cluster methods 
  Ingolf Harden          : AUTO-CI MPn and infrastructure                
  Benjamin Helmich-Paris : MC-RPA, TRAH-(SCF,CASSCF), AVAS, COSX integrals, SCF dyn. polar., MC-PDFT, srDFT 
  Lee Huntington         : MR-EOM, pCC                                   
  Robert Izsak           : Overlap fitted RIJCOSX, COSX-SCS-MP3, EOM     
  Riya Kayal             : Wick's Theorem for AUTO-CI, AUTO-CI UHF-CCSDT 
  Emily Kempfer          : AUTO-CI RHF CISDT and CCSDT, approximate NEVPT4
  Christian Kollmar      : KDIIS, OOCD, Brueckner-CCSD(T), CCSD density, CASPT2, CASPT2-K, improved NEVPT2 
  Axel Koslowski         : Symmetry handling                             
  Simone Kossmann        : meta-GGA functionals, TD-DFT gradient, OOMP2, (MP2 Hessian; deprecated post 5.0) 
  Lucas Lang             : DCDCAS, Hyperfine gauge corrections, ICE-SOC+SSC
  Marvin Lechner         : AUTO-CI (C++ implementation), FIC-MRCC        
  Spencer Leger          : CASSCF response                               
  Dagmar Lenk            : GEPOL surface, SMD, ORCA-2-JSON               
  Dimitrios Liakos       : Extrapolation schemes; Compound Job, Property file
  Dimitrios Manganas     : Further ROCIS development; embedding schemes. LFT, Crystal Embedding 
  Dimitrios Pantazis     : SARC Basis sets                               
  Anastasios Papadopoulos: AUTO-CI, single reference methods and gradients 
  Taras Petrenko         : pre 6.0 DFT Hessian and TD-DFT gradient,  ECA, NRVS 
  Petra Pikulova         : Analytic Raman intensities                    
  Peter Pinski           : DLPNO-MP2, DLPNO-MP2 Gradient                 
  Shashank Vittal Rao    : ES-AILFT, MagRelax                            
  Christoph Reimann      : Effective Core Potentials                     
  Marius Retegan         : Local ZFS, SOC                                
  Christoph Riplinger    : Optimizer, TS searches, QM/MM, DLPNO-CCSD(T), (RO)-DLPNO pert. Triples 
  Michael Roemelt        : Original ROCIS implementation, recursive CI coupling coefficients
  Masaaki Saitow         : Open-shell DLPNO-CCSD energy and density      
  Barbara Sandhoefer     : DKH picture change effects                    
  Yorick L. A. Schmerwitz: GMF and freeze-and-release deltaSCF, NEB S-IDPP initial path                    
  Kantharuban Sivalingam : CASSCF convergence/infrastructure, NEVPT2, NEVPT3, NEVPT4(SD), FIC-MRCI and CEPA variants
  Bernardo de Souza      : ESD, SOC TD-DFT                               
  Georgi L. Stoychev     : AutoAux, RI-MP2 NMR, DLPNO-MP2 response, X2C  
  Van Anh Tran           : RI-MP2 g-tensors                              
  Willem Van den Heuvel  : Paramagnetic NMR                              
  Zikuan Wang            : NOTCH, Electric field optimization            
  Frank Wennmohs         : Technical directorship and infrastructure     
  Hang Xu                : AUTO-CI-Response properties                   
                                                                         
[FACCTs GmbH]                                                            
  Markus Bursch, Nicolas Foglia, Miquel Garcia-Rates, Ingolf Harden, Hagen Neugebauer, Anastasios Papadopoulos, 
  Christoph Riplinger, Bernardo de Souza, Georgi L. Stoychev                                                    
                                                                 
  APM, various basis sets, CI-OPT, improved COSX, DLPNO-Multilevel,           
  DOCKER, DRACO, updates on ESD, Fragmentator, GOAT, IRC, LR-CPCM, L-BFGS, MBIS, meta-GGA TD-DFT gradient, ML-optimized integration grids, 
  MM, NACMEs, nearIR, NEB, NEB-TS, NL-DFT gradient (VV10), 2- and 3-layer-ONIOM, interface openCOSMO-RS, QMMM,   
  Crystal-QMMM, RESP, rigid body optimization, SF, symmetry and pop. for TD-DFT, various functionals, SOLVATOR                                   
                                                                         
[Other institutions]                                                     
  V. Asgeirsson          : NEB                                           
  Christoph Bannwarth    : sTDA-DFT, sTD-DFT, PBEh-3c, B97-3c, D3        
  Giovanni Bistoni       : ETS/NOCV, ADLD/ADEX, COVALED                  
  Martin Brehm           : Molecular dynamics                            
  Ronald Cardenas        : ETS/NOCV                                      
  Martina Colucci        : COVALED                                       
  Sebastian Ehlert       : rSCAN, r2SCAN, r2SCAN-3c, D4, dhf basis sets  
  Marvin Friede          : D4 for Fr, Ra, Ac-Lr                          
  Lars Goerigk           : TD-DFT with DH, B97 family of functionals     
  Stefan Grimme          : VdW corrections, initial TS optimization, DFT functionals, gCP, sTDA/sTD-DF 
  Waldemar Hujo          : DFT-NL                                        
  H. Jonsson             : NEB                                           
  Holger Kruse           : gCP                                           
  Marcel Mueller         : wB97X-3c, vDZP basis set                      
  Hagen Neugebauer       : wr2SCAN, Native XTB                           
  Gianluca Regni         : ADLD/ADEX                                     
  Tobias Risthaus        : pre 6.0 range-separated hybrid DFT and stability analysis
  Lukas Wittmann         : regularized MP2, r2SCAN double-hybrids, wr2SCAN        
                                                                         
We gratefully acknowledge several colleagues who have allowed us to      
interface, adapt or use parts of their codes:                            
  Ed Valeev, F. Pavosevic, A. Kumar             : LibInt (2-el integral package), F12 methods 
  Garnet Chan, S. Sharma, J. Yang, R. Olivares  : DMRG                   
  Ulf Ekstrom                                   : XCFun DFT Library      
  Mihaly Kallay                                 : mrcc  (arbitrary order and MRCC methods)
  Frank Weinhold                                : gennbo (NPA and NBO analysis)           
  Simon Mueller                                 : openCOSMO-RS                            
  Christopher J. Cramer and Donald G. Truhlar   : smd solvation model                     
  S Lehtola, MJT Oliveira, MAL Marques          : LibXC Library                           
  Liviu Ungur et al                             : ANISO software                          


 Your calculation uses the libint2 library for the computation of 2-el integrals
 For citations please refer to: http://libint.valeyev.net

 Your ORCA version has been built with support for libXC version: 7.0.0
 For citations please refer to: https://libxc.gitlab.io

 This ORCA versions uses:
   CBLAS   interface :  Fast vector & matrix operations
   LAPACKE interface :  Fast linear algebra routines
   SCALAPACK package :  Parallel linear algebra routines
   Shared memory     :  Shared parallel matrices
   BLAS/LAPACK       :  OpenBLAS 0.3.29  USE64BITINT DYNAMIC_ARCH NO_AFFINITY Cooperlake SINGLE_THREADED
        Core in use  :  Cooperlake
   Copyright (c) 2011-2014, The OpenBLAS Project


  ***********************************
  * Starting time: Wed May 20 12:36:34 2026
  * Host name:     c1-46
  * Process ID:    3923409
  * Working dir.:  /cluster/projects/nn14654k/ylvaos/basis_set_n_funcs/functionals/lda_x/LiS/out
  ***********************************

Using LibXC functional ID   1 : Slater exchange
[ 1]  P. A. M. Dirac.,  Math. Proc. Cambridge Philos. Soc. 26, 376 (1930)
[ 2]  F. Bloch.,  Z. Phys. 57, 545 (1929)
Using LibXC functional ID   1 : Slater exchange
[ 1]  P. A. M. Dirac.,  Math. Proc. Cambridge Philos. Soc. 26, 376 (1930)
[ 2]  F. Bloch.,  Z. Phys. 57, 545 (1929)
Your calculation utilizes LibXC
by S. Lehtola, C. Steigemann, M. J. T. Oliveira & M. A. L. Marques
Please cite in your paper:
Lehtola, S.; Steigemann, C.; Oliveira, M.J.T.; Marques, M. A. L. Software X, 7, (2018), 1.
   

================================================================================

----- Orbital basis set information -----
Your calculation utilizes the basis: cc-pVQZ 
       H, B-Ne : Obtained from the ccRepo (grant-hill.group.shef.ac.uk/ccrepo) Feb. 2017
                 T. H. Dunning, Jr., J. Chem. Phys. 90, 1007 (1989)
            He : Obtained from the ccRepo (grant-hill.group.shef.ac.uk/ccrepo) Feb. 2017
                 D. E. Woon, T. H. Dunning, Jr., J. Chem. Phys. 100, 2975 (1994)
  Li-Be, Na-Mg : Obtained from the ccRepo (grant-hill.group.shef.ac.uk/ccrepo) Feb. 2017
                 B. P. Prascher, D. E. Woon, K. A. Peterson, T. H. Dunning, Jr., A. K. Wilson, Theor. Chem. Acc. 128, 69 (2011)
         Al-Ar : Obtained from the ccRepo (grant-hill.group.shef.ac.uk/ccrepo) Feb. 2017
                 D. E. Woon, T. H. Dunning, Jr., J. Chem. Phys. 98, 1358 (1993)
            Ca : Obtained from the Peterson Research Group Website (tyr0.chem.wsu.edu/~kipeters) Feb. 2017
                 J. Koput, K. A. Peterson, J. Phys. Chem. 106, 9595 (2002)
         Sc-Zn : Obtained from the ccRepo (grant-hill.group.shef.ac.uk/ccrepo) Feb. 2017
                 N. B. Balabanov, K. A. Peterson, J. Chem. Phys. 123, 064107 (2005)
                 N. B. Balabanov, K. A. Peterson, J. Chem. Phys. 125, 074110 (2006)
         Ga-Kr : Obtained from the ccRepo (grant-hill.group.shef.ac.uk/ccrepo) Feb. 2017
                 A. K. Wilson, D. E. Woon, K. A. Peterson, T. H. Dunning, Jr., J. Chem. Phys. 110, 7667 (1999)

================================================================================
                                        WARNINGS
                       Please study these warnings very carefully!
================================================================================


WARNING: your system is open-shell and RHF/RKS was chosen
  ===> : WILL SWITCH to UHF/UKS


================================================================================
                                       INPUT FILE
================================================================================
NAME = /cluster/projects/nn14654k/ylvaos/basis_set_n_funcs/functionals/lda_x/LiS/inp/LiS_lda_x_ccpvqz.inp
|  1> ! dft cc-pVQZ TightSCF
|  2> %pal nprocs 8 end
|  3> 
|  4> %loc
|  5>   LocMet NewBoys
|  6>   Occ true
|  7> end
|  8> 
|  9> %method
| 10>   exchange lda_x
| 11>   correlation None
| 12> end
| 13> 
| 14> %elprop
| 15>   Dipole true
| 16>   Quadrupole true
| 17> end
| 18> 
| 19> * xyz 0 2
| 20> Li    0.000000000000   0.000000000000  -1.074850000000
| 21> S    0.000000000000   0.000000000000   1.074850000000
| 22> *
| 23> 
| 24> 
| 25>                          ****END OF INPUT****
================================================================================

                       ****************************
                       * Single Point Calculation *
                       ****************************

---------------------------------
CARTESIAN COORDINATES (ANGSTROEM)
---------------------------------
  Li     0.000000    0.000000   -1.074850
  S      0.000000    0.000000    1.074850

----------------------------
CARTESIAN COORDINATES (A.U.)
----------------------------
  NO LB      ZA    FRAG     MASS         X           Y           Z
   0 Li    3.0000    0     6.941    0.000000    0.000000   -2.031172
   1 S    16.0000    0    32.060    0.000000    0.000000    2.031172

--------------------------------
INTERNAL COORDINATES (ANGSTROEM)
--------------------------------
 Li     0   0   0     0.000000000000     0.00000000     0.00000000
 S      1   0   0     2.149700000000     0.00000000     0.00000000

---------------------------
INTERNAL COORDINATES (A.U.)
---------------------------
 Li     0   0   0     0.000000000000     0.00000000     0.00000000
 S      1   0   0     4.062344270091     0.00000000     0.00000000

---------------------
BASIS SET INFORMATION
---------------------
There are 2 groups of distinct atoms

 Group   1 Type Li  : 21s6p3d2f1g contracted to 5s4p3d2f1g pattern {99111/3111/111/11/1}
 Group   2 Type S   : 42s19p3d2f1g contracted to 6s5p3d2f1g pattern {131313111/88111/111/11/1}

Atom   0Li   basis set group =>   1
Atom   1S    basis set group =>   2


           ************************************************************
           *        Program running with 8 parallel MPI-processes     *
           *              working on a common directory               *
           ************************************************************
------------------------------------------------------------------------------
                             ORCA STARTUP CALCULATIONS
------------------------------------------------------------------------------
------------------------------------------------------------------------------
                   ___                                                        
                  /   \      - P O W E R E D   B Y -                         
                 /     \                                                     
                 |  |  |   _    _      __       _____    __    __             
                 |  |  |  | |  | |    /  \     |  _  \  |  |  /  |          
                  \  \/   | |  | |   /    \    | | | |  |  | /  /          
                 / \  \   | |__| |  /  /\  \   | |_| |  |  |/  /          
                |  |  |   |  __  | /  /__\  \  |    /   |      \           
                |  |  |   | |  | | |   __   |  |    \   |  |\   \          
                \     /   | |  | | |  |  |  |  | |\  \  |  | \   \       
                 \___/    |_|  |_| |__|  |__|  |_| \__\ |__|  \__/        
                                                                              
                      - O R C A' S   B I G   F R I E N D -                    
                                      &                                       
                       - I N T E G R A L  F E E D E R -                       
                                                                              
 v1 FN, 2020, v2 2021, v3 2022-2024                                           
------------------------------------------------------------------------------


----------------------
SHARK INTEGRAL PACKAGE
----------------------

Number of atoms                             ...      2
Number of basis functions                   ...    149
Number of shells                            ...     55
Maximum angular momentum                    ...      4
Integral batch strategy                     ... SHARK/LIBINT Hybrid
RI-J (if used) integral strategy            ... SPLIT-RIJ (Revised 2003 algorithm where possible)
Printlevel                                  ...      1
Contraction scheme used                     ... PARTIAL GENERAL contraction
Prescreening option                         ... SCHWARTZ
   Thresh                                   ... 2.500e-11
   Tcut                                     ... 2.500e-12
   Tpresel                                  ... 2.500e-12 
Coulomb Range Separation                    ... NOT USED
Exchange Range Separation                   ... NOT USED
Multipole approximations                    ... NOT USED
Finite Nucleus Model                        ... NOT USED
CABS basis                                  ... NOT available
Auxiliary Coulomb fitting basis             ... NOT available
Auxiliary J/K fitting basis                 ... NOT available
Auxiliary Correlation fitting basis         ... NOT available
Auxiliary 'external' fitting basis          ... NOT available

Checking pre-screening integrals            ... done (  0.0 sec) Dimension = 55
Save PGC pre-screening integrals            ... done (  0.0 sec) Dimension = 55
Calculate PGC overlap integrals             ... done (  0.0 sec) Dimension = 32
Calculating pre-screening integrals (ORCA)  ... done (  0.1 sec) Dimension = 32
Shell pair information
Shell pair cut-off parameter TPreSel        ...   2.5e-12
Total number of shell pairs                 ...      1540
Shell pairs after pre-screening             ...      1398
Total number of primitive shell pairs       ...      1656
Primitive shell pairs kept                  ...      1495
          la=0 lb=0:    317 shell pairs
          la=1 lb=0:    371 shell pairs
          la=1 lb=1:    120 shell pairs
          la=2 lb=0:    168 shell pairs
          la=2 lb=1:     90 shell pairs
          la=2 lb=2:     21 shell pairs
          la=3 lb=0:    110 shell pairs
          la=3 lb=1:     60 shell pairs
          la=3 lb=2:     24 shell pairs
          la=3 lb=3:     10 shell pairs
          la=4 lb=0:     54 shell pairs
          la=4 lb=1:     30 shell pairs
          la=4 lb=2:     12 shell pairs
          la=4 lb=3:      8 shell pairs
          la=4 lb=4:      3 shell pairs

Checking whether 4 symmetric matrices of dimension 149 fit in memory
:Max Core in MB      =   4096.00
 MB in use           =      4.72
 MB left             =   4091.28
 MB needed           =      0.34
 Data fit in memory  = YES
Calculating Nuclear repulsion               ... done (  0.0 sec) ENN=     11.815837557985 Eh

Diagonalization of the overlap matrix:
Smallest eigenvalue                        ... 4.948e-04
Time for diagonalization                   ...    0.001 sec
Threshold for overlap eigenvalues          ... 1.000e-07
Number of eigenvalues below threshold      ... 0
Time for construction of square roots      ...    0.002 sec
Total time needed                          ...    0.004 sec

-------------------
DFT GRID GENERATION
-------------------

General Integration Accuracy     IntAcc      ... 4.388
Radial Grid Type                 RadialGrid  ... OptM3 with GC (2021)
Angular Grid (max. ang.)         AngularGrid ... 4 (Lebedev-302)
Angular grid pruning method      GridPruning ... 4 (adaptive)
Weight generation scheme         WeightScheme... mBecke (2022)
Basis function cutoff            BFCut       ... 1.0000e-11
Integration weight cutoff        WCut        ... 1.0000e-14
Partially contracted basis set               ... off
Rotationally invariant grid construction     ... off
Angular grids for H and He will be reduced by one unit

Total number of grid points                  ...    13486
Total number of batches                      ...      212
Average number of points per batch           ...       63
Average number of grid points per atom       ...     6743

---------------------
SHARK GRID GENERATION
---------------------

General Integration Accuracy     IntAcc      ... 4.388
Radial Grid Type                 RadialGrid  ... OptM3 with GC (2021)
Angular Grid (max. ang.)         AngularGrid ... 4 (Lebedev-302)
Angular grid pruning method      GridPruning ... 4 (adaptive)
Weight generation scheme         WeightScheme... mBecke (2022)
Basis function cutoff            BFCut       ... 1.0000e-11
Integration weight cutoff        WCut        ... 1.0000e-14
Partially contracted basis set               ... off
Rotationally invariant grid construction     ... off
Angular grids for H and He will be reduced by one unit
Core-polarized basis detected: some atoms will have their core
                               angular grid increased.
Steep s-basis detected: some atoms will have their radial
                        grid points doubled.

Total number of grid points                  ...    31699
Total number of batches                      ...      497
Average number of points per batch           ...       63
Average number of grid points per atom       ...    15850
Grids setup in   1.1 sec
Initializing property integral containers    ... done (  0.0 sec)

SHARK setup successfully completed in   1.3 seconds

Maximum memory used throughout the entire STARTUP-calculation: 58.2 MB


           ************************************************************
           *        Program running with 8 parallel MPI-processes     *
           *              working on a common directory               *
           ************************************************************
-------------------------------------------------------------------------------
                                 ORCA GUESS
                   Start orbitals & Density for SCF / CASSCF
-------------------------------------------------------------------------------

------------
SCF SETTINGS
------------
Hamiltonian:
 Density Functional     Method          .... DFT(GTOs)
  Functional kind                       .... Exchange
  Functional name                       .... Slater exchange
  Functional family                     .... LDA
  Functional refs                              
    [ 0] P. A. M. Dirac.,  Math. Proc. Cambridge Philos. Soc. 26, 376 (1930), doi: 10.1017/S0305004100016108
    [ 1] F. Bloch.,  Z. Phys. 57, 545 (1929), doi: 10.1007/BF01340281
  Functional external parameters        .... 0
 Correlation Functional Correlation     .... No Correlation
 Gradients option       PostSCFGGA      .... off


General Settings:
 Integral files         IntName         .... /cluster/projects/nn14654k/ylvaos/basis_set_n_funcs/functionals/lda_x/LiS/inp/LiS_lda_x_ccpvqz
 Hartree-Fock type      HFTyp           .... UHF
 Total Charge           Charge          ....    0
 Multiplicity           Mult            ....    2
 Number of Electrons    NEL             ....   19
 Basis Dimension        Dim             ....  114
 Nuclear Repulsion      ENuc            ....     11.8158375580 Eh

Convergence Acceleration:
 AO-DIIS                CNVDIIS         .... on
   Start iteration      DIISMaxIt       ....    12
   Startup error        DIISStart       ....  0.200000
   # of expansion vecs  DIISMaxEq       ....     5
   Bias factor          DIISBfac        ....   1.050
   Max. coefficient     DIISMaxC        ....  10.000
 MO-DIIS                CNVKDIIS        .... off
 Trust-Rad. Augm. Hess. CNVTRAH         .... auto
   Auto Start mean grad. ratio tolernc. ....  1.125000
   Auto Start start iteration           ....    50
   Auto Start num. interpolation iter.  ....    10
   Max. Number of Micro iterations      ....    24
   Max. Number of Macro iterations      .... Maxiter - #DIIS iter
   Number of Davidson start vectors     ....     2
   Converg. threshold    (grad. norm)   ....   1.000e-05
   Grad. Scal. Fac. for Micro threshold ....   0.100
   Minimum threshold for Micro iter.    ....   1.000e-02
   NR start threshold (gradient norm)   ....   1.000e-04
   Initial trust radius                 ....   0.400
   Minimum AH scaling param. (alpha)    ....   1.000
   Maximum AH scaling param. (alpha)    .... 1000.000
   Quad. conv. algorithm                .... NR
   White noise on init. David. guess    .... on
   Maximum white noise                  ....   0.010
   Pseudo random numbers                .... off
   Inactive MOs                         .... canonical
   Orbital update algorithm             .... Taylor
   Preconditioner                       .... Diag
   Full preconditioner red. dimension   ....   250
 SOSCF                 CNVSOSCF           .... on
   Start iteration     SOSCFMaxIt         ....   150
   Startup grad/error  SOSCFStart         ....  0.003300
   Hessian update      SOSCFHessUp        .... L-BFGS
   Autom. constraints  SOSCFAutoConstrain .... off
 Level Shifting         CNVShift        .... on
   Level shift para.    LevelShift      ....    0.2500
   Turn off err/grad.   ShiftErr        ....    0.0010
 Zerner damping         CNVZerner       .... off
 Static damping         CNVDamp         .... on
   Fraction old density DampFac         ....    0.7000
   Max. Damping (<1)    DampMax         ....    0.9800
   Min. Damping (>=0)   DampMin         ....    0.0000
   Turn off err/grad.   DampErr         ....    0.1000

SCF Procedure:
 Maximum # iterations   MaxIter         ....   125
 SCF integral mode      SCFMode         .... Direct
   Integral package                     .... SHARK and LIBINT hybrid scheme
 Reset frequency        DirectResetFreq ....    20
 Integral Threshold     Thresh          ....  2.500e-11 Eh
 Primitive CutOff       TCut            ....  2.500e-12 Eh

Convergence Tolerance:
 Convergence Check Mode ConvCheckMode   .... Total+1el-Energy
 Convergence forced     ConvForced      .... 0
 Energy Change          TolE            ....  1.000e-08 Eh
 1-El. energy change                    ....  1.000e-05 Eh
 Orbital Gradient       TolG            ....  1.000e-05
 Orbital Rotation angle TolX            ....  1.000e-05
 DIIS Error             TolErr          ....  5.000e-07

------------------------------
INITIAL GUESS: MODEL POTENTIAL
------------------------------
Loading Hartree-Fock densities                     ... done
Calculating cut-offs                               ... done
Initializing the effective Hamiltonian             ... done
Setting up the integral package (SHARK)            ... done
Starting the Coulomb interaction                   ... done (   0.0 sec)
Making the grid                                    ... done (   0.0 sec)
Mapping shells                                     ... done
Starting the XC term evaluation                    ... done (   0.0 sec)
  promolecular density results
     # of electrons  =     18.999659774
     EX              =    -24.527409835
     EC              =      0.000000000
     EX+EC           =    -24.527409835
Transforming the Hamiltonian                       ... done (   0.0 sec)
Diagonalizing the Hamiltonian                      ... done (   0.0 sec)
Back transforming the eigenvectors                 ... done (   0.0 sec)
Now organizing SCF variables                       ... done
                      ------------------
                      INITIAL GUESS DONE (   0.0 sec)
                      ------------------
             **** ENERGY FILE WAS UPDATED (/cluster/projects/nn14654k/ylvaos/basis_set_n_funcs/functionals/lda_x/LiS/inp/LiS_lda_x_ccpvqz.en.tmp) ****
Finished Guess after   0.1 sec
Maximum memory used throughout the entire GUESS-calculation: 10.6 MB


           ************************************************************
           *        Program running with 8 parallel MPI-processes     *
           *              working on a common directory               *
           ************************************************************

-------------------------------------------------------------------------------------------
                                      ORCA LEAN-SCF
                              memory conserving SCF solver
-------------------------------------------------------------------------------------------

----------------------------------------D-I-I-S--------------------------------------------
Iteration    Energy (Eh)           Delta-E    RMSDP     MaxDP     DIISErr   Damp  Time(sec)
-------------------------------------------------------------------------------------------
               ***  Starting incremental Fock matrix formation  ***
    1    -402.7749267337615606     0.00e+00  2.00e-03  2.15e-02  5.18e-02  0.700   0.2
Warning: op=0 Small HOMO/LUMO gap (   0.057) - skipping pre-diagonalization
         Will do a full diagonalization
    2    -402.7876263973219011    -1.27e-02  1.80e-03  1.62e-02  2.98e-02  0.700   0.2
                               ***Turning on AO-DIIS***
    3    -402.7937929933254964    -6.17e-03  9.74e-04  8.44e-03  1.49e-02  0.700   0.2
    4    -402.7969967855535174    -3.20e-03  1.63e-03  1.41e-02  9.97e-03  0.000   0.2
                              *** Initializing SOSCF ***
---------------------------------------S-O-S-C-F--------------------------------------
Iteration    Energy (Eh)           Delta-E    RMSDP     MaxDP     MaxGrad    Time(sec)
--------------------------------------------------------------------------------------
    5    -402.8039527425150368    -6.96e-03  3.98e-04  3.17e-03  2.82e-03     0.2
               *** Restarting incremental Fock matrix formation ***
    6    -402.8040651283998272    -1.12e-04  2.60e-04  2.15e-03  1.60e-03     0.2
    7    -402.8040831349032374    -1.80e-05  1.34e-04  1.17e-03  1.42e-03     0.1
    8    -402.8041037106488602    -2.06e-05  3.45e-05  2.44e-04  1.17e-04     0.2
    9    -402.8041043853173733    -6.75e-07  2.16e-05  1.44e-04  7.48e-05     0.1
   10    -402.8041045966615457    -2.11e-07  8.84e-06  8.84e-05  4.07e-05     0.1
   11    -402.8041046291859288    -3.25e-08  4.69e-06  3.61e-05  1.41e-05     0.3
   12    -402.8041046342182199    -5.03e-09  1.24e-06  9.92e-06  4.56e-06     0.2
                 **** Energy Check signals convergence ****

               *****************************************************
               *                     SUCCESS                       *
               *           SCF CONVERGED AFTER  12 CYCLES          *
               *****************************************************

             **** ENERGY FILE WAS UPDATED (/cluster/projects/nn14654k/ylvaos/basis_set_n_funcs/functionals/lda_x/LiS/inp/LiS_lda_x_ccpvqz.en.tmp) ****

----------------
TOTAL SCF ENERGY
----------------

Total Energy       :       -402.80410463457849 Eh          -10960.85693 eV

Components:
Nuclear Repulsion  :         11.81583755798484 Eh             321.52529 eV
Electronic Energy  :       -414.61994219256331 Eh          -11282.38221 eV
One Electron Energy:       -583.70010575687661 Eh          -15883.28737 eV
Two Electron Energy:        169.08016356431330 Eh            4600.90516 eV

Virial components:
Potential Energy   :       -806.17015700579668 Eh          -21937.00523 eV
Kinetic Energy     :        403.36605237121819 Eh           10976.14830 eV
Virial Ratio       :          1.99860685416302

DFT components:
N(Alpha)           :        9.999986617785 electrons
N(Beta)            :        8.999980724667 electrons
N(Total)           :       18.999967342452 electrons
E(X)               :      -24.539439200213 Eh       
E(C)               :        0.000000000000 Eh       
E(XC)              :      -24.539439200213 Eh       

---------------
SCF CONVERGENCE
---------------

  Last Energy change         ...    5.0323e-09  Tolerance :   1.0000e-08
  Last MAX-Density change    ...    9.9162e-06  Tolerance :   1.0000e-07
  Last RMS-Density change    ...    1.2404e-06  Tolerance :   5.0000e-09
  Last DIIS Error            ...    2.8216e-03  Tolerance :   5.0000e-07
  Last Orbital Gradient      ...    4.5617e-06  Tolerance :   1.0000e-05
  Last Orbital Rotation      ...    2.9600e-05  Tolerance :   1.0000e-05


----------------------
UHF SPIN CONTAMINATION
----------------------

Warning: in a DFT calculation there is little theoretical justification to 
         calculate <S**2> as in Hartree-Fock theory. We will do it anyways
         but you should keep in mind that the values have only limited relevance

Expectation value of <S**2>     :     0.755433
Ideal value S*(S+1) for S=0.5   :     0.750000
Deviation                       :     0.005433

----------------
ORBITAL ENERGIES
----------------
                 SPIN UP ORBITALS
  NO   OCC          E(Eh)            E(eV) 
   0   1.0000     -87.620565     -2384.2768 
   1   1.0000      -7.535152      -205.0419 
   2   1.0000      -5.599669      -152.3747 
   3   1.0000      -5.583940      -151.9467 
   4   1.0000      -5.583593      -151.9373 
   5   1.0000      -1.797377       -48.9091 
   6   1.0000      -0.519500       -14.1363 
   7   1.0000      -0.187673        -5.1068 
   8   1.0000      -0.166544        -4.5319 
   9   1.0000      -0.145466        -3.9583 
  10   0.0000      -0.048288        -1.3140 
  11   0.0000       0.002291         0.0623 
  12   0.0000       0.006917         0.1882 
  13   0.0000       0.021277         0.5790 
  14   0.0000       0.043780         1.1913 
  15   0.0000       0.052330         1.4240 
  16   0.0000       0.056185         1.5289 
  17   0.0000       0.106324         2.8932 
  18   0.0000       0.120146         3.2693 
  19   0.0000       0.120792         3.2869 
  20   0.0000       0.151126         4.1124 

                 SPIN DOWN ORBITALS
  NO   OCC          E(Eh)            E(eV) 
   0   1.0000     -87.615847     -2384.1484 
   1   1.0000      -7.528920      -204.8723 
   2   1.0000      -5.586376      -152.0130 
   3   1.0000      -5.579475      -151.8252 
   4   1.0000      -5.578995      -151.8122 
   5   1.0000      -1.797571       -48.9144 
   6   1.0000      -0.478203       -13.0126 
   7   1.0000      -0.147952        -4.0260 
   8   1.0000      -0.127334        -3.4649 
   9   0.0000      -0.117864        -3.2072 
  10   0.0000      -0.048543        -1.3209 
  11   0.0000       0.005599         0.1524 
  12   0.0000       0.009696         0.2638 
  13   0.0000       0.024166         0.6576 
  14   0.0000       0.044134         1.2010 
  15   0.0000       0.054762         1.4902 
  16   0.0000       0.058176         1.5831 
  17   0.0000       0.110350         3.0028 
  18   0.0000       0.124489         3.3875 
  19   0.0000       0.126391         3.4393 
*Only the first 10 virtual orbitals were printed.

                    ********************************
                    * MULLIKEN POPULATION ANALYSIS *
                    ********************************

--------------------------------------------
MULLIKEN ATOMIC CHARGES AND SPIN POPULATIONS
--------------------------------------------
   0 Li:    0.323947    0.020018
   1 S :   -0.323947    0.979982
Sum of atomic charges         :   -0.0000000
Sum of atomic spin populations:    1.0000000

-----------------------------------------------------
MULLIKEN REDUCED ORBITAL CHARGES AND SPIN POPULATIONS
-----------------------------------------------------
CHARGE
  0 Lis       :     2.226304  s :     2.226304
      pz      :     0.164378  p :     0.351655
      px      :     0.091851
      py      :     0.095427
      dz2     :     0.036495  d :     0.084490
      dxz     :     0.023670
      dyz     :     0.024265
      dx2y2   :     0.000000
      dxy     :     0.000060
      f0      :     0.006875  f :     0.012206
      f+1     :     0.002641
      f-1     :     0.002625
      f+2     :     0.000000
      f-2     :     0.000033
      f+3     :     0.000017
      f-3     :     0.000016
      g0      :     0.001091  g :     0.001398
      g+1     :     0.000146
      g-1     :     0.000140
      g+2     :     0.000000
      g-2     :     0.000008
      g+3     :     0.000007
      g-3     :     0.000007
      g+4     :     0.000000
      g-4     :     0.000000

  1 S s       :     5.865262  s :     5.865262
      pz      :     3.700646  p :    10.453863
      px      :     3.361632
      py      :     3.391586
      dz2     :    -0.002327  d :     0.003935
      dxz     :     0.002574
      dyz     :     0.002639
      dx2y2   :     0.000001
      dxy     :     0.001048
      f0      :    -0.000062  f :     0.000855
      f+1     :     0.000110
      f-1     :     0.000121
      f+2     :     0.000000
      f-2     :     0.000173
      f+3     :     0.000257
      f-3     :     0.000255
      g0      :     0.000014  g :     0.000031
      g+1     :     0.000007
      g-1     :     0.000008
      g+2     :     0.000000
      g-2     :     0.000001
      g+3     :     0.000000
      g-3     :     0.000000
      g+4     :     0.000001
      g-4     :     0.000000


SPIN
  0 Lis       :    -0.013223  s :    -0.013223
      pz      :    -0.004265  p :     0.015882
      px      :     0.011142
      py      :     0.009005
      dz2     :    -0.001450  d :     0.013085
      dxz     :     0.007526
      dyz     :     0.006975
      dx2y2   :     0.000000
      dxy     :     0.000034
      f0      :     0.000252  f :     0.003964
      f+1     :     0.001865
      f-1     :     0.001790
      f+2     :     0.000000
      f-2     :     0.000029
      f+3     :     0.000014
      f-3     :     0.000014
      g0      :    -0.000079  g :     0.000310
      g+1     :     0.000187
      g-1     :     0.000180
      g+2     :     0.000000
      g-2     :     0.000008
      g+3     :     0.000007
      g-3     :     0.000007
      g+4     :    -0.000000
      g-4     :    -0.000000

  1 S s       :     0.011027  s :     0.011027
      pz      :     0.006473  p :     0.965923
      px      :     0.495397
      py      :     0.464053
      dz2     :     0.000150  d :     0.002652
      dxz     :     0.000802
      dyz     :     0.000742
      dx2y2   :     0.000001
      dxy     :     0.000957
      f0      :    -0.000078  f :     0.000381
      f+1     :    -0.000101
      f-1     :    -0.000105
      f+2     :     0.000000
      f-2     :     0.000165
      f+3     :     0.000251
      f-3     :     0.000250
      g0      :    -0.000002  g :    -0.000001
      g+1     :     0.000000
      g-1     :     0.000000
      g+2     :     0.000000
      g-2     :     0.000000
      g+3     :     0.000000
      g-3     :     0.000000
      g+4     :    -0.000000
      g-4     :    -0.000000



                     *******************************
                     * LOEWDIN POPULATION ANALYSIS *
                     *******************************

-------------------------------------------
LOEWDIN ATOMIC CHARGES AND SPIN POPULATIONS
-------------------------------------------
   0 Li:   -0.737116    0.207159
   1 S :    0.737116    0.792841

----------------------------------------------------
LOEWDIN REDUCED ORBITAL CHARGES AND SPIN POPULATIONS
----------------------------------------------------
CHARGE
  0 Lis       :     2.251853  s :     2.251853
      pz      :     0.367311  p :     0.673237
      px      :     0.150402
      py      :     0.155524
      dz2     :     0.216388  d :     0.450933
      dxz     :     0.115906
      dyz     :     0.118572
      dx2y2   :     0.000000
      dxy     :     0.000067
      f0      :     0.107959  f :     0.272602
      f+1     :     0.081469
      f-1     :     0.083080
      f+2     :     0.000000
      f-2     :     0.000059
      f+3     :     0.000018
      f-3     :     0.000017
      g0      :     0.026703  g :     0.088491
      g+1     :     0.030586
      g-1     :     0.031153
      g+2     :     0.000000
      g-2     :     0.000031
      g+3     :     0.000009
      g-3     :     0.000009
      g+4     :     0.000000
      g-4     :     0.000000

  1 S s       :     5.358975  s :     5.358975
      pz      :     3.652109  p :     9.882926
      px      :     3.103301
      py      :     3.127515
      dz2     :     0.012363  d :     0.014783
      dxz     :     0.000707
      dyz     :     0.000713
      dx2y2   :     0.000001
      dxy     :     0.000998
      f0      :     0.004796  f :     0.005966
      f+1     :     0.000253
      f-1     :     0.000244
      f+2     :     0.000000
      f-2     :     0.000168
      f+3     :     0.000254
      f-3     :     0.000252
      g0      :     0.000218  g :     0.000234
      g+1     :     0.000007
      g-1     :     0.000007
      g+2     :     0.000000
      g-2     :     0.000001
      g+3     :     0.000000
      g-3     :     0.000000
      g+4     :     0.000001
      g-4     :     0.000000


SPIN
  0 Lis       :    -0.012767  s :    -0.012767
      pz      :    -0.001958  p :     0.053480
      px      :     0.029438
      py      :     0.026001
      dz2     :     0.000912  d :     0.080047
      dxz     :     0.040865
      dyz     :     0.038228
      dx2y2   :     0.000000
      dxy     :     0.000041
      f0      :     0.001197  f :     0.062862
      f+1     :     0.031732
      f-1     :     0.029852
      f+2     :     0.000000
      f-2     :     0.000052
      f+3     :     0.000015
      f-3     :     0.000015
      g0      :     0.000155  g :     0.023536
      g+1     :     0.012018
      g-1     :     0.011317
      g+2     :     0.000000
      g-2     :     0.000029
      g+3     :     0.000009
      g-3     :     0.000009
      g+4     :    -0.000000
      g-4     :    -0.000000

  1 S s       :     0.003150  s :     0.003150
      pz      :     0.007338  p :     0.786075
      px      :     0.402117
      py      :     0.376621
      dz2     :     0.000649  d :     0.002345
      dxz     :     0.000399
      dyz     :     0.000384
      dx2y2   :     0.000001
      dxy     :     0.000912
      f0      :     0.000130  f :     0.001260
      f+1     :     0.000243
      f-1     :     0.000233
      f+2     :     0.000000
      f-2     :     0.000160
      f+3     :     0.000248
      f-3     :     0.000247
      g0      :     0.000000  g :     0.000011
      g+1     :     0.000005
      g-1     :     0.000005
      g+2     :     0.000000
      g-2     :     0.000000
      g+3     :     0.000000
      g-3     :     0.000000
      g+4     :    -0.000000
      g-4     :    -0.000000



                      *****************************
                      * MAYER POPULATION ANALYSIS *
                      *****************************

  NA   - Mulliken gross atomic population
  ZA   - Total nuclear charge
  QA   - Mulliken gross atomic charge
  VA   - Mayer's total valence
  BVA  - Mayer's bonded valence
  FA   - Mayer's free valence

  ATOM       NA         ZA         QA         VA         BVA        FA
  0 Li     2.6761     3.0000     0.3239     1.0826     1.0781     0.0045
  1 S     16.3239    16.0000    -0.3239     1.9687     1.0781     0.8906

  Mayer bond orders larger than 0.100000
B(  0-Li,  1-S ) :   1.0781 

-------
TIMINGS
-------

Total SCF time: 0 days 0 hours 0 min 2 sec 

Total time                  ....       2.275 sec
Sum of individual times     ....       2.133 sec  ( 93.8%)

SCF preparation             ....       0.063 sec  (  2.8%)
Fock matrix formation       ....       1.698 sec  ( 74.7%)
  Startup                   ....       0.013 sec  (  0.8% of F)
  Coulomb formation         ....       1.126 sec  ( 66.3% of F)
  XC integration            ....       0.297 sec  ( 17.5% of F)
    XC Preparation          ....       0.000 sec  (  0.0% of XC)
    Basis function eval.    ....       0.016 sec  (  5.4% of XC)
    Density eval.           ....       0.023 sec  (  7.8% of XC)
    XC-Functional eval.     ....       0.004 sec  (  1.4% of XC)
    XC-Potential eval.      ....       0.046 sec  ( 15.6% of XC)
Diagonalization             ....       0.000 sec  (  0.0%)
Density matrix formation    ....       0.083 sec  (  3.6%)
Total Energy calculation    ....       0.019 sec  (  0.8%)
Population analysis         ....       0.011 sec  (  0.5%)
Orbital Transformation      ....       0.020 sec  (  0.9%)
Orbital Orthonormalization  ....       0.000 sec  (  0.0%)
DIIS solution               ....       0.118 sec  (  5.2%)
SOSCF solution              ....       0.120 sec  (  5.3%)
Finished LeanSCF after   2.3 sec

Maximum memory used throughout the entire LEANSCF-calculation: 20.6 MB


           ************************************************************
           *        Program running with 8 parallel MPI-processes     *
           *              working on a common directory               *
           ************************************************************

------------------------------------------------------------------------------
                         ORCA PROPERTY INTEGRAL CALCULATIONS
------------------------------------------------------------------------------

GBWName                                   ... /cluster/projects/nn14654k/ylvaos/basis_set_n_funcs/functionals/lda_x/LiS/inp/LiS_lda_x_ccpvqz.gbw
Number of atoms                           ...      2
Number of basis functions                 ...    149
Max core memory                           ...   4096 MB

Dipole integrals                          ... YES
Quadrupole integrals                      ... YES
Linear momentum integrals                 ...  NO
Angular momentum integrals                ...  NO
Higher moments length integrals           ...  NO
Higher moments velocity integrals         ...  NO
Kinetic energy integrals                  ...  NO
GIAO right hand sides                     ...  NO
GIAO dipole derivative integrals          ...  NO
SOC integrals                             ...  NO
EPR diamagnetic integrals (GIAO)          ...  NO
EPR gauge integrals                       ...  NO
Field gradient integrals                  ...  NO (   0 nuclei)
Spin-dipole/Fermi contact integrals       ...  NO (   0 nuclei)
Contact density integrals                 ...  NO (   0 nuclei)
Nucleus-orbit integrals                   ...  NO (   0 nuclei)
Geometric perturbations                   ...  NO (   2 nuclei)

Choice of electric origin   ... Center of mass
Position of electric origin ... (  0.0000,  0.0000,  1.3082) 
Choice of magnetic origin   ... GIAO
Position of magnetic origin ... (  0.0000,  0.0000,  0.0000) 

Calculating integrals                     ... Electric Dipole (Length)     done (  0.0 sec)
Calculating integrals                     ... Electric Quadrupole (Length) done (  0.0 sec)

Property integrals calculated in   0.0 sec

Maximum memory used throughout the entire PROPINT-calculation: 11.2 MB
------------------------------------------------------------------------------
                           ORCA ORBITAL LOCALIZATION
------------------------------------------------------------------------------

Input orbitals are from                  ... /cluster/projects/nn14654k/ylvaos/basis_set_n_funcs/functionals/lda_x/LiS/inp/LiS_lda_x_ccpvqz.gbw
Output orbitals are to                   ... /cluster/projects/nn14654k/ylvaos/basis_set_n_funcs/functionals/lda_x/LiS/inp/LiS_lda_x_ccpvqz.loc
Max. number of iterations                ... 128
Localizations seeded randomly            ... on
Convergence tolerance                    ... 1.000e-06
Threshold for strong local MOs           ... 9.500e-01
Threshold for bond MOs                   ... 8.500e-01
Operator                                 ... 0
Orbital range for localization           ... 5 to 9
Localization criterion                   ... NEW-BOYS
Doing the dipole integrals               ... o.k.
Initial value of the localization sum :    12.575663
ITERATION   0 : L=   15.5115261460 DL=  2.94e+00 (AVERGE_DL)=    0.5418360580 
ITERATION   1 : L=   15.7041546261 DL=  1.93e-01 (AVERGE_DL)=    0.1387906626 
ITERATION   2 : L=   15.7499316280 DL=  4.58e-02 (AVERGE_DL)=    0.0676587037 
ITERATION   3 : L=   15.7991118757 DL=  4.92e-02 (AVERGE_DL)=    0.0701286301 
ITERATION   4 : L=   15.8292817782 DL=  3.02e-02 (AVERGE_DL)=    0.0549271358 
ITERATION   5 : L=   15.8495525029 DL=  2.03e-02 (AVERGE_DL)=    0.0450230216 
ITERATION   6 : L=   15.8613949354 DL=  1.18e-02 (AVERGE_DL)=    0.0344128355 
ITERATION   7 : L=   15.8682686373 DL=  6.87e-03 (AVERGE_DL)=    0.0262177457 
ITERATION   8 : L=   15.8721747482 DL=  3.91e-03 (AVERGE_DL)=    0.0197638834 
ITERATION   9 : L=   15.8743972522 DL=  2.22e-03 (AVERGE_DL)=    0.0149080651 
ITERATION  10 : L=   15.8756645615 DL=  1.27e-03 (AVERGE_DL)=    0.0112574832 
ITERATION  11 : L=   15.8763914548 DL=  7.27e-04 (AVERGE_DL)=    0.0085258039 
ITERATION  12 : L=   15.8768114227 DL=  4.20e-04 (AVERGE_DL)=    0.0064804927 
ITERATION  13 : L=   15.8770564923 DL=  2.45e-04 (AVERGE_DL)=    0.0049504509 
ITERATION  14 : L=   15.8772015929 DL=  1.45e-04 (AVERGE_DL)=    0.0038092068 
ITERATION  15 : L=   15.8772894658 DL=  8.79e-05 (AVERGE_DL)=    0.0029643370 
ITERATION  16 : L=   15.8773445949 DL=  5.51e-05 (AVERGE_DL)=    0.0023479584 
ITERATION  17 : L=   15.8773810631 DL=  3.65e-05 (AVERGE_DL)=    0.0019096643 
ITERATION  18 : L=   15.8774069959 DL=  2.59e-05 (AVERGE_DL)=    0.0016103673 
ITERATION  19 : L=   15.8774270965 DL=  2.01e-05 (AVERGE_DL)=    0.0014177640 
ITERATION  20 : L=   15.8774440943 DL=  1.70e-05 (AVERGE_DL)=    0.0013037563 
ITERATION  21 : L=   15.8774595826 DL=  1.55e-05 (AVERGE_DL)=    0.0012445210 
ITERATION  22 : L=   15.8774744891 DL=  1.49e-05 (AVERGE_DL)=    0.0012209215 
ITERATION  23 : L=   15.8774893654 DL=  1.49e-05 (AVERGE_DL)=    0.0012196858 
ITERATION  24 : L=   15.8775045419 DL=  1.52e-05 (AVERGE_DL)=    0.0012319310 
ITERATION  25 : L=   15.8775202216 DL=  1.57e-05 (AVERGE_DL)=    0.0012521826 
ITERATION  26 : L=   15.8775365338 DL=  1.63e-05 (AVERGE_DL)=    0.0012771944 
ITERATION  27 : L=   15.8775535667 DL=  1.70e-05 (AVERGE_DL)=    0.0013050996 
ITERATION  28 : L=   15.8775713843 DL=  1.78e-05 (AVERGE_DL)=    0.0013348254 
ITERATION  29 : L=   15.8775900365 DL=  1.87e-05 (AVERGE_DL)=    0.0013657323 
ITERATION  30 : L=   15.8776095666 DL=  1.95e-05 (AVERGE_DL)=    0.0013975020 
ITERATION  31 : L=   15.8776300135 DL=  2.04e-05 (AVERGE_DL)=    0.0014299247 
ITERATION  32 : L=   15.8776514141 DL=  2.14e-05 (AVERGE_DL)=    0.0014628965 
ITERATION  33 : L=   15.8776738043 DL=  2.24e-05 (AVERGE_DL)=    0.0014963350 
ITERATION  34 : L=   15.8776972194 DL=  2.34e-05 (AVERGE_DL)=    0.0015301980 
ITERATION  35 : L=   15.8777216942 DL=  2.45e-05 (AVERGE_DL)=    0.0015644438 
ITERATION  36 : L=   15.8777472633 DL=  2.56e-05 (AVERGE_DL)=    0.0015990332 
ITERATION  37 : L=   15.8777739611 DL=  2.67e-05 (AVERGE_DL)=    0.0016339474 
ITERATION  38 : L=   15.8778018214 DL=  2.79e-05 (AVERGE_DL)=    0.0016691408 
ITERATION  39 : L=   15.8778308775 DL=  2.91e-05 (AVERGE_DL)=    0.0017045850 
ITERATION  40 : L=   15.8778611616 DL=  3.03e-05 (AVERGE_DL)=    0.0017402312 
ITERATION  41 : L=   15.8778927051 DL=  3.15e-05 (AVERGE_DL)=    0.0017760497 
ITERATION  42 : L=   15.8779255380 DL=  3.28e-05 (AVERGE_DL)=    0.0018119856 
ITERATION  43 : L=   15.8779596889 DL=  3.42e-05 (AVERGE_DL)=    0.0018479949 
ITERATION  44 : L=   15.8779951912 DL=  3.55e-05 (AVERGE_DL)=    0.0018842074 
ITERATION  45 : L=   15.8780320439 DL=  3.69e-05 (AVERGE_DL)=    0.0019197054 
ITERATION  46 : L=   15.8780703011 DL=  3.83e-05 (AVERGE_DL)=    0.0019559429 
ITERATION  47 : L=   15.8781099672 DL=  3.97e-05 (AVERGE_DL)=    0.0019916350 
ITERATION  48 : L=   15.8781510600 DL=  4.11e-05 (AVERGE_DL)=    0.0020271361 
ITERATION  49 : L=   15.8781935922 DL=  4.25e-05 (AVERGE_DL)=    0.0020623336 
ITERATION  50 : L=   15.8782375726 DL=  4.40e-05 (AVERGE_DL)=    0.0020971519 
ITERATION  51 : L=   15.8782830069 DL=  4.54e-05 (AVERGE_DL)=    0.0021315317 
ITERATION  52 : L=   15.8783298957 DL=  4.69e-05 (AVERGE_DL)=    0.0021653816 
ITERATION  53 : L=   15.8783782346 DL=  4.83e-05 (AVERGE_DL)=    0.0021986119 
ITERATION  54 : L=   15.8784280149 DL=  4.98e-05 (AVERGE_DL)=    0.0022311493 
ITERATION  55 : L=   15.8784792222 DL=  5.12e-05 (AVERGE_DL)=    0.0022629042 
ITERATION  56 : L=   15.8785318363 DL=  5.26e-05 (AVERGE_DL)=    0.0022937759 
ITERATION  57 : L=   15.8785858315 DL=  5.40e-05 (AVERGE_DL)=    0.0023236866 
ITERATION  58 : L=   15.8786411758 DL=  5.53e-05 (AVERGE_DL)=    0.0023525354 
ITERATION  59 : L=   15.8786978311 DL=  5.67e-05 (AVERGE_DL)=    0.0023802375 
ITERATION  60 : L=   15.8787557524 DL=  5.79e-05 (AVERGE_DL)=    0.0024066855 
ITERATION  61 : L=   15.8788148891 DL=  5.91e-05 (AVERGE_DL)=    0.0024318041 
ITERATION  62 : L=   15.8788751832 DL=  6.03e-05 (AVERGE_DL)=    0.0024554849 
ITERATION  63 : L=   15.8789365707 DL=  6.14e-05 (AVERGE_DL)=    0.0024776500 
ITERATION  64 : L=   15.8789989808 DL=  6.24e-05 (AVERGE_DL)=    0.0024982022 
ITERATION  65 : L=   15.8790623369 DL=  6.34e-05 (AVERGE_DL)=    0.0025170629 
ITERATION  66 : L=   15.8791265557 DL=  6.42e-05 (AVERGE_DL)=    0.0025341439 
ITERATION  67 : L=   15.8791915491 DL=  6.50e-05 (AVERGE_DL)=    0.0025493804 
ITERATION  68 : L=   15.8792572226 DL=  6.57e-05 (AVERGE_DL)=    0.0025626830 
ITERATION  69 : L=   15.8793234775 DL=  6.63e-05 (AVERGE_DL)=    0.0025740024 
ITERATION  70 : L=   15.8793902095 DL=  6.67e-05 (AVERGE_DL)=    0.0025832551 
ITERATION  71 : L=   15.8794573118 DL=  6.71e-05 (AVERGE_DL)=    0.0025904111 
ITERATION  72 : L=   15.8795246729 DL=  6.74e-05 (AVERGE_DL)=    0.0025954016 
ITERATION  73 : L=   15.8795921801 DL=  6.75e-05 (AVERGE_DL)=    0.0025982135 
ITERATION  74 : L=   15.8796597174 DL=  6.75e-05 (AVERGE_DL)=    0.0025987944 
ITERATION  75 : L=   15.8797271685 DL=  6.75e-05 (AVERGE_DL)=    0.0025971360 
ITERATION  76 : L=   15.8797944163 DL=  6.72e-05 (AVERGE_DL)=    0.0025932179 
ITERATION  77 : L=   15.8798613444 DL=  6.69e-05 (AVERGE_DL)=    0.0025870466 
ITERATION  78 : L=   15.8799278368 DL=  6.65e-05 (AVERGE_DL)=    0.0025786114 
ITERATION  79 : L=   15.8799937807 DL=  6.59e-05 (AVERGE_DL)=    0.0025679537 
ITERATION  80 : L=   15.8800590649 DL=  6.53e-05 (AVERGE_DL)=    0.0025550775 
ITERATION  81 : L=   15.8801235824 DL=  6.45e-05 (AVERGE_DL)=    0.0025400300 
ITERATION  82 : L=   15.8801872300 DL=  6.36e-05 (AVERGE_DL)=    0.0025228479 
ITERATION  83 : L=   15.8802499100 DL=  6.27e-05 (AVERGE_DL)=    0.0025035973 
ITERATION  84 : L=   15.8803115288 DL=  6.16e-05 (AVERGE_DL)=    0.0024823126 
ITERATION  85 : L=   15.8803720000 DL=  6.05e-05 (AVERGE_DL)=    0.0024590905 
ITERATION  86 : L=   15.8804312433 DL=  5.92e-05 (AVERGE_DL)=    0.0024339947 
ITERATION  87 : L=   15.8804891853 DL=  5.79e-05 (AVERGE_DL)=    0.0024071146 
ITERATION  88 : L=   15.8805457595 DL=  5.66e-05 (AVERGE_DL)=    0.0023785325 
ITERATION  89 : L=   15.8806009070 DL=  5.51e-05 (AVERGE_DL)=    0.0023483511 
ITERATION  90 : L=   15.8806545760 DL=  5.37e-05 (AVERGE_DL)=    0.0023166575 
ITERATION  91 : L=   15.8807067228 DL=  5.21e-05 (AVERGE_DL)=    0.0022835669 
ITERATION  92 : L=   15.8807573108 DL=  5.06e-05 (AVERGE_DL)=    0.0022491775 
ITERATION  93 : L=   15.8808063112 DL=  4.90e-05 (AVERGE_DL)=    0.0022136026 
ITERATION  94 : L=   15.8808537021 DL=  4.74e-05 (AVERGE_DL)=    0.0021769455 
ITERATION  95 : L=   15.8808994691 DL=  4.58e-05 (AVERGE_DL)=    0.0021393228 
ITERATION  96 : L=   15.8809436041 DL=  4.41e-05 (AVERGE_DL)=    0.0021008335 
ITERATION  97 : L=   15.8809861062 DL=  4.25e-05 (AVERGE_DL)=    0.0020616036 
ITERATION  98 : L=   15.8810269795 DL=  4.09e-05 (AVERGE_DL)=    0.0020217137 
ITERATION  99 : L=   15.8810662348 DL=  3.93e-05 (AVERGE_DL)=    0.0019812961 
ITERATION 100 : L=   15.8811038877 DL=  3.77e-05 (AVERGE_DL)=    0.0019404350 
ITERATION 101 : L=   15.8811399590 DL=  3.61e-05 (AVERGE_DL)=    0.0018992432 
ITERATION 102 : L=   15.8811744733 DL=  3.45e-05 (AVERGE_DL)=    0.0018578044 
ITERATION 103 : L=   15.8812074599 DL=  3.30e-05 (AVERGE_DL)=    0.0018162191 
ITERATION 104 : L=   15.8812389506 DL=  3.15e-05 (AVERGE_DL)=    0.0017745643 
ITERATION 105 : L=   15.8812689813 DL=  3.00e-05 (AVERGE_DL)=    0.0017329362 
ITERATION 106 : L=   15.8812975897 DL=  2.86e-05 (AVERGE_DL)=    0.0016914015 
ITERATION 107 : L=   15.8813248160 DL=  2.72e-05 (AVERGE_DL)=    0.0016500404 
ITERATION 108 : L=   15.8813507022 DL=  2.59e-05 (AVERGE_DL)=    0.0016089176 
ITERATION 109 : L=   15.8813752915 DL=  2.46e-05 (AVERGE_DL)=    0.0015680978 
ITERATION 110 : L=   15.8813986284 DL=  2.33e-05 (AVERGE_DL)=    0.0015276420 
ITERATION 111 : L=   15.8814207580 DL=  2.21e-05 (AVERGE_DL)=    0.0014876009 
ITERATION 112 : L=   15.8814417257 DL=  2.10e-05 (AVERGE_DL)=    0.0014480244 
ITERATION 113 : L=   15.8814615774 DL=  1.99e-05 (AVERGE_DL)=    0.0014089597 
ITERATION 114 : L=   15.8814803584 DL=  1.88e-05 (AVERGE_DL)=    0.0013704390 
ITERATION 115 : L=   15.8814981141 DL=  1.78e-05 (AVERGE_DL)=    0.0013325060 
ITERATION 116 : L=   15.8815148892 DL=  1.68e-05 (AVERGE_DL)=    0.0012951865 
ITERATION 117 : L=   15.8815307277 DL=  1.58e-05 (AVERGE_DL)=    0.0012585091 
ITERATION 118 : L=   15.8815456728 DL=  1.49e-05 (AVERGE_DL)=    0.0012225038 
ITERATION 119 : L=   15.8815597667 DL=  1.41e-05 (AVERGE_DL)=    0.0011871777 
ITERATION 120 : L=   15.8815730505 DL=  1.33e-05 (AVERGE_DL)=    0.0011525531 
ITERATION 121 : L=   15.8815855643 DL=  1.25e-05 (AVERGE_DL)=    0.0011186486 
ITERATION 122 : L=   15.8815973468 DL=  1.18e-05 (AVERGE_DL)=    0.0010854716 
ITERATION 123 : L=   15.8816084354 DL=  1.11e-05 (AVERGE_DL)=    0.0010530257 
ITERATION 124 : L=   15.8816188664 DL=  1.04e-05 (AVERGE_DL)=    0.0010213234 
ITERATION 125 : L=   15.8816286745 DL=  9.81e-06 (AVERGE_DL)=    0.0009903605 
ITERATION 126 : L=   15.8816378933 DL=  9.22e-06 (AVERGE_DL)=    0.0009601440 
ITERATION 127 : L=   15.8816465547 DL=  8.66e-06 (AVERGE_DL)=    0.0009306673 
MAXIMUM NO OF ITERATIONS EXCEEDED - LOCALIZATION NOT CONVERGED


--------------------------------------------------------------------------------
                    LOCALIZED MOLECULAR ORBITAL COMPOSITIONS
--------------------------------------------------------------------------------

The Mulliken populations for each LMO on each atom are computed
The LMO`s will be ordered according to atom index and type
  (A) Strongly localized MO`s have populations of >=0.950 on one atom
  (B) Two center bond orbitals have populations of >=0.850 on two atoms
  (C) Other MO`s are considered to be `delocalized`

FOUND  -   2 strongly local MO`s
       -   3 two center bond MO`s
       -   0 significantly delocalized MO`s

Rather strongly localized orbitals:
MO   6:   1S  -   0.964605
MO   5:   0Li -   1.021486
Bond-like localized orbitals:
MO   9:   1S  -   0.893484  and   0Li -   0.106516
MO   8:   1S  -   0.891788  and   0Li -   0.108212
MO   7:   1S  -   0.924802  and   0Li -   0.075198
Localized MO's were stored in: /cluster/projects/nn14654k/ylvaos/basis_set_n_funcs/functionals/lda_x/LiS/inp/LiS_lda_x_ccpvqz.loc
------------------------------------------------------------------------------
                           ORCA ORBITAL LOCALIZATION
------------------------------------------------------------------------------

Input orbitals are from                  ... /cluster/projects/nn14654k/ylvaos/basis_set_n_funcs/functionals/lda_x/LiS/inp/LiS_lda_x_ccpvqz.loc
Output orbitals are to                   ... /cluster/projects/nn14654k/ylvaos/basis_set_n_funcs/functionals/lda_x/LiS/inp/LiS_lda_x_ccpvqz.loc
Max. number of iterations                ... 128
Localizations seeded randomly            ... on
Convergence tolerance                    ... 1.000e-06
Threshold for strong local MOs           ... 9.500e-01
Threshold for bond MOs                   ... 8.500e-01
Operator                                 ... 1
Orbital range for localization           ... 5 to 8
Localization criterion                   ... NEW-BOYS
Doing the dipole integrals               ... o.k.
Initial value of the localization sum :    12.271473
ITERATION   0 : L=   14.7536446402 DL=  2.48e+00 (AVERGE_DL)=    0.6431915278 
ITERATION   1 : L=   14.7978616958 DL=  4.42e-02 (AVERGE_DL)=    0.0858458459 
ITERATION   2 : L=   14.8475812375 DL=  4.97e-02 (AVERGE_DL)=    0.0910307107 
ITERATION   3 : L=   14.9813473222 DL=  1.34e-01 (AVERGE_DL)=    0.1493129179 
ITERATION   4 : L=   15.1792759915 DL=  1.98e-01 (AVERGE_DL)=    0.1816262964 
ITERATION   5 : L=   15.3018570750 DL=  1.23e-01 (AVERGE_DL)=    0.1429341827 
ITERATION   6 : L=   15.3475842379 DL=  4.57e-02 (AVERGE_DL)=    0.0872994491 
ITERATION   7 : L=   15.3621713849 DL=  1.46e-02 (AVERGE_DL)=    0.0493071107 
ITERATION   8 : L=   15.3666923862 DL=  4.52e-03 (AVERGE_DL)=    0.0274499586 
ITERATION   9 : L=   15.3680950369 DL=  1.40e-03 (AVERGE_DL)=    0.0152897059 
ITERATION  10 : L=   15.3685325922 DL=  4.38e-04 (AVERGE_DL)=    0.0085396659 
ITERATION  11 : L=   15.3686696995 DL=  1.37e-04 (AVERGE_DL)=    0.0047802943 
ITERATION  12 : L=   15.3687127883 DL=  4.31e-05 (AVERGE_DL)=    0.0026798257 
ITERATION  13 : L=   15.3687263542 DL=  1.36e-05 (AVERGE_DL)=    0.0015036560 
ITERATION  14 : L=   15.3687306295 DL=  4.28e-06 (AVERGE_DL)=    0.0008441278 
ITERATION  15 : L=   15.3687319776 DL=  1.35e-06 (AVERGE_DL)=    0.0004740086 
ITERATION  16 : L=   15.3687324030 DL=  4.25e-07 (AVERGE_DL)=    0.0002662585 
LOCALIZATION SUM CONVERGED


--------------------------------------------------------------------------------
                    LOCALIZED MOLECULAR ORBITAL COMPOSITIONS
--------------------------------------------------------------------------------

The Mulliken populations for each LMO on each atom are computed
The LMO`s will be ordered according to atom index and type
  (A) Strongly localized MO`s have populations of >=0.950 on one atom
  (B) Two center bond orbitals have populations of >=0.850 on two atoms
  (C) Other MO`s are considered to be `delocalized`

FOUND  -   2 strongly local MO`s
       -   2 two center bond MO`s
       -   0 significantly delocalized MO`s

Rather strongly localized orbitals:
MO   6:   1S  -   0.973870
MO   5:   0Li -   1.021438
Bond-like localized orbitals:
MO   8:   1S  -   0.860377  and   0Li -   0.139623
MO   7:   1S  -   0.860320  and   0Li -   0.139680
Localized MO's were stored in: /cluster/projects/nn14654k/ylvaos/basis_set_n_funcs/functionals/lda_x/LiS/inp/LiS_lda_x_ccpvqz.loc

-------------------------   --------------------
FINAL SINGLE POINT ENERGY      -402.804104634578
-------------------------   --------------------



           ************************************************************
           *        Program running with 8 parallel MPI-processes     *
           *              working on a common directory               *
           ************************************************************

------------------------------------------------------------------------------
                              ORCA PROPERTY CALCULATIONS
------------------------------------------------------------------------------

GBWName                                 ... /cluster/projects/nn14654k/ylvaos/basis_set_n_funcs/functionals/lda_x/LiS/inp/LiS_lda_x_ccpvqz.gbw
Number of atoms                         ...      2
Number of basis functions               ...    149
Max core memory                         ...   4096 MB

Electric properties:
Dipole moment                           ... YES
Quadrupole moment                       ... YES
Static polarizability (Dipole/Dipole)   ...  NO
Static polarizability (Dipole/Quad.)    ...  NO
Static polarizability (Quad./Quad.)     ...  NO
Static polarizability (Velocity)        ...  NO
Static hyperpolarizability              ...  NO

Atomic electric properties:
Dipole moment                           ...  NO
Quadrupole moment                       ...  NO
Static polarizability                   ...  NO

Choice of electric origin               ... Center of mass
Position of electric origin             ...     0.000000     0.000000     1.308198

General magnetic properties:
Magnetizability                         ...  NO

EPR properties:
g-Tensor (aka g-matrix)                 ...  NO
Zero-Field splitting spin-orbit         ...  NO
Zero-field splitting spin-spin          ...  NO
Hyperfine couplings                     ...  NO (   0 nuclei)
Quadrupole couplings                    ...  NO (   0 nuclei)
Contact density                         ...  NO (   0 nuclei)

NMR properties:
Chemical shifts                         ...  NO (   0 nuclei)
Spin-rotation constants                 ...  NO (   0 nuclei)
Spin-spin couplings                     ...  NO (   0 nuclei,    0 pairs)

Choice of magnetic origin               ... GIAO
Position of magnetic origin             ...     0.000000     0.000000     0.000000

Properties with geometric perturbations:
SCF Hessian                             ...  NO
IR spectrum                             ...  NO
VCD spectrum                            ...  NO
X-ray spectroscopy properties:
SCF XES/XAS/RIXS spectra                ...  NO

SCF SOC stabilization energy            ...  NO
Diagonal Born-Oppenheimer correction    ...  NO

-------------
DIPOLE MOMENT
-------------

Method             : SCF
Type of density    : Electron Density
Multiplicity       :   2
Irrep              :   0
Energy             :  -402.8041046345784935 Eh
Basis              : AO
                                X                 Y                 Z
Electronic contribution:      0.000000000      -0.000000001      -4.110335780
Nuclear contribution   :      0.000000000       0.000000000       1.549484202
                        -----------------------------------------
Total Dipole Moment    :      0.000000000      -0.000000001      -2.560851578
                        -----------------------------------------
Magnitude (a.u.)       :      2.560851578
Magnitude (Debye)      :      6.509167420



--------------------
Rotational spectrum 
--------------------
 
Rotational constants in cm-1:             0.000000             0.639339             0.639339 
Rotational constants in MHz :             0.000000         19166.891897         19166.891897 

Dipole components along the rotational axes: 
x,y,z [a.u.] :    -2.560852    -0.000000     0.000000 
x,y,z [Debye]:    -6.509167    -0.000000     0.000000 

 

Dipole moment calculation done in   0.0 sec 

-----------------
QUADRUPOLE MOMENT
-----------------

Method             : SCF
Type of density    : Electron Density
Multiplicity       :   2
Irrep              :   0
Energy             :  -402.8041046345784935 Eh
Basis              : AO

                XX              YY              ZZ              XY              XZ              YZ
  NUC        0.000000000     0.000000000    41.817245673     0.000000000     0.000000000     0.000000000
  EL       -13.585614721   -13.675687780   -45.700426341     1.316967180    -0.000000001     0.000000000
  TOT      -13.585614721   -13.675687780    -3.883180667     1.316967180    -0.000000001     0.000000000 (a.u.)
           -18.273116427   -18.394267773    -5.223010802     1.771365898    -0.000000001     0.000000000 (Buckingham)

diagonalized tensor:
           -14.948388266   -12.312914235    -3.883180667 (a.u.)
           -20.106093453   -16.561290747    -5.223010802 (Buckingham)
           -18.427885356    -7.793477239    26.221362595 (traceless form in Buckingham)

             0.694918277    -0.719088721    -0.000000000
            -0.719088721    -0.694918277     0.000000000
             0.000000000    -0.000000000     1.000000000
        
Isotropic quadrupole :   -10.381494389

Quadrupole moment calculation done in   0.0 sec (  0.0 sec for integrals)

Maximum memory used throughout the entire PROP-calculation: 5.7 MB

--------------------------------
SUGGESTED CITATIONS FOR THIS RUN
--------------------------------

Below you find a list of papers that are relevant to this ORCA run
We neither can nor want to force you to cite these papers, but we appreciate if you do
You receive ORCA, which is the product of decades of hard work by many enthusiastic individuals, for free
The only thing we kindly ask in return is that you cite our papers,
We deeply appreciate it, if you show your appreciation for ORCA by not just citing the generic ORCA reference.

Please note that relegating all ORCA citations to the supporting information does *not* help us.
SI sections are not indexed - citations you put there will not count into any citation statistics
But we need these citations in order to attract the funding resources that allow us to do what we are doing

Therefore, if you are a happy ORCA user, please consider citing a few of the papers listed below in the main body of your paper

In addition to the list printed below, the program has created the file /cluster/projects/nn14654k/ylvaos/basis_set_n_funcs/functionals/lda_x/LiS/inp/LiS_lda_x_ccpvqz.bibtex that contains the list in bibtex format
You can import this file easily into all common literature databanks and citation aid programs

It goes without saying that in many instances, there are alternative algorithms to achieve similar
results as the ones you have gotten from ORCA. It is, of course, also the case that in some instances
ORCA just re-implements algorithms worked out by others. We are fully aware of that and we are also
fully appreciative of our colleagues work. Hence this citation list should not be read as indicating
that the listed papers, which are focused on our own work, are the only ones worth citing. It simply
meant to make it easier for users to cite ORCA specific papers. It is not a substitute for doing your
own literature research and citing the relevant literature in a scientifically appropriate manner.

List of essential papers. We consider these as the minimum necessary citations

  1. Neese, F.
     Software update: the ORCA program system, version 6.0
     WIRES Comput. Molec. Sci. 2025 15(1), e70019
     doi.org/10.1002/wcms.70019

List of papers to cite with high priority. The work reported in these papers was absolutely
necessary for this run to complete.
Our perspective: the developers of density functionals and basis sets usually get cited in chemistry papers
Good! But without the algorithms to do something with them, the functionals or basis sets would not do anything.
Hence, in our opinion, the algorithm design and method developments papers are equally worthy of getting cited

  1. Lehtola, S.; Steigemann, C.; Oliveira, M.; Marques, M.
     Recent developments in Libxc - A comprehensive library of functionals for density functional theory
     Software X 2018 7 , 
     doi.org/10.1016/j.softx.2017.11.002
  2. Neese, F.
     The SHARK Integral Generation and Digestion System
     J. Comp. Chem. 2022 44(3), 381
     doi.org/10.1002/jcc.26942

List of suggested additional citations. These are papers that are important in the 'surrounding' of 
of this run, or papers that preceded the highly important papers. If you like your results we are grateful for a citation.

  1. Neese, F.
     The ORCA program system
     WIRES Comput. Molec. Sci. 2012 2(1), 73-78
     doi.org/10.1002/wcms.81
  2. Neese, F.
     Software update: the ORCA program system, version 4.0
     WIRES Comput. Molec. Sci. 2018 8(1), 1-6
     doi.org/10.1002/wcms.1327
  3. Neese, F.; Wennmohs, F.; Becker, U.; Riplinger, C.
     The ORCA quantum chemistry program package
     J. Chem. Phys. 2020 152(22), 224108
     doi.org/10.1063/5.0004608
  4. Neese, F.
     Software update: The ORCA program system—Version 5.0
     WIRES Comput. Molec. Sci. 2022 12(1), e1606
     doi.org/10.1002/wcms.1606

List of optional additional citations

  1. Neese, F.
     Approximate second-order SCF convergence for spin unrestricted wavefunctions
     Chem. Phys. Lett. 2000 325(1-3), 93-98
     doi.org/10.1016/s0009-2614(00)00662-x

Timings for individual modules:

Sum of individual times          ...        4.738 sec (=   0.079 min)
Startup calculation              ...        1.496 sec (=   0.025 min)  31.6 %
SCF iterations                   ...        2.774 sec (=   0.046 min)  58.5 %
Property integrals               ...        0.220 sec (=   0.004 min)   4.6 %
Property calculations            ...        0.242 sec (=   0.004 min)   5.1 %
Orbital localization             ...        0.006 sec (=   0.000 min)   0.1 %
                             ****ORCA TERMINATED NORMALLY****
TOTAL RUN TIME: 0 days 0 hours 0 minutes 5 seconds 390 msec
