
                                 *****************
                                 * O   R   C   A *
                                 *****************

                                            #,                                       
                                            ###                                      
                                            ####                                     
                                            #####                                    
                                            ######                                   
                                           ########,                                 
                                     ,,################,,,,,                         
                               ,,#################################,,                 
                          ,,##########################################,,             
                       ,#########################################, ''#####,          
                    ,#############################################,,   '####,        
                  ,##################################################,,,,####,       
                ,###########''''           ''''###############################       
              ,#####''   ,,,,##########,,,,          '''####'''          '####       
            ,##' ,,,,###########################,,,                        '##       
           ' ,,###''''                  '''############,,,                           
         ,,##''                                '''############,,,,        ,,,,,,###''
      ,#''                                            '''#######################'''  
     '                                                          ''''####''''         
             ,#######,   #######,   ,#######,      ##                                
            ,#'     '#,  ##    ##  ,#'     '#,    #''#        ,####,    ,#,          
            ##       ##  ##   ,#'  ##            #'  '#       #'       ,# #          
            ##       ##  #######   ##           ,######,      #####,      #          
            '#,     ,#'  ##    ##  '#,     ,#' ,#      #,     #,   #      #          
             '#######'   ##     ##  '#######'  #'      '#     '####' #    #          



                #########################################################
                #                        -***-                          #
                #          Department of theory and spectroscopy        #
                #                                                       #
                #                      Frank Neese                      #
                #                                                       #
                #     Directorship, Architecture, Infrastructure        #
                #                    SHARK, DRIVERS                     #
                #        Core code/Algorithms in most modules           #
                #                                                       #
                #        Max Planck Institute fuer Kohlenforschung      #
                #                Kaiser Wilhelm Platz 1                 #
                #                 D-45470 Muelheim/Ruhr                 #
                #                      Germany                          #
                #                                                       #
                #                  All rights reserved                  #
                #                        -***-                          #
                #########################################################


                         Program Version 6.1.1  -  RELEASE   -
                                (GIT: $487d211c$)
                          ($2025-11-21 10:33:24 +0100$)


 With contributions from (in alphabetic order):
[Max-Planck-Institut fuer Kohlenforschung]                               
  Daniel Aravena         : Magnetic Suceptibility                        
  Michael Atanasov       : Ab Initio Ligand Field Theory (pilot matlab implementation)
  Alexander A. Auer      : GIAO ZORA, VPT2 properties, NMR spectrum      
  Ute Becker             : All parallelization in ORCA, NUMFREQ, NUMCALC 
  Giovanni Bistoni       : ED, misc. LED, open-shell LED, HFLD           
  Dmytro Bykov           : pre 5.0 version of the SCF Hessian            
  Marcos Casanova-Páez   : Triplet and SCS-CIS(D). UHF-(DLPNO)-IP/EA/STEOM-CCSD. UHF-CVS-IP/STEOM-CCSD   
  Vijay G. Chilkuri      : MRCI spin determinant printing, contributions to CSF-ICE 
  Pauline Colinet        : FMM embedding                                 
  Dipayan Datta          : RHF DLPNO-CCSD density                        
  Achintya Kumar Dutta   : EOM-CC, STEOM-CC                              
  Nicolas Foglia         : Exact transition moments, OPA infrastructure, MCD improvements    
  Dmitry Ganyushin       : Spin-Orbit,Spin-Spin,Magnetic field MRCI      
  Miquel Garcia-Rates    : C-PCM and meta-GGA Hessian, CCSD/C-PCM, Gaussian charge scheme 
  Tiago L. C. Gouveia    : GS-ROHF, GS-ROCIS                             
  Yang Guo               : DLPNO-NEVPT2, F12-NEVPT2, CIM, IAO-localization        
  Andreas Hansen         : Spin unrestricted coupled pair/coupled cluster methods 
  Ingolf Harden          : AUTO-CI MPn and infrastructure                
  Benjamin Helmich-Paris : MC-RPA, TRAH-(SCF,CASSCF), AVAS, COSX integrals, SCF dyn. polar., MC-PDFT, srDFT 
  Lee Huntington         : MR-EOM, pCC                                   
  Robert Izsak           : Overlap fitted RIJCOSX, COSX-SCS-MP3, EOM     
  Riya Kayal             : Wick's Theorem for AUTO-CI, AUTO-CI UHF-CCSDT 
  Emily Kempfer          : AUTO-CI RHF CISDT and CCSDT, approximate NEVPT4
  Christian Kollmar      : KDIIS, OOCD, Brueckner-CCSD(T), CCSD density, CASPT2, CASPT2-K, improved NEVPT2 
  Axel Koslowski         : Symmetry handling                             
  Simone Kossmann        : meta-GGA functionals, TD-DFT gradient, OOMP2, (MP2 Hessian; deprecated post 5.0) 
  Lucas Lang             : DCDCAS, Hyperfine gauge corrections, ICE-SOC+SSC
  Marvin Lechner         : AUTO-CI (C++ implementation), FIC-MRCC        
  Spencer Leger          : CASSCF response                               
  Dagmar Lenk            : GEPOL surface, SMD, ORCA-2-JSON               
  Dimitrios Liakos       : Extrapolation schemes; Compound Job, Property file
  Dimitrios Manganas     : Further ROCIS development; embedding schemes. LFT, Crystal Embedding 
  Dimitrios Pantazis     : SARC Basis sets                               
  Anastasios Papadopoulos: AUTO-CI, single reference methods and gradients 
  Taras Petrenko         : pre 6.0 DFT Hessian and TD-DFT gradient,  ECA, NRVS 
  Petra Pikulova         : Analytic Raman intensities                    
  Peter Pinski           : DLPNO-MP2, DLPNO-MP2 Gradient                 
  Shashank Vittal Rao    : ES-AILFT, MagRelax                            
  Christoph Reimann      : Effective Core Potentials                     
  Marius Retegan         : Local ZFS, SOC                                
  Christoph Riplinger    : Optimizer, TS searches, QM/MM, DLPNO-CCSD(T), (RO)-DLPNO pert. Triples 
  Michael Roemelt        : Original ROCIS implementation, recursive CI coupling coefficients
  Masaaki Saitow         : Open-shell DLPNO-CCSD energy and density      
  Barbara Sandhoefer     : DKH picture change effects                    
  Yorick L. A. Schmerwitz: GMF and freeze-and-release deltaSCF, NEB S-IDPP initial path                    
  Kantharuban Sivalingam : CASSCF convergence/infrastructure, NEVPT2, NEVPT3, NEVPT4(SD), FIC-MRCI and CEPA variants
  Bernardo de Souza      : ESD, SOC TD-DFT                               
  Georgi L. Stoychev     : AutoAux, RI-MP2 NMR, DLPNO-MP2 response, X2C  
  Van Anh Tran           : RI-MP2 g-tensors                              
  Willem Van den Heuvel  : Paramagnetic NMR                              
  Zikuan Wang            : NOTCH, Electric field optimization            
  Frank Wennmohs         : Technical directorship and infrastructure     
  Hang Xu                : AUTO-CI-Response properties                   
                                                                         
[FACCTs GmbH]                                                            
  Markus Bursch, Nicolas Foglia, Miquel Garcia-Rates, Ingolf Harden, Hagen Neugebauer, Anastasios Papadopoulos, 
  Christoph Riplinger, Bernardo de Souza, Georgi L. Stoychev                                                    
                                                                 
  APM, various basis sets, CI-OPT, improved COSX, DLPNO-Multilevel,           
  DOCKER, DRACO, updates on ESD, Fragmentator, GOAT, IRC, LR-CPCM, L-BFGS, MBIS, meta-GGA TD-DFT gradient, ML-optimized integration grids, 
  MM, NACMEs, nearIR, NEB, NEB-TS, NL-DFT gradient (VV10), 2- and 3-layer-ONIOM, interface openCOSMO-RS, QMMM,   
  Crystal-QMMM, RESP, rigid body optimization, SF, symmetry and pop. for TD-DFT, various functionals, SOLVATOR                                   
                                                                         
[Other institutions]                                                     
  V. Asgeirsson          : NEB                                           
  Christoph Bannwarth    : sTDA-DFT, sTD-DFT, PBEh-3c, B97-3c, D3        
  Giovanni Bistoni       : ETS/NOCV, ADLD/ADEX, COVALED                  
  Martin Brehm           : Molecular dynamics                            
  Ronald Cardenas        : ETS/NOCV                                      
  Martina Colucci        : COVALED                                       
  Sebastian Ehlert       : rSCAN, r2SCAN, r2SCAN-3c, D4, dhf basis sets  
  Marvin Friede          : D4 for Fr, Ra, Ac-Lr                          
  Lars Goerigk           : TD-DFT with DH, B97 family of functionals     
  Stefan Grimme          : VdW corrections, initial TS optimization, DFT functionals, gCP, sTDA/sTD-DF 
  Waldemar Hujo          : DFT-NL                                        
  H. Jonsson             : NEB                                           
  Holger Kruse           : gCP                                           
  Marcel Mueller         : wB97X-3c, vDZP basis set                      
  Hagen Neugebauer       : wr2SCAN, Native XTB                           
  Gianluca Regni         : ADLD/ADEX                                     
  Tobias Risthaus        : pre 6.0 range-separated hybrid DFT and stability analysis
  Lukas Wittmann         : regularized MP2, r2SCAN double-hybrids, wr2SCAN        
                                                                         
We gratefully acknowledge several colleagues who have allowed us to      
interface, adapt or use parts of their codes:                            
  Ed Valeev, F. Pavosevic, A. Kumar             : LibInt (2-el integral package), F12 methods 
  Garnet Chan, S. Sharma, J. Yang, R. Olivares  : DMRG                   
  Ulf Ekstrom                                   : XCFun DFT Library      
  Mihaly Kallay                                 : mrcc  (arbitrary order and MRCC methods)
  Frank Weinhold                                : gennbo (NPA and NBO analysis)           
  Simon Mueller                                 : openCOSMO-RS                            
  Christopher J. Cramer and Donald G. Truhlar   : smd solvation model                     
  S Lehtola, MJT Oliveira, MAL Marques          : LibXC Library                           
  Liviu Ungur et al                             : ANISO software                          


 Your calculation uses the libint2 library for the computation of 2-el integrals
 For citations please refer to: http://libint.valeyev.net

 Your ORCA version has been built with support for libXC version: 7.0.0
 For citations please refer to: https://libxc.gitlab.io

 This ORCA versions uses:
   CBLAS   interface :  Fast vector & matrix operations
   LAPACKE interface :  Fast linear algebra routines
   SCALAPACK package :  Parallel linear algebra routines
   Shared memory     :  Shared parallel matrices
   BLAS/LAPACK       :  OpenBLAS 0.3.29  USE64BITINT DYNAMIC_ARCH NO_AFFINITY Cooperlake SINGLE_THREADED
        Core in use  :  Cooperlake
   Copyright (c) 2011-2014, The OpenBLAS Project


  ***********************************
  * Starting time: Fri May 15 14:02:00 2026
  * Host name:     c1-47
  * Process ID:    1774212
  * Working dir.:  /cluster/projects/nn14654k/ylvaos/basis_set_n_funcs/functionals/hyb_gga_xc_b97/C4H6/out
  ***********************************

Using LibXC functional ID 407 : Becke 97
[ 1]  A. D. Becke.,  J. Chem. Phys. 107, 8554 (1997)
Using LibXC functional ID 407 : Becke 97
[ 1]  A. D. Becke.,  J. Chem. Phys. 107, 8554 (1997)
Your calculation utilizes LibXC
by S. Lehtola, C. Steigemann, M. J. T. Oliveira & M. A. L. Marques
Please cite in your paper:
Lehtola, S.; Steigemann, C.; Oliveira, M.J.T.; Marques, M. A. L. Software X, 7, (2018), 1.
   

================================================================================

----- Orbital basis set information -----
Your calculation utilizes the basis: def2-QZVP
   F. Weigend and R. Ahlrichs, Phys. Chem. Chem. Phys. 7, 3297 (2005).

================================================================================
                                        WARNINGS
                       Please study these warnings very carefully!
================================================================================


================================================================================
                                       INPUT FILE
================================================================================
NAME = /cluster/projects/nn14654k/ylvaos/basis_set_n_funcs/functionals/hyb_gga_xc_b97/C4H6/inp/C4H6_hyb_gga_xc_b97_def2qzvp.inp
|  1> ! dft def2-QZVP TightSCF
|  2> %pal nprocs 8 end
|  3> 
|  4> %loc
|  5>   LocMet NewBoys
|  6>   Occ true
|  7> end
|  8> 
|  9> %method
| 10>   
| 11>   functional hyb_gga_xc_b97
| 12> end
| 13> 
| 14> %elprop
| 15>   Dipole true
| 16>   Quadrupole true
| 17> end
| 18> 
| 19> * xyz 0 1
| 20> C    0.000000000000   0.000000000000   1.632000000000
| 21> C    0.000000000000   0.000000000000   0.300000000000
| 22> C    0.000000000000   0.771000000000  -0.936300000000
| 23> C    0.000000000000  -0.771000000000  -0.936300000000
| 24> H    0.000000000000   0.914000000000   2.222200000000
| 25> H    0.000000000000  -0.914000000000   2.222200000000
| 26> H    0.912300000000   1.305900000000  -1.200300000000
| 27> H   -0.912300000000   1.305900000000  -1.200300000000
| 28> H   -0.912300000000  -1.305900000000  -1.200300000000
| 29> H    0.912300000000  -1.305900000000  -1.200300000000
| 30> *
| 31> 
| 32> 
| 33>                          ****END OF INPUT****
================================================================================

                       ****************************
                       * Single Point Calculation *
                       ****************************

---------------------------------
CARTESIAN COORDINATES (ANGSTROEM)
---------------------------------
  C      0.000000    0.000000    1.632000
  C      0.000000    0.000000    0.300000
  C      0.000000    0.771000   -0.936300
  C      0.000000   -0.771000   -0.936300
  H      0.000000    0.914000    2.222200
  H      0.000000   -0.914000    2.222200
  H      0.912300    1.305900   -1.200300
  H     -0.912300    1.305900   -1.200300
  H     -0.912300   -1.305900   -1.200300
  H      0.912300   -1.305900   -1.200300

----------------------------
CARTESIAN COORDINATES (A.U.)
----------------------------
  NO LB      ZA    FRAG     MASS         X           Y           Z
   0 C     6.0000    0    12.011    0.000000    0.000000    3.084033
   1 C     6.0000    0    12.011    0.000000    0.000000    0.566918
   2 C     6.0000    0    12.011    0.000000    1.456979   -1.769351
   3 C     6.0000    0    12.011    0.000000   -1.456979   -1.769351
   4 H     1.0000    0     1.008    0.000000    1.727210    4.199349
   5 H     1.0000    0     1.008    0.000000   -1.727210    4.199349
   6 H     1.0000    0     1.008    1.723997    2.467793   -2.268238
   7 H     1.0000    0     1.008   -1.723997    2.467793   -2.268238
   8 H     1.0000    0     1.008   -1.723997   -2.467793   -2.268238
   9 H     1.0000    0     1.008    1.723997   -2.467793   -2.268238

--------------------------------
INTERNAL COORDINATES (ANGSTROEM)
--------------------------------
 C      0   0   0     0.000000000000     0.00000000     0.00000000
 C      1   0   0     1.332000000000     0.00000000     0.00000000
 C      2   1   0     1.457010188708   148.05088964     0.00000000
 C      2   1   3     1.457010188708   148.05088964   180.00000000
 H      1   2   3     1.087994503663   122.85166680     0.00000000
 H      1   2   3     1.087994503663   122.85166680   180.00000000
 H      3   2   1     1.090002431190   117.72260444    70.99760541
 H      3   2   1     1.090002431190   117.72260444   289.00239459
 H      4   2   1     1.090002431190   117.72260444    70.99760541
 H      4   2   1     1.090002431190   117.72260444   289.00239459

---------------------------
INTERNAL COORDINATES (A.U.)
---------------------------
 C      0   0   0     0.000000000000     0.00000000     0.00000000
 C      1   0   0     2.517115210383     0.00000000     0.00000000
 C      2   1   0     2.753350230992   148.05088964     0.00000000
 C      2   1   3     2.753350230992   148.05088964   180.00000000
 H      1   2   3     2.056011647134   122.85166680     0.00000000
 H      1   2   3     2.056011647134   122.85166680   180.00000000
 H      3   2   1     2.059806080257   117.72260444    70.99760541
 H      3   2   1     2.059806080257   117.72260444   289.00239459
 H      4   2   1     2.059806080257   117.72260444    70.99760541
 H      4   2   1     2.059806080257   117.72260444   289.00239459

---------------------
BASIS SET INFORMATION
---------------------
There are 2 groups of distinct atoms

 Group   1 Type C   : 15s8p3d2f1g contracted to 7s4p3d2f1g pattern {8211111/5111/111/11/1}
 Group   2 Type H   : 7s3p2d1f contracted to 4s3p2d1f pattern {4111/111/11/1}

Atom   0C    basis set group =>   1
Atom   1C    basis set group =>   1
Atom   2C    basis set group =>   1
Atom   3C    basis set group =>   1
Atom   4H    basis set group =>   2
Atom   5H    basis set group =>   2
Atom   6H    basis set group =>   2
Atom   7H    basis set group =>   2
Atom   8H    basis set group =>   2
Atom   9H    basis set group =>   2


           ************************************************************
           *        Program running with 8 parallel MPI-processes     *
           *              working on a common directory               *
           ************************************************************
------------------------------------------------------------------------------
                             ORCA STARTUP CALCULATIONS
------------------------------------------------------------------------------
------------------------------------------------------------------------------
                   ___                                                        
                  /   \      - P O W E R E D   B Y -                         
                 /     \                                                     
                 |  |  |   _    _      __       _____    __    __             
                 |  |  |  | |  | |    /  \     |  _  \  |  |  /  |          
                  \  \/   | |  | |   /    \    | | | |  |  | /  /          
                 / \  \   | |__| |  /  /\  \   | |_| |  |  |/  /          
                |  |  |   |  __  | /  /__\  \  |    /   |      \           
                |  |  |   | |  | | |   __   |  |    \   |  |\   \          
                \     /   | |  | | |  |  |  |  | |\  \  |  | \   \       
                 \___/    |_|  |_| |__|  |__|  |_| \__\ |__|  \__/        
                                                                              
                      - O R C A' S   B I G   F R I E N D -                    
                                      &                                       
                       - I N T E G R A L  F E E D E R -                       
                                                                              
 v1 FN, 2020, v2 2021, v3 2022-2024                                           
------------------------------------------------------------------------------


----------------------
SHARK INTEGRAL PACKAGE
----------------------

Number of atoms                             ...     10
Number of basis functions                   ...    408
Number of shells                            ...    128
Maximum angular momentum                    ...      4
Integral batch strategy                     ... SHARK/LIBINT Hybrid
RI-J (if used) integral strategy            ... SPLIT-RIJ (Revised 2003 algorithm where possible)
Printlevel                                  ...      1
Contraction scheme used                     ... SEGMENTED contraction
Prescreening option                         ... SCHWARTZ
   Thresh                                   ... 2.500e-11
   Tcut                                     ... 2.500e-12
   Tpresel                                  ... 2.500e-12 
Coulomb Range Separation                    ... NOT USED
Exchange Range Separation                   ... NOT USED
Multipole approximations                    ... NOT USED
Finite Nucleus Model                        ... NOT USED
CABS basis                                  ... NOT available
Auxiliary Coulomb fitting basis             ... NOT available
Auxiliary J/K fitting basis                 ... NOT available
Auxiliary Correlation fitting basis         ... NOT available
Auxiliary 'external' fitting basis          ... NOT available

Checking pre-screening integrals            ... done (  0.0 sec) Dimension = 128
   => SHARK Basis and OBASIS are compatible. Storing Pre-screening
Shell pair information
Shell pair cut-off parameter TPreSel        ...   2.5e-12
Total number of shell pairs                 ...      8256
Shell pairs after pre-screening             ...      7738
Total number of primitive shell pairs       ...     19107
Primitive shell pairs kept                  ...     14829
          la=0 lb=0:   1246 shell pairs
          la=1 lb=0:   1660 shell pairs
          la=1 lb=1:    575 shell pairs
          la=2 lb=0:   1152 shell pairs
          la=2 lb=1:    770 shell pairs
          la=2 lb=2:    282 shell pairs
          la=3 lb=0:    672 shell pairs
          la=3 lb=1:    458 shell pairs
          la=3 lb=2:    316 shell pairs
          la=3 lb=3:    101 shell pairs
          la=4 lb=0:    208 shell pairs
          la=4 lb=1:    136 shell pairs
          la=4 lb=2:     96 shell pairs
          la=4 lb=3:     56 shell pairs
          la=4 lb=4:     10 shell pairs

Checking whether 4 symmetric matrices of dimension 408 fit in memory
:Max Core in MB      =   4096.00
 MB in use           =     12.97
 MB left             =   4083.03
 MB needed           =      2.55
 Data fit in memory  = YES
Calculating Nuclear repulsion               ... done (  0.0 sec) ENN=    109.249345578353 Eh

Diagonalization of the overlap matrix:
Smallest eigenvalue                        ... 5.265e-05
Time for diagonalization                   ...    0.011 sec
Threshold for overlap eigenvalues          ... 1.000e-07
Number of eigenvalues below threshold      ... 0
Time for construction of square roots      ...    0.006 sec
Total time needed                          ...    0.019 sec

-------------------
DFT GRID GENERATION
-------------------

General Integration Accuracy     IntAcc      ... 4.388
Radial Grid Type                 RadialGrid  ... OptM3 with GC (2021)
Angular Grid (max. ang.)         AngularGrid ... 4 (Lebedev-302)
Angular grid pruning method      GridPruning ... 4 (adaptive)
Weight generation scheme         WeightScheme... mBecke (2022)
Basis function cutoff            BFCut       ... 1.0000e-11
Integration weight cutoff        WCut        ... 1.0000e-14
Partially contracted basis set               ... off
Rotationally invariant grid construction     ... off
Angular grids for H and He will be reduced by one unit
Diffuse basis detected: some atoms will have their outermost
                        angular grid increased by 1.

Total number of grid points                  ...    44804
Total number of batches                      ...      705
Average number of points per batch           ...       63
Average number of grid points per atom       ...     4480
Grids setup in   0.1 sec
Initializing property integral containers    ... done (  0.0 sec)

SHARK setup successfully completed in   0.4 seconds

Maximum memory used throughout the entire STARTUP-calculation: 26.1 MB


           ************************************************************
           *        Program running with 8 parallel MPI-processes     *
           *              working on a common directory               *
           ************************************************************
-------------------------------------------------------------------------------
                                 ORCA GUESS
                   Start orbitals & Density for SCF / CASSCF
-------------------------------------------------------------------------------

------------
SCF SETTINGS
------------
Hamiltonian:
 Density Functional     Method          .... DFT(GTOs)
  Functional kind                       .... Exchange-Correlation
  Functional name                       .... Becke 97
  Functional family                     .... Hybrid GGA
  Functional refs                              
    [ 0] A. D. Becke.,  J. Chem. Phys. 107, 8554 (1997), doi: 10.1063/1.475007
  Fraction of HF Exchange               .... 0.1943
  Functional external parameters        .... 16
    Parameter  0 _cx0       =  8.094000e-01 : u^0 coefficient for exchange
    Parameter  1 _cx1       =  5.073000e-01 : u^1 coefficient for exchange
    Parameter  2 _cx2       =  7.481000e-01 : u^2 coefficient for exchange
    Parameter  3 _cx3       =  0.000000e+00 : u^3 coefficient for exchange
    Parameter  4 _cx4       =  0.000000e+00 : u^4 coefficient for exchange
    Parameter  5 _css0      =  1.737000e-01 : u^0 coefficient for same-spin correlation
    Parameter  6 _css1      =  2.348700e+00 : u^1 coefficient for same-spin correlation
    Parameter  7 _css2      = -2.486800e+00 : u^2 coefficient for same-spin correlation
    Parameter  8 _css3      =  0.000000e+00 : u^3 coefficient for same-spin correlation
    Parameter  9 _css4      =  0.000000e+00 : u^4 coefficient for same-spin correlation
    Parameter 10 _cos0      =  9.454000e-01 : u^0 coefficient for opposite-spin correlation
    Parameter 11 _cos1      =  7.471000e-01 : u^1 coefficient for opposite-spin correlation
    Parameter 12 _cos2      = -4.596100e+00 : u^2 coefficient for opposite-spin correlation
    Parameter 13 _cos3      =  0.000000e+00 : u^3 coefficient for opposite-spin correlation
    Parameter 14 _cos4      =  0.000000e+00 : u^4 coefficient for opposite-spin correlation
    Parameter 15 _cxx       =  1.943000e-01 : coefficient for exact exchange


General Settings:
 Integral files         IntName         .... /cluster/projects/nn14654k/ylvaos/basis_set_n_funcs/functionals/hyb_gga_xc_b97/C4H6/inp/C4H6_hyb_gga_xc_b97_def2qzvp
 Hartree-Fock type      HFTyp           .... RHF
 Total Charge           Charge          ....    0
 Multiplicity           Mult            ....    1
 Number of Electrons    NEL             ....   30
 Basis Dimension        Dim             ....  408
 Nuclear Repulsion      ENuc            ....    109.2493455784 Eh

Convergence Acceleration:
 AO-DIIS                CNVDIIS         .... on
   Start iteration      DIISMaxIt       ....    12
   Startup error        DIISStart       ....  0.200000
   # of expansion vecs  DIISMaxEq       ....     5
   Bias factor          DIISBfac        ....   1.050
   Max. coefficient     DIISMaxC        ....  10.000
 MO-DIIS                CNVKDIIS        .... off
 Trust-Rad. Augm. Hess. CNVTRAH         .... auto
   Auto Start mean grad. ratio tolernc. ....  1.125000
   Auto Start start iteration           ....    50
   Auto Start num. interpolation iter.  ....    10
   Max. Number of Micro iterations      ....    24
   Max. Number of Macro iterations      .... Maxiter - #DIIS iter
   Number of Davidson start vectors     ....     2
   Converg. threshold    (grad. norm)   ....   1.000e-05
   Grad. Scal. Fac. for Micro threshold ....   0.100
   Minimum threshold for Micro iter.    ....   1.000e-02
   NR start threshold (gradient norm)   ....   1.000e-04
   Initial trust radius                 ....   0.400
   Minimum AH scaling param. (alpha)    ....   1.000
   Maximum AH scaling param. (alpha)    .... 1000.000
   Quad. conv. algorithm                .... NR
   White noise on init. David. guess    .... on
   Maximum white noise                  ....   0.010
   Pseudo random numbers                .... off
   Inactive MOs                         .... canonical
   Orbital update algorithm             .... Taylor
   Preconditioner                       .... Diag
   Full preconditioner red. dimension   ....   250
 SOSCF                 CNVSOSCF           .... on
   Start iteration     SOSCFMaxIt         ....   150
   Startup grad/error  SOSCFStart         ....  0.003300
   Hessian update      SOSCFHessUp        .... L-BFGS
   Autom. constraints  SOSCFAutoConstrain .... off
 Level Shifting         CNVShift        .... on
   Level shift para.    LevelShift      ....    0.2500
   Turn off err/grad.   ShiftErr        ....    0.0010
 Zerner damping         CNVZerner       .... off
 Static damping         CNVDamp         .... on
   Fraction old density DampFac         ....    0.7000
   Max. Damping (<1)    DampMax         ....    0.9800
   Min. Damping (>=0)   DampMin         ....    0.0000
   Turn off err/grad.   DampErr         ....    0.1000

SCF Procedure:
 Maximum # iterations   MaxIter         ....   125
 SCF integral mode      SCFMode         .... Direct
   Integral package                     .... SHARK and LIBINT hybrid scheme
 Reset frequency        DirectResetFreq ....    20
 Integral Threshold     Thresh          ....  2.500e-11 Eh
 Primitive CutOff       TCut            ....  2.500e-12 Eh

Convergence Tolerance:
 Convergence Check Mode ConvCheckMode   .... Total+1el-Energy
 Convergence forced     ConvForced      .... 0
 Energy Change          TolE            ....  1.000e-08 Eh
 1-El. energy change                    ....  1.000e-05 Eh
 Orbital Gradient       TolG            ....  1.000e-05
 Orbital Rotation angle TolX            ....  1.000e-05
 DIIS Error             TolErr          ....  5.000e-07

------------------------------
INITIAL GUESS: MODEL POTENTIAL
------------------------------
Loading Hartree-Fock densities                     ... done
Calculating cut-offs                               ... done
Initializing the effective Hamiltonian             ... done
Setting up the integral package (SHARK)            ... done
Starting the Coulomb interaction                   ... done (   0.0 sec)
Making the grid                                    ... done (   0.0 sec)
Mapping shells                                     ... done
Starting the XC term evaluation                    ... done (   0.0 sec)
  promolecular density results
     # of electrons  =     29.996285088
     EX+EC           =    -18.981863996
Transforming the Hamiltonian                       ... done (   0.0 sec)
Diagonalizing the Hamiltonian                      ... done (   0.0 sec)
Back transforming the eigenvectors                 ... done (   0.0 sec)
Now organizing SCF variables                       ... done
                      ------------------
                      INITIAL GUESS DONE (   0.1 sec)
                      ------------------
             **** ENERGY FILE WAS UPDATED (/cluster/projects/nn14654k/ylvaos/basis_set_n_funcs/functionals/hyb_gga_xc_b97/C4H6/inp/C4H6_hyb_gga_xc_b97_def2qzvp.en.tmp) ****
Finished Guess after   0.3 sec
Maximum memory used throughout the entire GUESS-calculation: 24.0 MB


           ************************************************************
           *        Program running with 8 parallel MPI-processes     *
           *              working on a common directory               *
           ************************************************************

-------------------------------------------------------------------------------------------
                                      ORCA LEAN-SCF
                              memory conserving SCF solver
-------------------------------------------------------------------------------------------

----------------------------------------D-I-I-S--------------------------------------------
Iteration    Energy (Eh)           Delta-E    RMSDP     MaxDP     DIISErr   Damp  Time(sec)
-------------------------------------------------------------------------------------------
               ***  Starting incremental Fock matrix formation  ***
    1    -155.9349684696689451     0.00e+00  7.37e-04  1.27e-02  3.21e-01  0.700   5.6
    2    -155.9499746980534951    -1.50e-02  5.70e-04  9.99e-03  2.19e-01  0.700   5.2
                               ***Turning on AO-DIIS***
    3    -155.9581137728529825    -8.14e-03  2.97e-04  7.17e-03  1.51e-01  0.700   5.1
    4    -155.9630991792417376    -4.99e-03  1.95e-04  4.72e-03  1.04e-01  0.700   5.0
    5    -155.9665091462686632    -3.41e-03  1.38e-04  3.19e-03  7.18e-02  0.700   4.9
    6    -155.9689176736099512    -2.41e-03  3.41e-04  7.31e-03  5.02e-02  0.000   4.9
                              *** Initializing SOSCF ***
---------------------------------------S-O-S-C-F--------------------------------------
Iteration    Energy (Eh)           Delta-E    RMSDP     MaxDP     MaxGrad    Time(sec)
--------------------------------------------------------------------------------------
    7    -155.9744437937607131    -5.53e-03  1.38e-05  3.00e-04  6.86e-04     5.0
               *** Restarting incremental Fock matrix formation ***
    8    -155.9744445853727939    -7.92e-07  8.64e-06  1.33e-04  8.28e-05     5.4
    9    -155.9744445160960709     6.93e-08  3.78e-06  1.02e-04  1.15e-04     4.1
   10    -155.9744447308783037    -2.15e-07  1.54e-06  3.28e-05  2.33e-05     3.8
   11    -155.9744447212494265     9.63e-09  9.70e-07  1.65e-05  2.87e-05     3.6
                 **** Energy Check signals convergence ****

               *****************************************************
               *                     SUCCESS                       *
               *           SCF CONVERGED AFTER  11 CYCLES          *
               *****************************************************

             **** ENERGY FILE WAS UPDATED (/cluster/projects/nn14654k/ylvaos/basis_set_n_funcs/functionals/hyb_gga_xc_b97/C4H6/inp/C4H6_hyb_gga_xc_b97_def2qzvp.en.tmp) ****

----------------
TOTAL SCF ENERGY
----------------

Total Energy       :       -155.97444473757412 Eh           -4244.28042 eV

Components:
Nuclear Repulsion  :        109.24934557835338 Eh            2972.82583 eV
Electronic Energy  :       -265.22379031592749 Eh           -7217.10625 eV
One Electron Energy:       -424.40103581739032 Eh          -11548.53930 eV
Two Electron Energy:        159.17724550146283 Eh            4331.43306 eV

Virial components:
Potential Energy   :       -311.11976438639113 Eh           -8465.99919 eV
Kinetic Energy     :        155.14531964881701 Eh            4221.71878 eV
Virial Ratio       :          2.00534418370231

DFT components:
N(Alpha)           :       14.999996021818 electrons
N(Beta)            :       14.999996021818 electrons
N(Total)           :       29.999992043635 electrons
E(XC)              :      -19.434547232491 Eh       

---------------
SCF CONVERGENCE
---------------

  Last Energy change         ...   -9.6289e-09  Tolerance :   1.0000e-08
  Last MAX-Density change    ...    1.6480e-05  Tolerance :   1.0000e-07
  Last RMS-Density change    ...    9.6957e-07  Tolerance :   5.0000e-09
  Last DIIS Error            ...    6.8616e-04  Tolerance :   5.0000e-07
  Last Orbital Gradient      ...    2.8650e-05  Tolerance :   1.0000e-05
  Last Orbital Rotation      ...    3.5430e-05  Tolerance :   1.0000e-05


----------------
ORBITAL ENERGIES
----------------

  NO   OCC          E(Eh)            E(eV) 
   0   2.0000     -10.176079      -276.9052 
   1   2.0000     -10.171952      -276.7929 
   2   2.0000     -10.171761      -276.7877 
   3   2.0000     -10.157014      -276.3864 
   4   2.0000      -0.866923       -23.5902 
   5   2.0000      -0.713625       -19.4187 
   6   2.0000      -0.613749       -16.7009 
   7   2.0000      -0.533245       -14.5103 
   8   2.0000      -0.477794       -13.0014 
   9   2.0000      -0.468906       -12.7596 
  10   2.0000      -0.425792       -11.5864 
  11   2.0000      -0.372656       -10.1405 
  12   2.0000      -0.313874        -8.5409 
  13   2.0000      -0.293547        -7.9878 
  14   2.0000      -0.256997        -6.9932 
  15   0.0000      -0.006256        -0.1702 
  16   0.0000       0.031839         0.8664 
  17   0.0000       0.049829         1.3559 
  18   0.0000       0.058706         1.5975 
  19   0.0000       0.086161         2.3446 
  20   0.0000       0.086933         2.3656 
  21   0.0000       0.092836         2.5262 
  22   0.0000       0.116629         3.1736 
  23   0.0000       0.120857         3.2887 
  24   0.0000       0.134855         3.6696 
  25   0.0000       0.159270         4.3339 
*Only the first 10 virtual orbitals were printed.

                    ********************************
                    * MULLIKEN POPULATION ANALYSIS *
                    ********************************

-----------------------
MULLIKEN ATOMIC CHARGES
-----------------------
   0 C :   -0.273013
   1 C :    0.134857
   2 C :   -0.176693
   3 C :   -0.176694
   4 H :    0.085399
   5 H :    0.085399
   6 H :    0.080186
   7 H :    0.080187
   8 H :    0.080186
   9 H :    0.080187
Sum of atomic charges:   -0.0000000

--------------------------------
MULLIKEN REDUCED ORBITAL CHARGES
--------------------------------
  0 C s       :     3.396160  s :     3.396160
      pz      :     0.850004  p :     2.793637
      px      :     0.989009
      py      :     0.954624
      dz2     :     0.003340  d :     0.075099
      dxz     :     0.013265
      dyz     :     0.053471
      dx2y2   :     0.004988
      dxy     :     0.000034
      f0      :     0.000843  f :     0.007708
      f+1     :     0.001946
      f-1     :     0.004681
      f+2     :     0.000505
      f-2     :     0.000060
      f+3     :    -0.000052
      f-3     :    -0.000277
      g0      :     0.000073  g :     0.000410
      g+1     :     0.000150
      g-1     :     0.000224
      g+2     :     0.000017
      g-2     :    -0.000001
      g+3     :    -0.000009
      g-3     :    -0.000055
      g+4     :     0.000011
      g-4     :    -0.000000

  1 C s       :     3.249665  s :     3.249665
      pz      :     0.641707  p :     2.452458
      px      :     0.918566
      py      :     0.892184
      dz2     :     0.032028  d :     0.143640
      dxz     :     0.044396
      dyz     :     0.046161
      dx2y2   :     0.010091
      dxy     :     0.010964
      f0      :     0.006599  f :     0.017916
      f+1     :     0.003776
      f-1     :     0.002147
      f+2     :     0.002449
      f-2     :     0.002700
      f+3     :     0.000263
      f-3     :    -0.000018
      g0      :     0.000459  g :     0.001464
      g+1     :     0.000252
      g-1     :     0.000308
      g+2     :     0.000204
      g-2     :     0.000163
      g+3     :     0.000047
      g-3     :     0.000022
      g+4     :     0.000006
      g-4     :     0.000001

  2 C s       :     3.347823  s :     3.347823
      pz      :     0.965132  p :     2.735656
      px      :     0.923992
      py      :     0.846531
      dz2     :     0.018624  d :     0.079489
      dxz     :     0.014380
      dyz     :     0.019305
      dx2y2   :     0.010422
      dxy     :     0.016757
      f0      :     0.003860  f :     0.013009
      f+1     :     0.001370
      f-1     :     0.000846
      f+2     :     0.002229
      f-2     :     0.001080
      f+3     :     0.002328
      f-3     :     0.001296
      g0      :     0.000084  g :     0.000717
      g+1     :     0.000008
      g-1     :     0.000221
      g+2     :     0.000066
      g-2     :     0.000066
      g+3     :     0.000029
      g-3     :     0.000137
      g+4     :     0.000090
      g-4     :     0.000016

  3 C s       :     3.347824  s :     3.347824
      pz      :     0.965132  p :     2.735656
      px      :     0.923992
      py      :     0.846531
      dz2     :     0.018624  d :     0.079489
      dxz     :     0.014380
      dyz     :     0.019305
      dx2y2   :     0.010422
      dxy     :     0.016757
      f0      :     0.003860  f :     0.013009
      f+1     :     0.001370
      f-1     :     0.000846
      f+2     :     0.002229
      f-2     :     0.001080
      f+3     :     0.002328
      f-3     :     0.001296
      g0      :     0.000084  g :     0.000717
      g+1     :     0.000008
      g-1     :     0.000221
      g+2     :     0.000066
      g-2     :     0.000066
      g+3     :     0.000029
      g-3     :     0.000137
      g+4     :     0.000090
      g-4     :     0.000016

  4 H s       :     0.875701  s :     0.875701
      pz      :     0.007944  p :     0.034485
      px      :     0.017998
      py      :     0.008543
      dz2     :     0.001140  d :     0.004212
      dxz     :     0.000959
      dyz     :     0.000227
      dx2y2   :     0.000317
      dxy     :     0.001569
      f0      :     0.000006  f :     0.000202
      f+1     :     0.000005
      f-1     :     0.000066
      f+2     :    -0.000018
      f-2     :     0.000076
      f+3     :     0.000060
      f-3     :     0.000006

  5 H s       :     0.875702  s :     0.875702
      pz      :     0.007944  p :     0.034485
      px      :     0.017998
      py      :     0.008543
      dz2     :     0.001140  d :     0.004212
      dxz     :     0.000959
      dyz     :     0.000227
      dx2y2   :     0.000317
      dxy     :     0.001569
      f0      :     0.000006  f :     0.000202
      f+1     :     0.000005
      f-1     :     0.000066
      f+2     :    -0.000018
      f-2     :     0.000076
      f+3     :     0.000060
      f-3     :     0.000006

  6 H s       :     0.878757  s :     0.878757
      pz      :     0.015638  p :     0.036527
      px      :     0.006896
      py      :     0.013993
      dz2     :     0.000583  d :     0.004334
      dxz     :     0.001211
      dyz     :     0.000593
      dx2y2   :     0.001383
      dxy     :     0.000564
      f0      :     0.000015  f :     0.000195
      f+1     :     0.000038
      f-1     :     0.000029
      f+2     :     0.000021
      f-2     :     0.000024
      f+3     :     0.000077
      f-3     :    -0.000008

  7 H s       :     0.878757  s :     0.878757
      pz      :     0.015638  p :     0.036527
      px      :     0.006896
      py      :     0.013993
      dz2     :     0.000583  d :     0.004334
      dxz     :     0.001211
      dyz     :     0.000593
      dx2y2   :     0.001383
      dxy     :     0.000564
      f0      :     0.000015  f :     0.000195
      f+1     :     0.000038
      f-1     :     0.000029
      f+2     :     0.000021
      f-2     :     0.000024
      f+3     :     0.000077
      f-3     :    -0.000008

  8 H s       :     0.878757  s :     0.878757
      pz      :     0.015638  p :     0.036527
      px      :     0.006896
      py      :     0.013993
      dz2     :     0.000583  d :     0.004334
      dxz     :     0.001211
      dyz     :     0.000593
      dx2y2   :     0.001383
      dxy     :     0.000564
      f0      :     0.000015  f :     0.000195
      f+1     :     0.000038
      f-1     :     0.000029
      f+2     :     0.000021
      f-2     :     0.000024
      f+3     :     0.000077
      f-3     :    -0.000008

  9 H s       :     0.878757  s :     0.878757
      pz      :     0.015638  p :     0.036527
      px      :     0.006896
      py      :     0.013993
      dz2     :     0.000583  d :     0.004334
      dxz     :     0.001211
      dyz     :     0.000593
      dx2y2   :     0.001383
      dxy     :     0.000564
      f0      :     0.000015  f :     0.000195
      f+1     :     0.000038
      f-1     :     0.000029
      f+2     :     0.000021
      f-2     :     0.000024
      f+3     :     0.000077
      f-3     :    -0.000008



                     *******************************
                     * LOEWDIN POPULATION ANALYSIS *
                     *******************************

----------------------
LOEWDIN ATOMIC CHARGES
----------------------
   0 C :    0.191350
   1 C :   -0.112301
   2 C :    0.166523
   3 C :    0.166523
   4 H :   -0.086576
   5 H :   -0.086576
   6 H :   -0.059735
   7 H :   -0.059735
   8 H :   -0.059735
   9 H :   -0.059735

-------------------------------
LOEWDIN REDUCED ORBITAL CHARGES
-------------------------------
  0 C s       :     2.628433  s :     2.628433
      pz      :     1.011202  p :     2.785519
      px      :     0.815674
      py      :     0.958643
      dz2     :     0.077814  d :     0.322147
      dxz     :     0.044344
      dyz     :     0.178265
      dx2y2   :     0.021547
      dxy     :     0.000176
      f0      :     0.014137  f :     0.064010
      f+1     :     0.013449
      f-1     :     0.026905
      f+2     :     0.005825
      f-2     :     0.000140
      f+3     :     0.000931
      f-3     :     0.002624
      g0      :     0.002330  g :     0.008542
      g+1     :     0.001780
      g-1     :     0.003115
      g+2     :     0.000092
      g-2     :     0.000005
      g+3     :     0.000174
      g-3     :     0.000763
      g+4     :     0.000284
      g-4     :     0.000000

  1 C s       :     2.595672  s :     2.595672
      pz      :     1.055184  p :     2.682091
      px      :     0.753153
      py      :     0.873754
      dz2     :     0.206086  d :     0.671722
      dxz     :     0.168288
      dyz     :     0.214982
      dx2y2   :     0.036317
      dxy     :     0.046049
      f0      :     0.049519  f :     0.144523
      f+1     :     0.018376
      f-1     :     0.035257
      f+2     :     0.014736
      f-2     :     0.022241
      f+3     :     0.003626
      f-3     :     0.000767
      g0      :     0.005982  g :     0.018294
      g+1     :     0.002833
      g-1     :     0.004652
      g+2     :     0.001444
      g-2     :     0.001948
      g+3     :     0.000915
      g-3     :     0.000373
      g+4     :     0.000061
      g-4     :     0.000085

  2 C s       :     2.554633  s :     2.554633
      pz      :     0.885098  p :     2.689036
      px      :     0.941803
      py      :     0.862135
      dz2     :     0.086831  d :     0.470354
      dxz     :     0.059983
      dyz     :     0.115160
      dx2y2   :     0.072599
      dxy     :     0.135782
      f0      :     0.026906  f :     0.110807
      f+1     :     0.010615
      f-1     :     0.010585
      f+2     :     0.025477
      f-2     :     0.008901
      f+3     :     0.014301
      f-3     :     0.014022
      g0      :     0.000889  g :     0.008647
      g+1     :     0.000529
      g-1     :     0.002524
      g+2     :     0.000813
      g-2     :     0.000885
      g+3     :     0.000286
      g-3     :     0.001370
      g+4     :     0.000389
      g-4     :     0.000961

  3 C s       :     2.554633  s :     2.554633
      pz      :     0.885098  p :     2.689036
      px      :     0.941803
      py      :     0.862135
      dz2     :     0.086831  d :     0.470354
      dxz     :     0.059983
      dyz     :     0.115160
      dx2y2   :     0.072599
      dxy     :     0.135782
      f0      :     0.026906  f :     0.110807
      f+1     :     0.010615
      f-1     :     0.010585
      f+2     :     0.025477
      f-2     :     0.008901
      f+3     :     0.014301
      f-3     :     0.014022
      g0      :     0.000889  g :     0.008647
      g+1     :     0.000529
      g-1     :     0.002524
      g+2     :     0.000813
      g-2     :     0.000885
      g+3     :     0.000286
      g-3     :     0.001370
      g+4     :     0.000389
      g-4     :     0.000961

  4 H s       :     0.814290  s :     0.814290
      pz      :     0.057489  p :     0.199731
      px      :     0.058340
      py      :     0.083902
      dz2     :     0.014850  d :     0.063485
      dxz     :     0.007641
      dyz     :     0.015712
      dx2y2   :     0.011629
      dxy     :     0.013653
      f0      :     0.000765  f :     0.009070
      f+1     :     0.000087
      f-1     :     0.002885
      f+2     :     0.001543
      f-2     :     0.001604
      f+3     :     0.001162
      f-3     :     0.001023

  5 H s       :     0.814290  s :     0.814290
      pz      :     0.057489  p :     0.199731
      px      :     0.058340
      py      :     0.083902
      dz2     :     0.014850  d :     0.063485
      dxz     :     0.007641
      dyz     :     0.015712
      dx2y2   :     0.011629
      dxy     :     0.013653
      f0      :     0.000765  f :     0.009070
      f+1     :     0.000087
      f-1     :     0.002885
      f+2     :     0.001543
      f-2     :     0.001604
      f+3     :     0.001162
      f-3     :     0.001023

  6 H s       :     0.792895  s :     0.792895
      pz      :     0.059489  p :     0.192885
      px      :     0.079801
      py      :     0.053596
      dz2     :     0.008675  d :     0.064652
      dxz     :     0.015376
      dyz     :     0.006749
      dx2y2   :     0.019043
      dxy     :     0.014809
      f0      :     0.000789  f :     0.009303
      f+1     :     0.001448
      f-1     :     0.000676
      f+2     :     0.000637
      f-2     :     0.001550
      f+3     :     0.002613
      f-3     :     0.001591

  7 H s       :     0.792895  s :     0.792895
      pz      :     0.059489  p :     0.192885
      px      :     0.079801
      py      :     0.053596
      dz2     :     0.008675  d :     0.064652
      dxz     :     0.015376
      dyz     :     0.006749
      dx2y2   :     0.019043
      dxy     :     0.014809
      f0      :     0.000789  f :     0.009303
      f+1     :     0.001448
      f-1     :     0.000676
      f+2     :     0.000637
      f-2     :     0.001550
      f+3     :     0.002613
      f-3     :     0.001591

  8 H s       :     0.792895  s :     0.792895
      pz      :     0.059489  p :     0.192885
      px      :     0.079801
      py      :     0.053596
      dz2     :     0.008675  d :     0.064652
      dxz     :     0.015376
      dyz     :     0.006749
      dx2y2   :     0.019043
      dxy     :     0.014809
      f0      :     0.000789  f :     0.009303
      f+1     :     0.001448
      f-1     :     0.000676
      f+2     :     0.000637
      f-2     :     0.001550
      f+3     :     0.002613
      f-3     :     0.001591

  9 H s       :     0.792895  s :     0.792895
      pz      :     0.059489  p :     0.192885
      px      :     0.079801
      py      :     0.053596
      dz2     :     0.008675  d :     0.064652
      dxz     :     0.015376
      dyz     :     0.006749
      dx2y2   :     0.019043
      dxy     :     0.014809
      f0      :     0.000789  f :     0.009303
      f+1     :     0.001448
      f-1     :     0.000676
      f+2     :     0.000637
      f-2     :     0.001550
      f+3     :     0.002613
      f-3     :     0.001591



                      *****************************
                      * MAYER POPULATION ANALYSIS *
                      *****************************

  NA   - Mulliken gross atomic population
  ZA   - Total nuclear charge
  QA   - Mulliken gross atomic charge
  VA   - Mayer's total valence
  BVA  - Mayer's bonded valence
  FA   - Mayer's free valence

  ATOM       NA         ZA         QA         VA         BVA        FA
  0 C      6.2730     6.0000    -0.2730     3.8169     3.8169    -0.0000
  1 C      5.8651     6.0000     0.1349     3.6272     3.6272    -0.0000
  2 C      6.1767     6.0000    -0.1767     3.7950     3.7950     0.0000
  3 C      6.1767     6.0000    -0.1767     3.7950     3.7950     0.0000
  4 H      0.9146     1.0000     0.0854     1.0043     1.0043    -0.0000
  5 H      0.9146     1.0000     0.0854     1.0043     1.0043    -0.0000
  6 H      0.9198     1.0000     0.0802     1.0041     1.0041    -0.0000
  7 H      0.9198     1.0000     0.0802     1.0041     1.0041     0.0000
  8 H      0.9198     1.0000     0.0802     1.0041     1.0041    -0.0000
  9 H      0.9198     1.0000     0.0802     1.0041     1.0041     0.0000

  Mayer bond orders larger than 0.100000
B(  0-C ,  1-C ) :   1.7612 B(  0-C ,  4-H ) :   0.9650 B(  0-C ,  5-H ) :   0.9650 
B(  1-C ,  2-C ) :   0.9116 B(  1-C ,  3-C ) :   0.9116 B(  2-C ,  3-C ) :   0.8945 
B(  2-C ,  6-H ) :   0.9536 B(  2-C ,  7-H ) :   0.9536 B(  3-C ,  8-H ) :   0.9536 
B(  3-C ,  9-H ) :   0.9536 

-------
TIMINGS
-------

Total SCF time: 0 days 0 hours 0 min 56 sec 

Total time                  ....      56.254 sec
Sum of individual times     ....      52.797 sec  ( 93.9%)

SCF preparation             ....       0.110 sec  (  0.2%)
Fock matrix formation       ....      52.061 sec  ( 92.5%)
  Startup                   ....       0.014 sec  (  0.0% of F)
  Coulomb+Exchange Fock     ....      54.105 sec  (103.9% of F)
  XC integration            ....       1.215 sec  (  2.3% of F)
    Basis function eval.    ....       0.175 sec  ( 14.4% of XC)
    Density eval.           ....       0.218 sec  ( 18.0% of XC)
    XC-Functional eval.     ....       0.041 sec  (  3.4% of XC)
    XC-Potential eval.      ....       0.556 sec  ( 45.7% of XC)
Diagonalization             ....       0.000 sec  (  0.0%)
Density matrix formation    ....       0.067 sec  (  0.1%)
Total Energy calculation    ....       0.025 sec  (  0.0%)
Population analysis         ....       0.024 sec  (  0.0%)
Orbital Transformation      ....       0.056 sec  (  0.1%)
Orbital Orthonormalization  ....       0.000 sec  (  0.0%)
DIIS solution               ....       0.338 sec  (  0.6%)
SOSCF solution              ....       0.116 sec  (  0.2%)
Finished LeanSCF after  56.3 sec

Maximum memory used throughout the entire LEANSCF-calculation: 39.3 MB


           ************************************************************
           *        Program running with 8 parallel MPI-processes     *
           *              working on a common directory               *
           ************************************************************

------------------------------------------------------------------------------
                         ORCA PROPERTY INTEGRAL CALCULATIONS
------------------------------------------------------------------------------

GBWName                                   ... /cluster/projects/nn14654k/ylvaos/basis_set_n_funcs/functionals/hyb_gga_xc_b97/C4H6/inp/C4H6_hyb_gga_xc_b97_def2qzvp.gbw
Number of atoms                           ...     10
Number of basis functions                 ...    408
Max core memory                           ...   4096 MB

Dipole integrals                          ... YES
Quadrupole integrals                      ... YES
Linear momentum integrals                 ...  NO
Angular momentum integrals                ...  NO
Higher moments length integrals           ...  NO
Higher moments velocity integrals         ...  NO
Kinetic energy integrals                  ...  NO
GIAO right hand sides                     ...  NO
GIAO dipole derivative integrals          ...  NO
SOC integrals                             ...  NO
EPR diamagnetic integrals (GIAO)          ...  NO
EPR gauge integrals                       ...  NO
Field gradient integrals                  ...  NO (   0 nuclei)
Spin-dipole/Fermi contact integrals       ...  NO (   0 nuclei)
Contact density integrals                 ...  NO (   0 nuclei)
Nucleus-orbit integrals                   ...  NO (   0 nuclei)
Geometric perturbations                   ...  NO (  10 nuclei)

Choice of electric origin   ... Center of mass
Position of electric origin ... (  0.0000,  0.0000,  0.0124) 
Choice of magnetic origin   ... GIAO
Position of magnetic origin ... (  0.0000,  0.0000,  0.0000) 

Calculating integrals                     ... Electric Dipole (Length)     done (  0.0 sec)
Calculating integrals                     ... Electric Quadrupole (Length) done (  0.0 sec)

Property integrals calculated in   0.0 sec

Maximum memory used throughout the entire PROPINT-calculation: 27.1 MB
------------------------------------------------------------------------------
                           ORCA ORBITAL LOCALIZATION
------------------------------------------------------------------------------

Input orbitals are from                  ... /cluster/projects/nn14654k/ylvaos/basis_set_n_funcs/functionals/hyb_gga_xc_b97/C4H6/inp/C4H6_hyb_gga_xc_b97_def2qzvp.gbw
Output orbitals are to                   ... /cluster/projects/nn14654k/ylvaos/basis_set_n_funcs/functionals/hyb_gga_xc_b97/C4H6/inp/C4H6_hyb_gga_xc_b97_def2qzvp.loc
Max. number of iterations                ... 128
Localizations seeded randomly            ... on
Convergence tolerance                    ... 1.000e-06
Threshold for strong local MOs           ... 9.500e-01
Threshold for bond MOs                   ... 8.500e-01
Operator                                 ... 0
Orbital range for localization           ... 4 to 14
Localization criterion                   ... NEW-BOYS
Doing the dipole integrals               ... o.k.
Initial value of the localization sum :    55.698615
ITERATION   0 : L=   81.9907031134 DL=  2.63e+01 (AVERGE_DL)=    0.6914028967 
ITERATION   1 : L=   86.4874417938 DL=  4.50e+00 (AVERGE_DL)=    0.2859351064 
ITERATION   2 : L=   86.5955401634 DL=  1.08e-01 (AVERGE_DL)=    0.0443331129 
ITERATION   3 : L=   86.5959354807 DL=  3.95e-04 (AVERGE_DL)=    0.0026809674 
ITERATION   4 : L=   86.5959374543 DL=  1.97e-06 (AVERGE_DL)=    0.0001894316 
ITERATION   5 : L=   86.5959374637 DL=  9.32e-09 (AVERGE_DL)=    0.0000130143 
LOCALIZATION SUM CONVERGED


--------------------------------------------------------------------------------
                    LOCALIZED MOLECULAR ORBITAL COMPOSITIONS
--------------------------------------------------------------------------------

The Mulliken populations for each LMO on each atom are computed
The LMO`s will be ordered according to atom index and type
  (A) Strongly localized MO`s have populations of >=0.950 on one atom
  (B) Two center bond orbitals have populations of >=0.850 on two atoms
  (C) Other MO`s are considered to be `delocalized`

FOUND  -   0 strongly local MO`s
       -  11 two center bond MO`s
       -   0 significantly delocalized MO`s

Bond-like localized orbitals:
MO  14:   9H  -   0.473925  and   3C  -   0.550621
MO  13:   8H  -   0.473925  and   3C  -   0.550621
MO  12:   7H  -   0.473925  and   2C  -   0.550621
MO  11:   6H  -   0.473925  and   2C  -   0.550621
MO  10:   5H  -   0.469228  and   0C  -   0.558659
MO   9:   4H  -   0.469227  and   0C  -   0.558660
MO   8:   3C  -   0.514948  and   2C  -   0.514947
MO   7:   3C  -   0.523754  and   1C  -   0.518215
MO   6:   2C  -   0.523755  and   1C  -   0.518215
MO   5:   1C  -   0.500906  and   0C  -   0.512064
MO   4:   1C  -   0.500907  and   0C  -   0.512064
Localized MO's were stored in: /cluster/projects/nn14654k/ylvaos/basis_set_n_funcs/functionals/hyb_gga_xc_b97/C4H6/inp/C4H6_hyb_gga_xc_b97_def2qzvp.loc

-------------------------   --------------------
FINAL SINGLE POINT ENERGY      -155.974444737574
-------------------------   --------------------



           ************************************************************
           *        Program running with 8 parallel MPI-processes     *
           *              working on a common directory               *
           ************************************************************

------------------------------------------------------------------------------
                              ORCA PROPERTY CALCULATIONS
------------------------------------------------------------------------------

GBWName                                 ... /cluster/projects/nn14654k/ylvaos/basis_set_n_funcs/functionals/hyb_gga_xc_b97/C4H6/inp/C4H6_hyb_gga_xc_b97_def2qzvp.gbw
Number of atoms                         ...     10
Number of basis functions               ...    408
Max core memory                         ...   4096 MB

Electric properties:
Dipole moment                           ... YES
Quadrupole moment                       ... YES
Static polarizability (Dipole/Dipole)   ...  NO
Static polarizability (Dipole/Quad.)    ...  NO
Static polarizability (Quad./Quad.)     ...  NO
Static polarizability (Velocity)        ...  NO
Static hyperpolarizability              ...  NO

Atomic electric properties:
Dipole moment                           ...  NO
Quadrupole moment                       ...  NO
Static polarizability                   ...  NO

Choice of electric origin               ... Center of mass
Position of electric origin             ...     0.000000     0.000000     0.012360

General magnetic properties:
Magnetizability                         ...  NO

EPR properties:
g-Tensor (aka g-matrix)                 ...  NO
Zero-Field splitting spin-orbit         ...  NO
Zero-field splitting spin-spin          ...  NO
Hyperfine couplings                     ...  NO (   0 nuclei)
Quadrupole couplings                    ...  NO (   0 nuclei)
Contact density                         ...  NO (   0 nuclei)

NMR properties:
Chemical shifts                         ...  NO (   0 nuclei)
Spin-rotation constants                 ...  NO (   0 nuclei)
Spin-spin couplings                     ...  NO (   0 nuclei,    0 pairs)

Choice of magnetic origin               ... GIAO
Position of magnetic origin             ...     0.000000     0.000000     0.000000

Properties with geometric perturbations:
SCF Hessian                             ...  NO
IR spectrum                             ...  NO
VCD spectrum                            ...  NO
X-ray spectroscopy properties:
SCF XES/XAS/RIXS spectra                ...  NO

SCF SOC stabilization energy            ...  NO
Diagonal Born-Oppenheimer correction    ...  NO

-------------
DIPOLE MOMENT
-------------

Method             : SCF
Type of density    : Electron Density
Multiplicity       :   1
Irrep              :   0
Energy             :  -155.9744447375741174 Eh
Basis              : AO
                                X                 Y                 Z
Electronic contribution:      0.000000001      -0.000000015       0.209118856
Nuclear contribution   :      0.000000000       0.000000000      -0.371559272
                        -----------------------------------------
Total Dipole Moment    :      0.000000001      -0.000000015      -0.162440416
                        -----------------------------------------
Magnitude (a.u.)       :      0.162440416
Magnitude (Debye)      :      0.412890724



--------------------
Rotational spectrum 
--------------------
 
Rotational constants in cm-1:             0.643527             0.230144             0.181788 
Rotational constants in MHz :         19292.450199          6899.535423          5449.866904 

Dipole components along the rotational axes: 
x,y,z [a.u.] :    -0.162440    -0.000000     0.000000 
x,y,z [Debye]:    -0.412891    -0.000000     0.000000 

 

Dipole moment calculation done in   0.0 sec 

-----------------
QUADRUPOLE MOMENT
-----------------

Method             : SCF
Type of density    : Electron Density
Multiplicity       :   1
Irrep              :   0
Energy             :  -155.9744447375741174 Eh
Basis              : AO

                XX              YY              ZZ              XY              XZ              YZ
  NUC       11.888664720    55.799971245   152.416444257     0.000000000     0.000000000     0.000000000
  EL       -30.950540301   -73.827889179  -171.074993731    -0.000000025     0.000000009    -0.000000015
  TOT      -19.061875581   -18.027917934   -18.658549474    -0.000000025     0.000000009    -0.000000015 (a.u.)
           -25.638874573   -24.248166177   -25.096387165    -0.000000033     0.000000012    -0.000000020 (Buckingham)

diagonalized tensor:
           -19.061875581   -18.658549474   -18.027917934 (a.u.)
           -25.638874573   -25.096387165   -24.248166177 (Buckingham)
            -1.933195805    -0.305733580     2.238929384 (traceless form in Buckingham)

            -1.000000000     0.000000022    -0.000000024
            -0.000000024     0.000000023     1.000000000
             0.000000022     1.000000000    -0.000000023
        
Isotropic quadrupole :   -18.582780997

Quadrupole moment calculation done in   0.0 sec (  0.0 sec for integrals)

Maximum memory used throughout the entire PROP-calculation: 23.6 MB

--------------------------------
SUGGESTED CITATIONS FOR THIS RUN
--------------------------------

Below you find a list of papers that are relevant to this ORCA run
We neither can nor want to force you to cite these papers, but we appreciate if you do
You receive ORCA, which is the product of decades of hard work by many enthusiastic individuals, for free
The only thing we kindly ask in return is that you cite our papers,
We deeply appreciate it, if you show your appreciation for ORCA by not just citing the generic ORCA reference.

Please note that relegating all ORCA citations to the supporting information does *not* help us.
SI sections are not indexed - citations you put there will not count into any citation statistics
But we need these citations in order to attract the funding resources that allow us to do what we are doing

Therefore, if you are a happy ORCA user, please consider citing a few of the papers listed below in the main body of your paper

In addition to the list printed below, the program has created the file /cluster/projects/nn14654k/ylvaos/basis_set_n_funcs/functionals/hyb_gga_xc_b97/C4H6/inp/C4H6_hyb_gga_xc_b97_def2qzvp.bibtex that contains the list in bibtex format
You can import this file easily into all common literature databanks and citation aid programs

It goes without saying that in many instances, there are alternative algorithms to achieve similar
results as the ones you have gotten from ORCA. It is, of course, also the case that in some instances
ORCA just re-implements algorithms worked out by others. We are fully aware of that and we are also
fully appreciative of our colleagues work. Hence this citation list should not be read as indicating
that the listed papers, which are focused on our own work, are the only ones worth citing. It simply
meant to make it easier for users to cite ORCA specific papers. It is not a substitute for doing your
own literature research and citing the relevant literature in a scientifically appropriate manner.

List of essential papers. We consider these as the minimum necessary citations

  1. Neese, F.
     Software update: the ORCA program system, version 6.0
     WIRES Comput. Molec. Sci. 2025 15(1), e70019
     doi.org/10.1002/wcms.70019

List of papers to cite with high priority. The work reported in these papers was absolutely
necessary for this run to complete.
Our perspective: the developers of density functionals and basis sets usually get cited in chemistry papers
Good! But without the algorithms to do something with them, the functionals or basis sets would not do anything.
Hence, in our opinion, the algorithm design and method developments papers are equally worthy of getting cited

  1. Lehtola, S.; Steigemann, C.; Oliveira, M.; Marques, M.
     Recent developments in Libxc - A comprehensive library of functionals for density functional theory
     Software X 2018 7 , 
     doi.org/10.1016/j.softx.2017.11.002
  2. Neese, F.
     The SHARK Integral Generation and Digestion System
     J. Comp. Chem. 2022 44(3), 381
     doi.org/10.1002/jcc.26942

List of suggested additional citations. These are papers that are important in the 'surrounding' of 
of this run, or papers that preceded the highly important papers. If you like your results we are grateful for a citation.

  1. Neese, F.
     The ORCA program system
     WIRES Comput. Molec. Sci. 2012 2(1), 73-78
     doi.org/10.1002/wcms.81
  2. Neese, F.
     Software update: the ORCA program system, version 4.0
     WIRES Comput. Molec. Sci. 2018 8(1), 1-6
     doi.org/10.1002/wcms.1327
  3. Neese, F.; Wennmohs, F.; Becker, U.; Riplinger, C.
     The ORCA quantum chemistry program package
     J. Chem. Phys. 2020 152(22), 224108
     doi.org/10.1063/5.0004608
  4. Neese, F.
     Software update: The ORCA program system—Version 5.0
     WIRES Comput. Molec. Sci. 2022 12(1), e1606
     doi.org/10.1002/wcms.1606

List of optional additional citations

  1. Neese, F.
     Approximate second-order SCF convergence for spin unrestricted wavefunctions
     Chem. Phys. Lett. 2000 325(1-3), 93-98
     doi.org/10.1016/s0009-2614(00)00662-x

Timings for individual modules:

Sum of individual times          ...       59.358 sec (=   0.989 min)
Startup calculation              ...        1.638 sec (=   0.027 min)   2.8 %
SCF iterations                   ...       57.180 sec (=   0.953 min)  96.3 %
Property integrals               ...        0.264 sec (=   0.004 min)   0.4 %
Property calculations            ...        0.265 sec (=   0.004 min)   0.4 %
Orbital localization             ...        0.011 sec (=   0.000 min)   0.0 %
                             ****ORCA TERMINATED NORMALLY****
TOTAL RUN TIME: 0 days 0 hours 1 minutes 0 seconds 31 msec
