
                                 *****************
                                 * O   R   C   A *
                                 *****************

                                            #,                                       
                                            ###                                      
                                            ####                                     
                                            #####                                    
                                            ######                                   
                                           ########,                                 
                                     ,,################,,,,,                         
                               ,,#################################,,                 
                          ,,##########################################,,             
                       ,#########################################, ''#####,          
                    ,#############################################,,   '####,        
                  ,##################################################,,,,####,       
                ,###########''''           ''''###############################       
              ,#####''   ,,,,##########,,,,          '''####'''          '####       
            ,##' ,,,,###########################,,,                        '##       
           ' ,,###''''                  '''############,,,                           
         ,,##''                                '''############,,,,        ,,,,,,###''
      ,#''                                            '''#######################'''  
     '                                                          ''''####''''         
             ,#######,   #######,   ,#######,      ##                                
            ,#'     '#,  ##    ##  ,#'     '#,    #''#        ,####,    ,#,          
            ##       ##  ##   ,#'  ##            #'  '#       #'       ,# #          
            ##       ##  #######   ##           ,######,      #####,      #          
            '#,     ,#'  ##    ##  '#,     ,#' ,#      #,     #,   #      #          
             '#######'   ##     ##  '#######'  #'      '#     '####' #    #          



                #########################################################
                #                        -***-                          #
                #          Department of theory and spectroscopy        #
                #                                                       #
                #                      Frank Neese                      #
                #                                                       #
                #     Directorship, Architecture, Infrastructure        #
                #                    SHARK, DRIVERS                     #
                #        Core code/Algorithms in most modules           #
                #                                                       #
                #        Max Planck Institute fuer Kohlenforschung      #
                #                Kaiser Wilhelm Platz 1                 #
                #                 D-45470 Muelheim/Ruhr                 #
                #                      Germany                          #
                #                                                       #
                #                  All rights reserved                  #
                #                        -***-                          #
                #########################################################


                         Program Version 6.1.1  -  RELEASE   -
                                (GIT: $487d211c$)
                          ($2025-11-21 10:33:24 +0100$)


 With contributions from (in alphabetic order):
[Max-Planck-Institut fuer Kohlenforschung]                               
  Daniel Aravena         : Magnetic Suceptibility                        
  Michael Atanasov       : Ab Initio Ligand Field Theory (pilot matlab implementation)
  Alexander A. Auer      : GIAO ZORA, VPT2 properties, NMR spectrum      
  Ute Becker             : All parallelization in ORCA, NUMFREQ, NUMCALC 
  Giovanni Bistoni       : ED, misc. LED, open-shell LED, HFLD           
  Dmytro Bykov           : pre 5.0 version of the SCF Hessian            
  Marcos Casanova-Páez   : Triplet and SCS-CIS(D). UHF-(DLPNO)-IP/EA/STEOM-CCSD. UHF-CVS-IP/STEOM-CCSD   
  Vijay G. Chilkuri      : MRCI spin determinant printing, contributions to CSF-ICE 
  Pauline Colinet        : FMM embedding                                 
  Dipayan Datta          : RHF DLPNO-CCSD density                        
  Achintya Kumar Dutta   : EOM-CC, STEOM-CC                              
  Nicolas Foglia         : Exact transition moments, OPA infrastructure, MCD improvements    
  Dmitry Ganyushin       : Spin-Orbit,Spin-Spin,Magnetic field MRCI      
  Miquel Garcia-Rates    : C-PCM and meta-GGA Hessian, CCSD/C-PCM, Gaussian charge scheme 
  Tiago L. C. Gouveia    : GS-ROHF, GS-ROCIS                             
  Yang Guo               : DLPNO-NEVPT2, F12-NEVPT2, CIM, IAO-localization        
  Andreas Hansen         : Spin unrestricted coupled pair/coupled cluster methods 
  Ingolf Harden          : AUTO-CI MPn and infrastructure                
  Benjamin Helmich-Paris : MC-RPA, TRAH-(SCF,CASSCF), AVAS, COSX integrals, SCF dyn. polar., MC-PDFT, srDFT 
  Lee Huntington         : MR-EOM, pCC                                   
  Robert Izsak           : Overlap fitted RIJCOSX, COSX-SCS-MP3, EOM     
  Riya Kayal             : Wick's Theorem for AUTO-CI, AUTO-CI UHF-CCSDT 
  Emily Kempfer          : AUTO-CI RHF CISDT and CCSDT, approximate NEVPT4
  Christian Kollmar      : KDIIS, OOCD, Brueckner-CCSD(T), CCSD density, CASPT2, CASPT2-K, improved NEVPT2 
  Axel Koslowski         : Symmetry handling                             
  Simone Kossmann        : meta-GGA functionals, TD-DFT gradient, OOMP2, (MP2 Hessian; deprecated post 5.0) 
  Lucas Lang             : DCDCAS, Hyperfine gauge corrections, ICE-SOC+SSC
  Marvin Lechner         : AUTO-CI (C++ implementation), FIC-MRCC        
  Spencer Leger          : CASSCF response                               
  Dagmar Lenk            : GEPOL surface, SMD, ORCA-2-JSON               
  Dimitrios Liakos       : Extrapolation schemes; Compound Job, Property file
  Dimitrios Manganas     : Further ROCIS development; embedding schemes. LFT, Crystal Embedding 
  Dimitrios Pantazis     : SARC Basis sets                               
  Anastasios Papadopoulos: AUTO-CI, single reference methods and gradients 
  Taras Petrenko         : pre 6.0 DFT Hessian and TD-DFT gradient,  ECA, NRVS 
  Petra Pikulova         : Analytic Raman intensities                    
  Peter Pinski           : DLPNO-MP2, DLPNO-MP2 Gradient                 
  Shashank Vittal Rao    : ES-AILFT, MagRelax                            
  Christoph Reimann      : Effective Core Potentials                     
  Marius Retegan         : Local ZFS, SOC                                
  Christoph Riplinger    : Optimizer, TS searches, QM/MM, DLPNO-CCSD(T), (RO)-DLPNO pert. Triples 
  Michael Roemelt        : Original ROCIS implementation, recursive CI coupling coefficients
  Masaaki Saitow         : Open-shell DLPNO-CCSD energy and density      
  Barbara Sandhoefer     : DKH picture change effects                    
  Yorick L. A. Schmerwitz: GMF and freeze-and-release deltaSCF, NEB S-IDPP initial path                    
  Kantharuban Sivalingam : CASSCF convergence/infrastructure, NEVPT2, NEVPT3, NEVPT4(SD), FIC-MRCI and CEPA variants
  Bernardo de Souza      : ESD, SOC TD-DFT                               
  Georgi L. Stoychev     : AutoAux, RI-MP2 NMR, DLPNO-MP2 response, X2C  
  Van Anh Tran           : RI-MP2 g-tensors                              
  Willem Van den Heuvel  : Paramagnetic NMR                              
  Zikuan Wang            : NOTCH, Electric field optimization            
  Frank Wennmohs         : Technical directorship and infrastructure     
  Hang Xu                : AUTO-CI-Response properties                   
                                                                         
[FACCTs GmbH]                                                            
  Markus Bursch, Nicolas Foglia, Miquel Garcia-Rates, Ingolf Harden, Hagen Neugebauer, Anastasios Papadopoulos, 
  Christoph Riplinger, Bernardo de Souza, Georgi L. Stoychev                                                    
                                                                 
  APM, various basis sets, CI-OPT, improved COSX, DLPNO-Multilevel,           
  DOCKER, DRACO, updates on ESD, Fragmentator, GOAT, IRC, LR-CPCM, L-BFGS, MBIS, meta-GGA TD-DFT gradient, ML-optimized integration grids, 
  MM, NACMEs, nearIR, NEB, NEB-TS, NL-DFT gradient (VV10), 2- and 3-layer-ONIOM, interface openCOSMO-RS, QMMM,   
  Crystal-QMMM, RESP, rigid body optimization, SF, symmetry and pop. for TD-DFT, various functionals, SOLVATOR                                   
                                                                         
[Other institutions]                                                     
  V. Asgeirsson          : NEB                                           
  Christoph Bannwarth    : sTDA-DFT, sTD-DFT, PBEh-3c, B97-3c, D3        
  Giovanni Bistoni       : ETS/NOCV, ADLD/ADEX, COVALED                  
  Martin Brehm           : Molecular dynamics                            
  Ronald Cardenas        : ETS/NOCV                                      
  Martina Colucci        : COVALED                                       
  Sebastian Ehlert       : rSCAN, r2SCAN, r2SCAN-3c, D4, dhf basis sets  
  Marvin Friede          : D4 for Fr, Ra, Ac-Lr                          
  Lars Goerigk           : TD-DFT with DH, B97 family of functionals     
  Stefan Grimme          : VdW corrections, initial TS optimization, DFT functionals, gCP, sTDA/sTD-DF 
  Waldemar Hujo          : DFT-NL                                        
  H. Jonsson             : NEB                                           
  Holger Kruse           : gCP                                           
  Marcel Mueller         : wB97X-3c, vDZP basis set                      
  Hagen Neugebauer       : wr2SCAN, Native XTB                           
  Gianluca Regni         : ADLD/ADEX                                     
  Tobias Risthaus        : pre 6.0 range-separated hybrid DFT and stability analysis
  Lukas Wittmann         : regularized MP2, r2SCAN double-hybrids, wr2SCAN        
                                                                         
We gratefully acknowledge several colleagues who have allowed us to      
interface, adapt or use parts of their codes:                            
  Ed Valeev, F. Pavosevic, A. Kumar             : LibInt (2-el integral package), F12 methods 
  Garnet Chan, S. Sharma, J. Yang, R. Olivares  : DMRG                   
  Ulf Ekstrom                                   : XCFun DFT Library      
  Mihaly Kallay                                 : mrcc  (arbitrary order and MRCC methods)
  Frank Weinhold                                : gennbo (NPA and NBO analysis)           
  Simon Mueller                                 : openCOSMO-RS                            
  Christopher J. Cramer and Donald G. Truhlar   : smd solvation model                     
  S Lehtola, MJT Oliveira, MAL Marques          : LibXC Library                           
  Liviu Ungur et al                             : ANISO software                          


 Your calculation uses the libint2 library for the computation of 2-el integrals
 For citations please refer to: http://libint.valeyev.net

 Your ORCA version has been built with support for libXC version: 7.0.0
 For citations please refer to: https://libxc.gitlab.io

 This ORCA versions uses:
   CBLAS   interface :  Fast vector & matrix operations
   LAPACKE interface :  Fast linear algebra routines
   SCALAPACK package :  Parallel linear algebra routines
   Shared memory     :  Shared parallel matrices
   BLAS/LAPACK       :  OpenBLAS 0.3.29  USE64BITINT DYNAMIC_ARCH NO_AFFINITY Cooperlake SINGLE_THREADED
        Core in use  :  Cooperlake
   Copyright (c) 2011-2014, The OpenBLAS Project


  ***********************************
  * Starting time: Wed May 20 12:40:34 2026
  * Host name:     c1-13
  * Process ID:    2108828
  * Working dir.:  /cluster/projects/nn14654k/ylvaos/basis_set_n_funcs/functionals/gga_c_pw91/SiH2/out
  ***********************************

Using LibXC functional ID 134 : Perdew & Wang 91
[ 1]  J. P. Perdew. In P. Ziesche and H. Eschrig, editors, Proceedings of the 75. WE-Heraeus-Seminar and 21st Annual International Symposium on Electronic Structure of Solids, 11. Berlin, 1991. Akademie Verlag.
[ 2]  J. P. Perdew, J. A. Chevary, S. H. Vosko, K. A. Jackson, M. R. Pederson, D. J. Singh, and C. Fiolhais.,  Phys. Rev. B 46, 6671 (1992)
[ 3]  J. P. Perdew, J. A. Chevary, S. H. Vosko, K. A. Jackson, M. R. Pederson, D. J. Singh, and C. Fiolhais.,  Phys. Rev. B 48, 4978 (1993)
Using LibXC functional ID 134 : Perdew & Wang 91
[ 1]  J. P. Perdew. In P. Ziesche and H. Eschrig, editors, Proceedings of the 75. WE-Heraeus-Seminar and 21st Annual International Symposium on Electronic Structure of Solids, 11. Berlin, 1991. Akademie Verlag.
[ 2]  J. P. Perdew, J. A. Chevary, S. H. Vosko, K. A. Jackson, M. R. Pederson, D. J. Singh, and C. Fiolhais.,  Phys. Rev. B 46, 6671 (1992)
[ 3]  J. P. Perdew, J. A. Chevary, S. H. Vosko, K. A. Jackson, M. R. Pederson, D. J. Singh, and C. Fiolhais.,  Phys. Rev. B 48, 4978 (1993)
Your calculation utilizes LibXC
by S. Lehtola, C. Steigemann, M. J. T. Oliveira & M. A. L. Marques
Please cite in your paper:
Lehtola, S.; Steigemann, C.; Oliveira, M.J.T.; Marques, M. A. L. Software X, 7, (2018), 1.
   

================================================================================

----- Orbital basis set information -----
Your calculation utilizes the basis: def2-SVP
   F. Weigend and R. Ahlrichs, Phys. Chem. Chem. Phys. 7, 3297 (2005).

================================================================================
                                        WARNINGS
                       Please study these warnings very carefully!
================================================================================


================================================================================
                                       INPUT FILE
================================================================================
NAME = /cluster/projects/nn14654k/ylvaos/basis_set_n_funcs/functionals/gga_c_pw91/SiH2/inp/SiH2_gga_c_pw91_def2svp.inp
|  1> ! dft def2-SVP TightSCF
|  2> %pal nprocs 8 end
|  3> 
|  4> %loc
|  5>   LocMet NewBoys
|  6>   Occ true
|  7> end
|  8> 
|  9> %method
| 10>   exchange None
| 11>   correlation gga_c_pw91
| 12> end
| 13> 
| 14> %elprop
| 15>   Dipole true
| 16>   Quadrupole true
| 17> end
| 18> 
| 19> * xyz 0 1
| 20> Si    0.000000000000   0.000000000000   0.000000000000
| 21> H    0.000000000000   0.000000000000  -1.514100000000
| 22> H    0.000000000000   1.513200000000   0.052800000000
| 23> *
| 24> 
| 25> 
| 26>                          ****END OF INPUT****
================================================================================

                       ****************************
                       * Single Point Calculation *
                       ****************************

---------------------------------
CARTESIAN COORDINATES (ANGSTROEM)
---------------------------------
  Si     0.000000    0.000000    0.000000
  H      0.000000    0.000000   -1.514100
  H      0.000000    1.513200    0.052800

----------------------------
CARTESIAN COORDINATES (A.U.)
----------------------------
  NO LB      ZA    FRAG     MASS         X           Y           Z
   0 Si   14.0000    0    28.086    0.000000    0.000000    0.000000
   1 H     1.0000    0     1.008    0.000000    0.000000   -2.861234
   2 H     1.0000    0     1.008    0.000000    2.859534    0.099778

--------------------------------
INTERNAL COORDINATES (ANGSTROEM)
--------------------------------
 Si     0   0   0     0.000000000000     0.00000000     0.00000000
 H      1   0   0     1.514100000000     0.00000000     0.00000000
 H      1   2   0     1.514120893456    91.99840755     0.00000000

---------------------------
INTERNAL COORDINATES (A.U.)
---------------------------
 Si     0   0   0     0.000000000000     0.00000000     0.00000000
 H      1   0   0     2.861234339370     0.00000000     0.00000000
 H      1   2   0     2.861273822280    91.99840755     0.00000000

---------------------
BASIS SET INFORMATION
---------------------
There are 2 groups of distinct atoms

 Group   1 Type Si  : 10s7p1d contracted to 4s3p1d pattern {5311/511/1}
 Group   2 Type H   : 4s1p contracted to 2s1p pattern {31/1}

Atom   0Si   basis set group =>   1
Atom   1H    basis set group =>   2
Atom   2H    basis set group =>   2


           ************************************************************
           *        Program running with 8 parallel MPI-processes     *
           *              working on a common directory               *
           ************************************************************
------------------------------------------------------------------------------
                             ORCA STARTUP CALCULATIONS
------------------------------------------------------------------------------
------------------------------------------------------------------------------
                   ___                                                        
                  /   \      - P O W E R E D   B Y -                         
                 /     \                                                     
                 |  |  |   _    _      __       _____    __    __             
                 |  |  |  | |  | |    /  \     |  _  \  |  |  /  |          
                  \  \/   | |  | |   /    \    | | | |  |  | /  /          
                 / \  \   | |__| |  /  /\  \   | |_| |  |  |/  /          
                |  |  |   |  __  | /  /__\  \  |    /   |      \           
                |  |  |   | |  | | |   __   |  |    \   |  |\   \          
                \     /   | |  | | |  |  |  |  | |\  \  |  | \   \       
                 \___/    |_|  |_| |__|  |__|  |_| \__\ |__|  \__/        
                                                                              
                      - O R C A' S   B I G   F R I E N D -                    
                                      &                                       
                       - I N T E G R A L  F E E D E R -                       
                                                                              
 v1 FN, 2020, v2 2021, v3 2022-2024                                           
------------------------------------------------------------------------------


----------------------
SHARK INTEGRAL PACKAGE
----------------------

Number of atoms                             ...      3
Number of basis functions                   ...     28
Number of shells                            ...     14
Maximum angular momentum                    ...      2
Integral batch strategy                     ... SHARK/LIBINT Hybrid
RI-J (if used) integral strategy            ... SPLIT-RIJ (Revised 2003 algorithm where possible)
Printlevel                                  ...      1
Contraction scheme used                     ... SEGMENTED contraction
Prescreening option                         ... SCHWARTZ
   Thresh                                   ... 2.500e-11
   Tcut                                     ... 2.500e-12
   Tpresel                                  ... 2.500e-12 
Coulomb Range Separation                    ... NOT USED
Exchange Range Separation                   ... NOT USED
Multipole approximations                    ... NOT USED
Finite Nucleus Model                        ... NOT USED
CABS basis                                  ... NOT available
Auxiliary Coulomb fitting basis             ... NOT available
Auxiliary J/K fitting basis                 ... NOT available
Auxiliary Correlation fitting basis         ... NOT available
Auxiliary 'external' fitting basis          ... NOT available

Checking pre-screening integrals            ... done (  0.0 sec) Dimension = 14
   => SHARK Basis and OBASIS are compatible. Storing Pre-screening
Shell pair information
Shell pair cut-off parameter TPreSel        ...   2.5e-12
Total number of shell pairs                 ...       105
Shell pairs after pre-screening             ...       105
Total number of primitive shell pairs       ...       435
Primitive shell pairs kept                  ...       414
          la=0 lb=0:     36 shell pairs
          la=1 lb=0:     40 shell pairs
          la=1 lb=1:     15 shell pairs
          la=2 lb=0:      8 shell pairs
          la=2 lb=1:      5 shell pairs
          la=2 lb=2:      1 shell pairs

Checking whether 4 symmetric matrices of dimension 28 fit in memory
:Max Core in MB      =   4096.00
 MB in use           =      1.30
 MB left             =   4094.70
 MB needed           =      0.01
 Data fit in memory  = YES
Calculating Nuclear repulsion               ... done (  0.0 sec) ENN=     10.028851096195 Eh

Diagonalization of the overlap matrix:
Smallest eigenvalue                        ... 2.585e-02
Time for diagonalization                   ...    0.000 sec
Threshold for overlap eigenvalues          ... 1.000e-07
Number of eigenvalues below threshold      ... 0
Time for construction of square roots      ...    0.002 sec
Total time needed                          ...    0.011 sec

-------------------
DFT GRID GENERATION
-------------------

General Integration Accuracy     IntAcc      ... 4.388
Radial Grid Type                 RadialGrid  ... OptM3 with GC (2021)
Angular Grid (max. ang.)         AngularGrid ... 4 (Lebedev-302)
Angular grid pruning method      GridPruning ... 4 (adaptive)
Weight generation scheme         WeightScheme... mBecke (2022)
Basis function cutoff            BFCut       ... 1.0000e-11
Integration weight cutoff        WCut        ... 1.0000e-14
Partially contracted basis set               ... off
Rotationally invariant grid construction     ... off
Angular grids for H and He will be reduced by one unit

Total number of grid points                  ...    13986
Total number of batches                      ...      220
Average number of points per batch           ...       63
Average number of grid points per atom       ...     4662
Grids setup in   0.0 sec
Initializing property integral containers    ... done (  0.0 sec)

SHARK setup successfully completed in   0.1 seconds

Maximum memory used throughout the entire STARTUP-calculation: 6.8 MB


           ************************************************************
           *        Program running with 8 parallel MPI-processes     *
           *              working on a common directory               *
           ************************************************************
-------------------------------------------------------------------------------
                                 ORCA GUESS
                   Start orbitals & Density for SCF / CASSCF
-------------------------------------------------------------------------------

------------
SCF SETTINGS
------------
Hamiltonian:
 Density Functional     Method          .... DFT(GTOs)
 Exchange Functional    Exchange        .... no Exchange
  Functional kind                       .... Correlation
  Functional name                       .... Perdew & Wang 91
  Functional family                     .... GGA
  Functional refs                              
    [ 0] J. P. Perdew. In P. Ziesche and H. Eschrig, editors, Proceedings of the 75. WE-Heraeus-Seminar and 21st Annual International Symposium on Electronic Structure of Solids, 11. Berlin, 1991. Akademie Verlag.
    [ 1] J. P. Perdew, J. A. Chevary, S. H. Vosko, K. A. Jackson, M. R. Pederson, D. J. Singh, and C. Fiolhais.,  Phys. Rev. B 46, 6671 (1992), doi: 10.1103/PhysRevB.46.6671
    [ 2] J. P. Perdew, J. A. Chevary, S. H. Vosko, K. A. Jackson, M. R. Pederson, D. J. Singh, and C. Fiolhais.,  Phys. Rev. B 48, 4978 (1993), doi: 10.1103/PhysRevB.48.4978.2
  Functional external parameters        .... 0
 Gradients option       PostSCFGGA      .... off


General Settings:
 Integral files         IntName         .... /cluster/projects/nn14654k/ylvaos/basis_set_n_funcs/functionals/gga_c_pw91/SiH2/inp/SiH2_gga_c_pw91_def2svp
 Hartree-Fock type      HFTyp           .... RHF
 Total Charge           Charge          ....    0
 Multiplicity           Mult            ....    1
 Number of Electrons    NEL             ....   16
 Basis Dimension        Dim             ....   28
 Nuclear Repulsion      ENuc            ....     10.0288510962 Eh

Convergence Acceleration:
 AO-DIIS                CNVDIIS         .... on
   Start iteration      DIISMaxIt       ....    12
   Startup error        DIISStart       ....  0.200000
   # of expansion vecs  DIISMaxEq       ....     5
   Bias factor          DIISBfac        ....   1.050
   Max. coefficient     DIISMaxC        ....  10.000
 MO-DIIS                CNVKDIIS        .... off
 Trust-Rad. Augm. Hess. CNVTRAH         .... auto
   Auto Start mean grad. ratio tolernc. ....  1.125000
   Auto Start start iteration           ....    50
   Auto Start num. interpolation iter.  ....    10
   Max. Number of Micro iterations      ....    24
   Max. Number of Macro iterations      .... Maxiter - #DIIS iter
   Number of Davidson start vectors     ....     2
   Converg. threshold    (grad. norm)   ....   1.000e-05
   Grad. Scal. Fac. for Micro threshold ....   0.100
   Minimum threshold for Micro iter.    ....   1.000e-02
   NR start threshold (gradient norm)   ....   1.000e-04
   Initial trust radius                 ....   0.400
   Minimum AH scaling param. (alpha)    ....   1.000
   Maximum AH scaling param. (alpha)    .... 1000.000
   Quad. conv. algorithm                .... NR
   White noise on init. David. guess    .... on
   Maximum white noise                  ....   0.010
   Pseudo random numbers                .... off
   Inactive MOs                         .... canonical
   Orbital update algorithm             .... Taylor
   Preconditioner                       .... Diag
   Full preconditioner red. dimension   ....   250
 SOSCF                 CNVSOSCF           .... on
   Start iteration     SOSCFMaxIt         ....   150
   Startup grad/error  SOSCFStart         ....  0.003300
   Hessian update      SOSCFHessUp        .... L-BFGS
   Autom. constraints  SOSCFAutoConstrain .... off
 Level Shifting         CNVShift        .... on
   Level shift para.    LevelShift      ....    0.2500
   Turn off err/grad.   ShiftErr        ....    0.0010
 Zerner damping         CNVZerner       .... off
 Static damping         CNVDamp         .... on
   Fraction old density DampFac         ....    0.7000
   Max. Damping (<1)    DampMax         ....    0.9800
   Min. Damping (>=0)   DampMin         ....    0.0000
   Turn off err/grad.   DampErr         ....    0.1000

SCF Procedure:
 Maximum # iterations   MaxIter         ....   125
 SCF integral mode      SCFMode         .... Direct
   Integral package                     .... SHARK and LIBINT hybrid scheme
 Reset frequency        DirectResetFreq ....    20
 Integral Threshold     Thresh          ....  2.500e-11 Eh
 Primitive CutOff       TCut            ....  2.500e-12 Eh

Convergence Tolerance:
 Convergence Check Mode ConvCheckMode   .... Total+1el-Energy
 Convergence forced     ConvForced      .... 0
 Energy Change          TolE            ....  1.000e-08 Eh
 1-El. energy change                    ....  1.000e-05 Eh
 Orbital Gradient       TolG            ....  1.000e-05
 Orbital Rotation angle TolX            ....  1.000e-05
 DIIS Error             TolErr          ....  5.000e-07

------------------------------
INITIAL GUESS: MODEL POTENTIAL
------------------------------
Loading Hartree-Fock densities                     ... done
Calculating cut-offs                               ... done
Initializing the effective Hamiltonian             ... done
Setting up the integral package (SHARK)            ... done
Starting the Coulomb interaction                   ... done (   0.0 sec)
Making the grid                                    ... done (   0.0 sec)
Mapping shells                                     ... done
Starting the XC term evaluation                    ... done (   0.0 sec)
  promolecular density results
     # of electrons  =     16.000308591
     EX              =      0.000000000
     EC              =     -0.604133486
     EX+EC           =     -0.604133486
Transforming the Hamiltonian                       ... done (   0.0 sec)
Diagonalizing the Hamiltonian                      ... done (   0.0 sec)
Back transforming the eigenvectors                 ... done (   0.0 sec)
Now organizing SCF variables                       ... done
                      ------------------
                      INITIAL GUESS DONE (   0.1 sec)
                      ------------------
             **** ENERGY FILE WAS UPDATED (/cluster/projects/nn14654k/ylvaos/basis_set_n_funcs/functionals/gga_c_pw91/SiH2/inp/SiH2_gga_c_pw91_def2svp.en.tmp) ****
Finished Guess after   0.2 sec
Maximum memory used throughout the entire GUESS-calculation: 3.5 MB


           ************************************************************
           *        Program running with 8 parallel MPI-processes     *
           *              working on a common directory               *
           ************************************************************

-------------------------------------------------------------------------------------------
                                      ORCA LEAN-SCF
                              memory conserving SCF solver
-------------------------------------------------------------------------------------------

----------------------------------------D-I-I-S--------------------------------------------
Iteration    Energy (Eh)           Delta-E    RMSDP     MaxDP     DIISErr   Damp  Time(sec)
-------------------------------------------------------------------------------------------
               ***  Starting incremental Fock matrix formation  ***
    1    -269.7291944659031060     0.00e+00  7.67e-02  3.81e-01  4.54e-01  0.700   0.1
Warning: op=0 Small HOMO/LUMO gap (   0.001) - skipping pre-diagonalization
         Will do a full diagonalization
    2    -269.8088171498872043    -7.96e-02  6.18e-02  3.05e-01  2.45e-01  0.700   0.2
                               ***Turning on AO-DIIS***
    3    -269.8444377725032268    -3.56e-02  2.31e-02  9.30e-02  1.17e-01  0.700   0.2
    4    -269.8645468875071174    -2.01e-02  1.09e-02  5.01e-02  7.15e-02  0.700   0.1
    5    -269.8776652846560751    -1.31e-02  2.39e-02  9.79e-02  4.72e-02  0.000   0.3
    6    -269.9069858261682953    -2.93e-02  1.76e-03  4.38e-03  3.67e-03  0.000   0.1
                              *** Initializing SOSCF ***
---------------------------------------S-O-S-C-F--------------------------------------
Iteration    Energy (Eh)           Delta-E    RMSDP     MaxDP     MaxGrad    Time(sec)
--------------------------------------------------------------------------------------
    7    -269.9070166695183275    -3.08e-05  8.33e-04  3.43e-03  7.02e-04     0.2
               *** Restarting incremental Fock matrix formation ***
    8    -269.9070190882644624    -2.42e-06  5.63e-04  1.74e-03  1.61e-04     0.1
    9    -269.9070193131364022    -2.25e-07  1.05e-04  4.20e-04  6.83e-05     0.1
   10    -269.9070193422509192    -2.91e-08  3.58e-05  1.53e-04  1.67e-05     0.1
   11    -269.9070193459800180    -3.73e-09  5.88e-06  1.34e-05  5.62e-06     0.1
                 **** Energy Check signals convergence ****

               *****************************************************
               *                     SUCCESS                       *
               *           SCF CONVERGED AFTER  11 CYCLES          *
               *****************************************************

             **** ENERGY FILE WAS UPDATED (/cluster/projects/nn14654k/ylvaos/basis_set_n_funcs/functionals/gga_c_pw91/SiH2/inp/SiH2_gga_c_pw91_def2svp.en.tmp) ****

----------------
TOTAL SCF ENERGY
----------------

Total Energy       :       -269.90701934615015 Eh           -7344.54339 eV

Components:
Nuclear Repulsion  :         10.02885109619548 Eh             272.89891 eV
Electronic Energy  :       -279.93587044234562 Eh           -7617.44230 eV
One Electron Energy:       -415.04567392527775 Eh          -11293.96696 eV
Two Electron Energy:        135.10980348293214 Eh            3676.52466 eV

Virial components:
Potential Energy   :       -552.04681519948406 Eh          -15021.95754 eV
Kinetic Energy     :        282.13979585333391 Eh            7677.41416 eV
Virial Ratio       :          1.95664285334089

DFT components:
N(Alpha)           :        8.000002197100 electrons
N(Beta)            :        8.000002197100 electrons
N(Total)           :       16.000004394200 electrons
E(X)               :        0.000000000000 Eh       
E(C)               :       -0.593031728581 Eh       
E(XC)              :       -0.593031728581 Eh       

---------------
SCF CONVERGENCE
---------------

  Last Energy change         ...    3.7291e-09  Tolerance :   1.0000e-08
  Last MAX-Density change    ...    1.3426e-05  Tolerance :   1.0000e-07
  Last RMS-Density change    ...    5.8754e-06  Tolerance :   5.0000e-09
  Last DIIS Error            ...    7.0247e-04  Tolerance :   5.0000e-07
  Last Orbital Gradient      ...    5.6203e-06  Tolerance :   1.0000e-05
  Last Orbital Rotation      ...    4.2091e-06  Tolerance :   1.0000e-05


----------------
ORBITAL ENERGIES
----------------

  NO   OCC          E(Eh)            E(eV) 
   0   2.0000     -60.785777     -1654.0651 
   1   2.0000      -3.949661      -107.4757 
   2   2.0000      -2.418056       -65.7986 
   3   2.0000      -2.407983       -65.5245 
   4   2.0000      -2.405297       -65.4515 
   5   2.0000      -0.212075        -5.7708 
   6   2.0000      -0.048580        -1.3219 
   7   2.0000       0.013590         0.3698 
   8   0.0000       0.024634         0.6703 
   9   0.0000       0.193284         5.2595 
  10   0.0000       0.230519         6.2727 
  11   0.0000       0.313115         8.5203 
  12   0.0000       0.482972        13.1423 
  13   0.0000       0.528700        14.3867 
  14   0.0000       0.574593        15.6355 
  15   0.0000       0.580509        15.7965 
  16   0.0000       0.594766        16.1844 
  17   0.0000       0.608675        16.5629 
  18   0.0000       0.697237        18.9728 
*Only the first 10 virtual orbitals were printed.

                    ********************************
                    * MULLIKEN POPULATION ANALYSIS *
                    ********************************

-----------------------
MULLIKEN ATOMIC CHARGES
-----------------------
   0 Si:   -0.094906
   1 H :    0.047453
   2 H :    0.047453
Sum of atomic charges:   -0.0000000

--------------------------------
MULLIKEN REDUCED ORBITAL CHARGES
--------------------------------
  0 Sis       :     6.032358  s :     6.032358
      pz      :     3.001064  p :     8.009555
      px      :     2.000135
      py      :     3.008356
      dz2     :     0.031643  d :     0.052994
      dxz     :     0.000005
      dyz     :     0.001880
      dx2y2   :     0.019460
      dxy     :     0.000005

  1 H s       :     0.948665  s :     0.948665
      pz      :     0.002254  p :     0.003882
      px      :    -0.000073
      py      :     0.001701

  2 H s       :     0.948665  s :     0.948665
      pz      :     0.001693  p :     0.003882
      px      :    -0.000073
      py      :     0.002262



                     *******************************
                     * LOEWDIN POPULATION ANALYSIS *
                     *******************************

----------------------
LOEWDIN ATOMIC CHARGES
----------------------
   0 Si:    0.109850
   1 H :   -0.054926
   2 H :   -0.054924

-------------------------------
LOEWDIN REDUCED ORBITAL CHARGES
-------------------------------
  0 Sis       :     5.577760  s :     5.577760
      pz      :     3.111657  p :     8.235745
      px      :     1.999987
      py      :     3.124102
      dz2     :     0.044500  d :     0.076644
      dxz     :     0.000006
      dyz     :     0.001412
      dx2y2   :     0.030720
      dxy     :     0.000006

  1 H s       :     1.032235  s :     1.032235
      pz      :     0.016662  p :     0.022690
      px      :     0.000000
      py      :     0.006028

  2 H s       :     1.032235  s :     1.032235
      pz      :     0.005934  p :     0.022689
      px      :     0.000000
      py      :     0.016755



                      *****************************
                      * MAYER POPULATION ANALYSIS *
                      *****************************

  NA   - Mulliken gross atomic population
  ZA   - Total nuclear charge
  QA   - Mulliken gross atomic charge
  VA   - Mayer's total valence
  BVA  - Mayer's bonded valence
  FA   - Mayer's free valence

  ATOM       NA         ZA         QA         VA         BVA        FA
  0 Si    14.0949    14.0000    -0.0949     1.8135     1.8135    -0.0000
  1 H      0.9525     1.0000     0.0475     0.9093     0.9093    -0.0000
  2 H      0.9525     1.0000     0.0475     0.9093     0.9093    -0.0000

  Mayer bond orders larger than 0.100000
B(  0-Si,  1-H ) :   0.9067 B(  0-Si,  2-H ) :   0.9067 

-------
TIMINGS
-------

Total SCF time: 0 days 0 hours 0 min 1 sec 

Total time                  ....       1.800 sec
Sum of individual times     ....       1.686 sec  ( 93.6%)

SCF preparation             ....       0.123 sec  (  6.8%)
Fock matrix formation       ....       0.810 sec  ( 45.0%)
  Startup                   ....       0.017 sec  (  2.0% of F)
  Coulomb formation         ....       0.022 sec  (  2.8% of F)
  XC integration            ....       0.415 sec  ( 51.2% of F)
    XC Preparation          ....       0.000 sec  (  0.0% of XC)
    Basis function eval.    ....       0.007 sec  (  1.8% of XC)
    Density eval.           ....       0.002 sec  (  0.6% of XC)
    XC-Functional eval.     ....       0.009 sec  (  2.3% of XC)
    XC-Potential eval.      ....       0.003 sec  (  0.7% of XC)
Diagonalization             ....       0.000 sec  (  0.0%)
Density matrix formation    ....       0.189 sec  ( 10.5%)
Total Energy calculation    ....       0.016 sec  (  0.9%)
Population analysis         ....       0.017 sec  (  1.0%)
Orbital Transformation      ....       0.025 sec  (  1.4%)
Orbital Orthonormalization  ....       0.000 sec  (  0.0%)
DIIS solution               ....       0.453 sec  ( 25.1%)
SOSCF solution              ....       0.054 sec  (  3.0%)
Finished LeanSCF after   1.8 sec

Maximum memory used throughout the entire LEANSCF-calculation: 6.1 MB


           ************************************************************
           *        Program running with 8 parallel MPI-processes     *
           *              working on a common directory               *
           ************************************************************

------------------------------------------------------------------------------
                         ORCA PROPERTY INTEGRAL CALCULATIONS
------------------------------------------------------------------------------

GBWName                                   ... /cluster/projects/nn14654k/ylvaos/basis_set_n_funcs/functionals/gga_c_pw91/SiH2/inp/SiH2_gga_c_pw91_def2svp.gbw
Number of atoms                           ...      3
Number of basis functions                 ...     28
Max core memory                           ...   4096 MB

Dipole integrals                          ... YES
Quadrupole integrals                      ... YES
Linear momentum integrals                 ...  NO
Angular momentum integrals                ...  NO
Higher moments length integrals           ...  NO
Higher moments velocity integrals         ...  NO
Kinetic energy integrals                  ...  NO
GIAO right hand sides                     ...  NO
GIAO dipole derivative integrals          ...  NO
SOC integrals                             ...  NO
EPR diamagnetic integrals (GIAO)          ...  NO
EPR gauge integrals                       ...  NO
Field gradient integrals                  ...  NO (   0 nuclei)
Spin-dipole/Fermi contact integrals       ...  NO (   0 nuclei)
Contact density integrals                 ...  NO (   0 nuclei)
Nucleus-orbit integrals                   ...  NO (   0 nuclei)
Geometric perturbations                   ...  NO (   3 nuclei)

Choice of electric origin   ... Center of mass
Position of electric origin ... (  0.0000,  0.0958, -0.0925) 
Choice of magnetic origin   ... GIAO
Position of magnetic origin ... (  0.0000,  0.0000,  0.0000) 

Calculating integrals                     ... Electric Dipole (Length)     done (  0.0 sec)
Calculating integrals                     ... Electric Quadrupole (Length) done (  0.0 sec)

Property integrals calculated in   0.0 sec

Maximum memory used throughout the entire PROPINT-calculation: 3.6 MB
------------------------------------------------------------------------------
                           ORCA ORBITAL LOCALIZATION
------------------------------------------------------------------------------

Input orbitals are from                  ... /cluster/projects/nn14654k/ylvaos/basis_set_n_funcs/functionals/gga_c_pw91/SiH2/inp/SiH2_gga_c_pw91_def2svp.gbw
Output orbitals are to                   ... /cluster/projects/nn14654k/ylvaos/basis_set_n_funcs/functionals/gga_c_pw91/SiH2/inp/SiH2_gga_c_pw91_def2svp.loc
Max. number of iterations                ... 128
Localizations seeded randomly            ... on
Convergence tolerance                    ... 1.000e-06
Threshold for strong local MOs           ... 9.500e-01
Threshold for bond MOs                   ... 8.500e-01
Operator                                 ... 0
Orbital range for localization           ... 1 to 7
Localization criterion                   ... NEW-BOYS
Doing the dipole integrals               ... o.k.
Initial value of the localization sum :     9.194015
ITERATION   0 : L=   11.1134909185 DL=  1.92e+00 (AVERGE_DL)=    0.3023302753 
ITERATION   1 : L=   11.2005923034 DL=  8.71e-02 (AVERGE_DL)=    0.0644025232 
ITERATION   2 : L=   11.2053213925 DL=  4.73e-03 (AVERGE_DL)=    0.0150064892 
ITERATION   3 : L=   11.2056204342 DL=  2.99e-04 (AVERGE_DL)=    0.0037736035 
ITERATION   4 : L=   11.2056376018 DL=  1.72e-05 (AVERGE_DL)=    0.0009041593 
ITERATION   5 : L=   11.2056495977 DL=  1.20e-05 (AVERGE_DL)=    0.0007558000 
ITERATION   6 : L=   11.2056582370 DL=  8.64e-06 (AVERGE_DL)=    0.0006414005 
ITERATION   7 : L=   11.2056674758 DL=  9.24e-06 (AVERGE_DL)=    0.0006632800 
ITERATION   8 : L=   11.2056767068 DL=  9.23e-06 (AVERGE_DL)=    0.0006630032 
ITERATION   9 : L=   11.2056862459 DL=  9.54e-06 (AVERGE_DL)=    0.0006739740 
ITERATION  10 : L=   11.2056961673 DL=  9.92e-06 (AVERGE_DL)=    0.0006873512 
ITERATION  11 : L=   11.2057066234 DL=  1.05e-05 (AVERGE_DL)=    0.0007056261 
ITERATION  12 : L=   11.2057177643 DL=  1.11e-05 (AVERGE_DL)=    0.0007283659 
ITERATION  13 : L=   11.2057297609 DL=  1.20e-05 (AVERGE_DL)=    0.0007558214 
ITERATION  14 : L=   11.2057428024 DL=  1.30e-05 (AVERGE_DL)=    0.0007880527 
ITERATION  15 : L=   11.2057570999 DL=  1.43e-05 (AVERGE_DL)=    0.0008251250 
ITERATION  16 : L=   11.2057728881 DL=  1.58e-05 (AVERGE_DL)=    0.0008670747 
ITERATION  17 : L=   11.2057904278 DL=  1.75e-05 (AVERGE_DL)=    0.0009139071 
ITERATION  18 : L=   11.2058100093 DL=  1.96e-05 (AVERGE_DL)=    0.0009656346 
ITERATION  19 : L=   11.2058319522 DL=  2.19e-05 (AVERGE_DL)=    0.0010222041 
ITERATION  20 : L=   11.2058566095 DL=  2.47e-05 (AVERGE_DL)=    0.0010835853 
ITERATION  21 : L=   11.2058843662 DL=  2.78e-05 (AVERGE_DL)=    0.0011496722 
ITERATION  22 : L=   11.2059156399 DL=  3.13e-05 (AVERGE_DL)=    0.0012203380 
ITERATION  23 : L=   11.2059508788 DL=  3.52e-05 (AVERGE_DL)=    0.0012953926 
ITERATION  24 : L=   11.2059905576 DL=  3.97e-05 (AVERGE_DL)=    0.0013745793 
ITERATION  25 : L=   11.2060351714 DL=  4.46e-05 (AVERGE_DL)=    0.0014575558 
ITERATION  26 : L=   11.2060852249 DL=  5.01e-05 (AVERGE_DL)=    0.0015438576 
ITERATION  27 : L=   11.2061412186 DL=  5.60e-05 (AVERGE_DL)=    0.0016329014 
ITERATION  28 : L=   11.2062036338 DL=  6.24e-05 (AVERGE_DL)=    0.0017239930 
ITERATION  29 : L=   11.2062729070 DL=  6.93e-05 (AVERGE_DL)=    0.0018162396 
ITERATION  30 : L=   11.2063494052 DL=  7.65e-05 (AVERGE_DL)=    0.0019086047 
ITERATION  31 : L=   11.2064333949 DL=  8.40e-05 (AVERGE_DL)=    0.0019998775 
ITERATION  32 : L=   11.2065250099 DL=  9.16e-05 (AVERGE_DL)=    0.0020886881 
ITERATION  33 : L=   11.2066242175 DL=  9.92e-05 (AVERGE_DL)=    0.0021735153 
ITERATION  34 : L=   11.2067307889 DL=  1.07e-04 (AVERGE_DL)=    0.0022527385 
ITERATION  35 : L=   11.2068442745 DL=  1.13e-04 (AVERGE_DL)=    0.0023246666 
ITERATION  36 : L=   11.2069639902 DL=  1.20e-04 (AVERGE_DL)=    0.0023876244 
ITERATION  37 : L=   11.2070890157 DL=  1.25e-04 (AVERGE_DL)=    0.0024399992 
ITERATION  38 : L=   11.2072182121 DL=  1.29e-04 (AVERGE_DL)=    0.0024803640 
ITERATION  39 : L=   11.2073502540 DL=  1.32e-04 (AVERGE_DL)=    0.0025075309 
ITERATION  40 : L=   11.2074836800 DL=  1.33e-04 (AVERGE_DL)=    0.0025206390 
ITERATION  41 : L=   11.2076169551 DL=  1.33e-04 (AVERGE_DL)=    0.0025192125 
ITERATION  42 : L=   11.2077485419 DL=  1.32e-04 (AVERGE_DL)=    0.0025032059 
ITERATION  43 : L=   11.2078769717 DL=  1.28e-04 (AVERGE_DL)=    0.0024729947 
ITERATION  44 : L=   11.2080009100 DL=  1.24e-04 (AVERGE_DL)=    0.0024293672 
ITERATION  45 : L=   11.2081192098 DL=  1.18e-04 (AVERGE_DL)=    0.0023734622 
ITERATION  46 : L=   11.2082309481 DL=  1.12e-04 (AVERGE_DL)=    0.0023067018 
ITERATION  47 : L=   11.2083354451 DL=  1.04e-04 (AVERGE_DL)=    0.0022307052 
ITERATION  48 : L=   11.2084322650 DL=  9.68e-05 (AVERGE_DL)=    0.0021472008 
ITERATION  49 : L=   11.2085212021 DL=  8.89e-05 (AVERGE_DL)=    0.0020579358 
ITERATION  50 : L=   11.2086022553 DL=  8.11e-05 (AVERGE_DL)=    0.0019646060 
ITERATION  51 : L=   11.2086755965 DL=  7.33e-05 (AVERGE_DL)=    0.0018688066 
ITERATION  52 : L=   11.2087415331 DL=  6.59e-05 (AVERGE_DL)=    0.0017719584 
ITERATION  53 : L=   11.2088004740 DL=  5.89e-05 (AVERGE_DL)=    0.0016753249 
ITERATION  54 : L=   11.2088528969 DL=  5.24e-05 (AVERGE_DL)=    0.0015799765 
ITERATION  55 : L=   11.2088993178 DL=  4.64e-05 (AVERGE_DL)=    0.0014867813 
ITERATION  56 : L=   11.2089402682 DL=  4.10e-05 (AVERGE_DL)=    0.0013964315 
ITERATION  57 : L=   11.2089762768 DL=  3.60e-05 (AVERGE_DL)=    0.0013094632 
ITERATION  58 : L=   11.2090078546 DL=  3.16e-05 (AVERGE_DL)=    0.0012262563 
ITERATION  59 : L=   11.2090354855 DL=  2.76e-05 (AVERGE_DL)=    0.0011470655 
ITERATION  60 : L=   11.2090596200 DL=  2.41e-05 (AVERGE_DL)=    0.0010720368 
ITERATION  61 : L=   11.2090806716 DL=  2.11e-05 (AVERGE_DL)=    0.0010012267 
ITERATION  62 : L=   11.2090990155 DL=  1.83e-05 (AVERGE_DL)=    0.0009346229 
ITERATION  63 : L=   11.2091149890 DL=  1.60e-05 (AVERGE_DL)=    0.0008721488 
ITERATION  64 : L=   11.2091288935 DL=  1.39e-05 (AVERGE_DL)=    0.0008137066 
ITERATION  65 : L=   11.2091409952 DL=  1.21e-05 (AVERGE_DL)=    0.0007591258 
ITERATION  66 : L=   11.2091515294 DL=  1.05e-05 (AVERGE_DL)=    0.0007082551 
ITERATION  67 : L=   11.2091607020 DL=  9.17e-06 (AVERGE_DL)=    0.0006609046 
ITERATION  68 : L=   11.2091686936 DL=  7.99e-06 (AVERGE_DL)=    0.0006168865 
ITERATION  69 : L=   11.2091756605 DL=  6.97e-06 (AVERGE_DL)=    0.0005759855 
ITERATION  70 : L=   11.2091817396 DL=  6.08e-06 (AVERGE_DL)=    0.0005380342 
ITERATION  71 : L=   11.2091870488 DL=  5.31e-06 (AVERGE_DL)=    0.0005028111 
ITERATION  72 : L=   11.2091916905 DL=  4.64e-06 (AVERGE_DL)=    0.0004701403 
ITERATION  73 : L=   11.2091957532 DL=  4.06e-06 (AVERGE_DL)=    0.0004398435 
ITERATION  74 : L=   11.2091993132 DL=  3.56e-06 (AVERGE_DL)=    0.0004117333 
ITERATION  75 : L=   11.2092024367 DL=  3.12e-06 (AVERGE_DL)=    0.0003856639 
ITERATION  76 : L=   11.2092051805 DL=  2.74e-06 (AVERGE_DL)=    0.0003614655 
ITERATION  77 : L=   11.2092075939 DL=  2.41e-06 (AVERGE_DL)=    0.0003390077 
ITERATION  78 : L=   11.2092097194 DL=  2.13e-06 (AVERGE_DL)=    0.0003181368 
ITERATION  79 : L=   11.2092115936 DL=  1.87e-06 (AVERGE_DL)=    0.0002987430 
ITERATION  80 : L=   11.2092132482 DL=  1.65e-06 (AVERGE_DL)=    0.0002806979 
ITERATION  81 : L=   11.2092147107 DL=  1.46e-06 (AVERGE_DL)=    0.0002639048 
ITERATION  82 : L=   11.2092160050 DL=  1.29e-06 (AVERGE_DL)=    0.0002482556 
ITERATION  83 : L=   11.2092171516 DL=  1.15e-06 (AVERGE_DL)=    0.0002336641 
ITERATION  84 : L=   11.2092181684 DL=  1.02e-06 (AVERGE_DL)=    0.0002200460 
ITERATION  85 : L=   11.2092190711 DL=  9.03e-07 (AVERGE_DL)=    0.0002073325 
LOCALIZATION SUM CONVERGED


--------------------------------------------------------------------------------
                    LOCALIZED MOLECULAR ORBITAL COMPOSITIONS
--------------------------------------------------------------------------------

The Mulliken populations for each LMO on each atom are computed
The LMO`s will be ordered according to atom index and type
  (A) Strongly localized MO`s have populations of >=0.950 on one atom
  (B) Two center bond orbitals have populations of >=0.850 on two atoms
  (C) Other MO`s are considered to be `delocalized`

FOUND  -   5 strongly local MO`s
       -   2 two center bond MO`s
       -   0 significantly delocalized MO`s

Rather strongly localized orbitals:
MO   5:   0Si -   1.049336
MO   4:   0Si -   1.000930
MO   3:   0Si -   1.002431
MO   2:   0Si -   1.001698
MO   1:   0Si -   0.998560
Bond-like localized orbitals:
MO   7:   2H  -   0.515815  and   0Si -   0.497241
MO   6:   1H  -   0.515814  and   0Si -   0.497240
Localized MO's were stored in: /cluster/projects/nn14654k/ylvaos/basis_set_n_funcs/functionals/gga_c_pw91/SiH2/inp/SiH2_gga_c_pw91_def2svp.loc

-------------------------   --------------------
FINAL SINGLE POINT ENERGY      -269.907019346150
-------------------------   --------------------



           ************************************************************
           *        Program running with 8 parallel MPI-processes     *
           *              working on a common directory               *
           ************************************************************

------------------------------------------------------------------------------
                              ORCA PROPERTY CALCULATIONS
------------------------------------------------------------------------------

GBWName                                 ... /cluster/projects/nn14654k/ylvaos/basis_set_n_funcs/functionals/gga_c_pw91/SiH2/inp/SiH2_gga_c_pw91_def2svp.gbw
Number of atoms                         ...      3
Number of basis functions               ...     28
Max core memory                         ...   4096 MB

Electric properties:
Dipole moment                           ... YES
Quadrupole moment                       ... YES
Static polarizability (Dipole/Dipole)   ...  NO
Static polarizability (Dipole/Quad.)    ...  NO
Static polarizability (Quad./Quad.)     ...  NO
Static polarizability (Velocity)        ...  NO
Static hyperpolarizability              ...  NO

Atomic electric properties:
Dipole moment                           ...  NO
Quadrupole moment                       ...  NO
Static polarizability                   ...  NO

Choice of electric origin               ... Center of mass
Position of electric origin             ...     0.000000     0.095755    -0.092471

General magnetic properties:
Magnetizability                         ...  NO

EPR properties:
g-Tensor (aka g-matrix)                 ...  NO
Zero-Field splitting spin-orbit         ...  NO
Zero-field splitting spin-spin          ...  NO
Hyperfine couplings                     ...  NO (   0 nuclei)
Quadrupole couplings                    ...  NO (   0 nuclei)
Contact density                         ...  NO (   0 nuclei)

NMR properties:
Chemical shifts                         ...  NO (   0 nuclei)
Spin-rotation constants                 ...  NO (   0 nuclei)
Spin-spin couplings                     ...  NO (   0 nuclei,    0 pairs)

Choice of magnetic origin               ... GIAO
Position of magnetic origin             ...     0.000000     0.000000     0.000000

Properties with geometric perturbations:
SCF Hessian                             ...  NO
IR spectrum                             ...  NO
VCD spectrum                            ...  NO
X-ray spectroscopy properties:
SCF XES/XAS/RIXS spectra                ...  NO

SCF SOC stabilization energy            ...  NO
Diagonal Born-Oppenheimer correction    ...  NO

-------------
DIPOLE MOMENT
-------------

Method             : SCF
Type of density    : Electron Density
Multiplicity       :   1
Irrep              :   0
Energy             :  -269.9070193461501503 Eh
Basis              : AO
                                X                 Y                 Z
Electronic contribution:      0.000000001      -0.932517443       0.900515006
Nuclear contribution   :      0.000000000       1.327457389      -1.281928022
                        -----------------------------------------
Total Dipole Moment    :      0.000000001       0.394939947      -0.381413016
                        -----------------------------------------
Magnitude (a.u.)       :      0.549047767
Magnitude (Debye)      :      1.395568515



--------------------
Rotational spectrum 
--------------------
 
Rotational constants in cm-1:             8.101050             7.049111             3.769280 
Rotational constants in MHz :        242863.361200        211327.036298        113000.174884 

Dipole components along the rotational axes: 
x,y,z [a.u.] :    -0.000045    -0.549048     0.000000 
x,y,z [Debye]:    -0.000114    -1.395569     0.000000 

 

Dipole moment calculation done in   0.0 sec 

-----------------
QUADRUPOLE MOMENT
-----------------

Method             : SCF
Type of density    : Electron Density
Multiplicity       :   1
Irrep              :   0
Energy             :  -269.9070193461501503 Eh
Basis              : AO

                XX              YY              ZZ              XY              XZ              YZ
  NUC        0.000000000     7.776008003     7.822723490     0.000000000     0.000000000     0.672490579
  EL       -12.509420080   -24.121754160   -24.120444877    -0.000000002     0.000000002     0.015694481
  TOT      -12.509420080   -16.345746157   -16.297721387    -0.000000002     0.000000002     0.688185060 (a.u.)
           -16.825597830   -21.985587605   -21.920992648    -0.000000002     0.000000002     0.925632442 (Buckingham)

diagonalized tensor:
           -17.010337629   -15.633129915   -12.509420080 (a.u.)
           -22.879485864   -21.027094389   -16.825597830 (Buckingham)
            -7.906279509    -2.349105083    10.255384593 (traceless form in Buckingham)

            -0.000000001     0.000000000     1.000000000
            -0.719329937     0.694668584    -0.000000000
             0.694668584     0.719329937     0.000000000
        
Isotropic quadrupole :   -15.050962541

Quadrupole moment calculation done in   0.0 sec (  0.0 sec for integrals)

Maximum memory used throughout the entire PROP-calculation: 1.4 MB

--------------------------------
SUGGESTED CITATIONS FOR THIS RUN
--------------------------------

Below you find a list of papers that are relevant to this ORCA run
We neither can nor want to force you to cite these papers, but we appreciate if you do
You receive ORCA, which is the product of decades of hard work by many enthusiastic individuals, for free
The only thing we kindly ask in return is that you cite our papers,
We deeply appreciate it, if you show your appreciation for ORCA by not just citing the generic ORCA reference.

Please note that relegating all ORCA citations to the supporting information does *not* help us.
SI sections are not indexed - citations you put there will not count into any citation statistics
But we need these citations in order to attract the funding resources that allow us to do what we are doing

Therefore, if you are a happy ORCA user, please consider citing a few of the papers listed below in the main body of your paper

In addition to the list printed below, the program has created the file /cluster/projects/nn14654k/ylvaos/basis_set_n_funcs/functionals/gga_c_pw91/SiH2/inp/SiH2_gga_c_pw91_def2svp.bibtex that contains the list in bibtex format
You can import this file easily into all common literature databanks and citation aid programs

It goes without saying that in many instances, there are alternative algorithms to achieve similar
results as the ones you have gotten from ORCA. It is, of course, also the case that in some instances
ORCA just re-implements algorithms worked out by others. We are fully aware of that and we are also
fully appreciative of our colleagues work. Hence this citation list should not be read as indicating
that the listed papers, which are focused on our own work, are the only ones worth citing. It simply
meant to make it easier for users to cite ORCA specific papers. It is not a substitute for doing your
own literature research and citing the relevant literature in a scientifically appropriate manner.

List of essential papers. We consider these as the minimum necessary citations

  1. Neese, F.
     Software update: the ORCA program system, version 6.0
     WIRES Comput. Molec. Sci. 2025 15(1), e70019
     doi.org/10.1002/wcms.70019

List of papers to cite with high priority. The work reported in these papers was absolutely
necessary for this run to complete.
Our perspective: the developers of density functionals and basis sets usually get cited in chemistry papers
Good! But without the algorithms to do something with them, the functionals or basis sets would not do anything.
Hence, in our opinion, the algorithm design and method developments papers are equally worthy of getting cited

  1. Lehtola, S.; Steigemann, C.; Oliveira, M.; Marques, M.
     Recent developments in Libxc - A comprehensive library of functionals for density functional theory
     Software X 2018 7 , 
     doi.org/10.1016/j.softx.2017.11.002
  2. Neese, F.
     The SHARK Integral Generation and Digestion System
     J. Comp. Chem. 2022 44(3), 381
     doi.org/10.1002/jcc.26942

List of suggested additional citations. These are papers that are important in the 'surrounding' of 
of this run, or papers that preceded the highly important papers. If you like your results we are grateful for a citation.

  1. Neese, F.
     The ORCA program system
     WIRES Comput. Molec. Sci. 2012 2(1), 73-78
     doi.org/10.1002/wcms.81
  2. Neese, F.
     Software update: the ORCA program system, version 4.0
     WIRES Comput. Molec. Sci. 2018 8(1), 1-6
     doi.org/10.1002/wcms.1327
  3. Neese, F.; Wennmohs, F.; Becker, U.; Riplinger, C.
     The ORCA quantum chemistry program package
     J. Chem. Phys. 2020 152(22), 224108
     doi.org/10.1063/5.0004608
  4. Neese, F.
     Software update: The ORCA program system—Version 5.0
     WIRES Comput. Molec. Sci. 2022 12(1), e1606
     doi.org/10.1002/wcms.1606

List of optional additional citations

  1. Neese, F.
     Approximate second-order SCF convergence for spin unrestricted wavefunctions
     Chem. Phys. Lett. 2000 325(1-3), 93-98
     doi.org/10.1016/s0009-2614(00)00662-x

Timings for individual modules:

Sum of individual times          ...        3.293 sec (=   0.055 min)
Startup calculation              ...        0.358 sec (=   0.006 min)  10.9 %
SCF iterations                   ...        2.391 sec (=   0.040 min)  72.6 %
Property integrals               ...        0.289 sec (=   0.005 min)   8.8 %
Property calculations            ...        0.249 sec (=   0.004 min)   7.6 %
Orbital localization             ...        0.005 sec (=   0.000 min)   0.1 %
                             ****ORCA TERMINATED NORMALLY****
TOTAL RUN TIME: 0 days 0 hours 0 minutes 4 seconds 665 msec
