
                                 *****************
                                 * O   R   C   A *
                                 *****************

                                            #,                                       
                                            ###                                      
                                            ####                                     
                                            #####                                    
                                            ######                                   
                                           ########,                                 
                                     ,,################,,,,,                         
                               ,,#################################,,                 
                          ,,##########################################,,             
                       ,#########################################, ''#####,          
                    ,#############################################,,   '####,        
                  ,##################################################,,,,####,       
                ,###########''''           ''''###############################       
              ,#####''   ,,,,##########,,,,          '''####'''          '####       
            ,##' ,,,,###########################,,,                        '##       
           ' ,,###''''                  '''############,,,                           
         ,,##''                                '''############,,,,        ,,,,,,###''
      ,#''                                            '''#######################'''  
     '                                                          ''''####''''         
             ,#######,   #######,   ,#######,      ##                                
            ,#'     '#,  ##    ##  ,#'     '#,    #''#        ,####,    ,#,          
            ##       ##  ##   ,#'  ##            #'  '#       #'       ,# #          
            ##       ##  #######   ##           ,######,      #####,      #          
            '#,     ,#'  ##    ##  '#,     ,#' ,#      #,     #,   #      #          
             '#######'   ##     ##  '#######'  #'      '#     '####' #    #          



                #########################################################
                #                        -***-                          #
                #          Department of theory and spectroscopy        #
                #                                                       #
                #                      Frank Neese                      #
                #                                                       #
                #     Directorship, Architecture, Infrastructure        #
                #                    SHARK, DRIVERS                     #
                #        Core code/Algorithms in most modules           #
                #                                                       #
                #        Max Planck Institute fuer Kohlenforschung      #
                #                Kaiser Wilhelm Platz 1                 #
                #                 D-45470 Muelheim/Ruhr                 #
                #                      Germany                          #
                #                                                       #
                #                  All rights reserved                  #
                #                        -***-                          #
                #########################################################


                         Program Version 6.1.1  -  RELEASE   -
                                (GIT: $487d211c$)
                          ($2025-11-21 10:33:24 +0100$)


 With contributions from (in alphabetic order):
[Max-Planck-Institut fuer Kohlenforschung]                               
  Daniel Aravena         : Magnetic Suceptibility                        
  Michael Atanasov       : Ab Initio Ligand Field Theory (pilot matlab implementation)
  Alexander A. Auer      : GIAO ZORA, VPT2 properties, NMR spectrum      
  Ute Becker             : All parallelization in ORCA, NUMFREQ, NUMCALC 
  Giovanni Bistoni       : ED, misc. LED, open-shell LED, HFLD           
  Dmytro Bykov           : pre 5.0 version of the SCF Hessian            
  Marcos Casanova-Páez   : Triplet and SCS-CIS(D). UHF-(DLPNO)-IP/EA/STEOM-CCSD. UHF-CVS-IP/STEOM-CCSD   
  Vijay G. Chilkuri      : MRCI spin determinant printing, contributions to CSF-ICE 
  Pauline Colinet        : FMM embedding                                 
  Dipayan Datta          : RHF DLPNO-CCSD density                        
  Achintya Kumar Dutta   : EOM-CC, STEOM-CC                              
  Nicolas Foglia         : Exact transition moments, OPA infrastructure, MCD improvements    
  Dmitry Ganyushin       : Spin-Orbit,Spin-Spin,Magnetic field MRCI      
  Miquel Garcia-Rates    : C-PCM and meta-GGA Hessian, CCSD/C-PCM, Gaussian charge scheme 
  Tiago L. C. Gouveia    : GS-ROHF, GS-ROCIS                             
  Yang Guo               : DLPNO-NEVPT2, F12-NEVPT2, CIM, IAO-localization        
  Andreas Hansen         : Spin unrestricted coupled pair/coupled cluster methods 
  Ingolf Harden          : AUTO-CI MPn and infrastructure                
  Benjamin Helmich-Paris : MC-RPA, TRAH-(SCF,CASSCF), AVAS, COSX integrals, SCF dyn. polar., MC-PDFT, srDFT 
  Lee Huntington         : MR-EOM, pCC                                   
  Robert Izsak           : Overlap fitted RIJCOSX, COSX-SCS-MP3, EOM     
  Riya Kayal             : Wick's Theorem for AUTO-CI, AUTO-CI UHF-CCSDT 
  Emily Kempfer          : AUTO-CI RHF CISDT and CCSDT, approximate NEVPT4
  Christian Kollmar      : KDIIS, OOCD, Brueckner-CCSD(T), CCSD density, CASPT2, CASPT2-K, improved NEVPT2 
  Axel Koslowski         : Symmetry handling                             
  Simone Kossmann        : meta-GGA functionals, TD-DFT gradient, OOMP2, (MP2 Hessian; deprecated post 5.0) 
  Lucas Lang             : DCDCAS, Hyperfine gauge corrections, ICE-SOC+SSC
  Marvin Lechner         : AUTO-CI (C++ implementation), FIC-MRCC        
  Spencer Leger          : CASSCF response                               
  Dagmar Lenk            : GEPOL surface, SMD, ORCA-2-JSON               
  Dimitrios Liakos       : Extrapolation schemes; Compound Job, Property file
  Dimitrios Manganas     : Further ROCIS development; embedding schemes. LFT, Crystal Embedding 
  Dimitrios Pantazis     : SARC Basis sets                               
  Anastasios Papadopoulos: AUTO-CI, single reference methods and gradients 
  Taras Petrenko         : pre 6.0 DFT Hessian and TD-DFT gradient,  ECA, NRVS 
  Petra Pikulova         : Analytic Raman intensities                    
  Peter Pinski           : DLPNO-MP2, DLPNO-MP2 Gradient                 
  Shashank Vittal Rao    : ES-AILFT, MagRelax                            
  Christoph Reimann      : Effective Core Potentials                     
  Marius Retegan         : Local ZFS, SOC                                
  Christoph Riplinger    : Optimizer, TS searches, QM/MM, DLPNO-CCSD(T), (RO)-DLPNO pert. Triples 
  Michael Roemelt        : Original ROCIS implementation, recursive CI coupling coefficients
  Masaaki Saitow         : Open-shell DLPNO-CCSD energy and density      
  Barbara Sandhoefer     : DKH picture change effects                    
  Yorick L. A. Schmerwitz: GMF and freeze-and-release deltaSCF, NEB S-IDPP initial path                    
  Kantharuban Sivalingam : CASSCF convergence/infrastructure, NEVPT2, NEVPT3, NEVPT4(SD), FIC-MRCI and CEPA variants
  Bernardo de Souza      : ESD, SOC TD-DFT                               
  Georgi L. Stoychev     : AutoAux, RI-MP2 NMR, DLPNO-MP2 response, X2C  
  Van Anh Tran           : RI-MP2 g-tensors                              
  Willem Van den Heuvel  : Paramagnetic NMR                              
  Zikuan Wang            : NOTCH, Electric field optimization            
  Frank Wennmohs         : Technical directorship and infrastructure     
  Hang Xu                : AUTO-CI-Response properties                   
                                                                         
[FACCTs GmbH]                                                            
  Markus Bursch, Nicolas Foglia, Miquel Garcia-Rates, Ingolf Harden, Hagen Neugebauer, Anastasios Papadopoulos, 
  Christoph Riplinger, Bernardo de Souza, Georgi L. Stoychev                                                    
                                                                 
  APM, various basis sets, CI-OPT, improved COSX, DLPNO-Multilevel,           
  DOCKER, DRACO, updates on ESD, Fragmentator, GOAT, IRC, LR-CPCM, L-BFGS, MBIS, meta-GGA TD-DFT gradient, ML-optimized integration grids, 
  MM, NACMEs, nearIR, NEB, NEB-TS, NL-DFT gradient (VV10), 2- and 3-layer-ONIOM, interface openCOSMO-RS, QMMM,   
  Crystal-QMMM, RESP, rigid body optimization, SF, symmetry and pop. for TD-DFT, various functionals, SOLVATOR                                   
                                                                         
[Other institutions]                                                     
  V. Asgeirsson          : NEB                                           
  Christoph Bannwarth    : sTDA-DFT, sTD-DFT, PBEh-3c, B97-3c, D3        
  Giovanni Bistoni       : ETS/NOCV, ADLD/ADEX, COVALED                  
  Martin Brehm           : Molecular dynamics                            
  Ronald Cardenas        : ETS/NOCV                                      
  Martina Colucci        : COVALED                                       
  Sebastian Ehlert       : rSCAN, r2SCAN, r2SCAN-3c, D4, dhf basis sets  
  Marvin Friede          : D4 for Fr, Ra, Ac-Lr                          
  Lars Goerigk           : TD-DFT with DH, B97 family of functionals     
  Stefan Grimme          : VdW corrections, initial TS optimization, DFT functionals, gCP, sTDA/sTD-DF 
  Waldemar Hujo          : DFT-NL                                        
  H. Jonsson             : NEB                                           
  Holger Kruse           : gCP                                           
  Marcel Mueller         : wB97X-3c, vDZP basis set                      
  Hagen Neugebauer       : wr2SCAN, Native XTB                           
  Gianluca Regni         : ADLD/ADEX                                     
  Tobias Risthaus        : pre 6.0 range-separated hybrid DFT and stability analysis
  Lukas Wittmann         : regularized MP2, r2SCAN double-hybrids, wr2SCAN        
                                                                         
We gratefully acknowledge several colleagues who have allowed us to      
interface, adapt or use parts of their codes:                            
  Ed Valeev, F. Pavosevic, A. Kumar             : LibInt (2-el integral package), F12 methods 
  Garnet Chan, S. Sharma, J. Yang, R. Olivares  : DMRG                   
  Ulf Ekstrom                                   : XCFun DFT Library      
  Mihaly Kallay                                 : mrcc  (arbitrary order and MRCC methods)
  Frank Weinhold                                : gennbo (NPA and NBO analysis)           
  Simon Mueller                                 : openCOSMO-RS                            
  Christopher J. Cramer and Donald G. Truhlar   : smd solvation model                     
  S Lehtola, MJT Oliveira, MAL Marques          : LibXC Library                           
  Liviu Ungur et al                             : ANISO software                          


 Your calculation uses the libint2 library for the computation of 2-el integrals
 For citations please refer to: http://libint.valeyev.net

 Your ORCA version has been built with support for libXC version: 7.0.0
 For citations please refer to: https://libxc.gitlab.io

 This ORCA versions uses:
   CBLAS   interface :  Fast vector & matrix operations
   LAPACKE interface :  Fast linear algebra routines
   SCALAPACK package :  Parallel linear algebra routines
   Shared memory     :  Shared parallel matrices
   BLAS/LAPACK       :  OpenBLAS 0.3.29  USE64BITINT DYNAMIC_ARCH NO_AFFINITY Cooperlake SINGLE_THREADED
        Core in use  :  Cooperlake
   Copyright (c) 2011-2014, The OpenBLAS Project


  ***********************************
  * Starting time: Wed May 20 12:40:34 2026
  * Host name:     c1-41
  * Process ID:    4146608
  * Working dir.:  /cluster/projects/nn14654k/ylvaos/basis_set_n_funcs/functionals/gga_c_pw91/SiH2/out
  ***********************************

Using LibXC functional ID 134 : Perdew & Wang 91
[ 1]  J. P. Perdew. In P. Ziesche and H. Eschrig, editors, Proceedings of the 75. WE-Heraeus-Seminar and 21st Annual International Symposium on Electronic Structure of Solids, 11. Berlin, 1991. Akademie Verlag.
[ 2]  J. P. Perdew, J. A. Chevary, S. H. Vosko, K. A. Jackson, M. R. Pederson, D. J. Singh, and C. Fiolhais.,  Phys. Rev. B 46, 6671 (1992)
[ 3]  J. P. Perdew, J. A. Chevary, S. H. Vosko, K. A. Jackson, M. R. Pederson, D. J. Singh, and C. Fiolhais.,  Phys. Rev. B 48, 4978 (1993)
Using LibXC functional ID 134 : Perdew & Wang 91
[ 1]  J. P. Perdew. In P. Ziesche and H. Eschrig, editors, Proceedings of the 75. WE-Heraeus-Seminar and 21st Annual International Symposium on Electronic Structure of Solids, 11. Berlin, 1991. Akademie Verlag.
[ 2]  J. P. Perdew, J. A. Chevary, S. H. Vosko, K. A. Jackson, M. R. Pederson, D. J. Singh, and C. Fiolhais.,  Phys. Rev. B 46, 6671 (1992)
[ 3]  J. P. Perdew, J. A. Chevary, S. H. Vosko, K. A. Jackson, M. R. Pederson, D. J. Singh, and C. Fiolhais.,  Phys. Rev. B 48, 4978 (1993)
Your calculation utilizes LibXC
by S. Lehtola, C. Steigemann, M. J. T. Oliveira & M. A. L. Marques
Please cite in your paper:
Lehtola, S.; Steigemann, C.; Oliveira, M.J.T.; Marques, M. A. L. Software X, 7, (2018), 1.
   

================================================================================

----- Orbital basis set information -----
Your calculation utilizes the basis: aug-cc-pVTZ 
    H, B-Ne : Obtained from the ccRepo (grant-hill.group.shef.ac.uk/ccrepo) Feb. 2017
              R. A. Kendall, T. H. Dunning, Jr., R. J. Harrison, J. Chem. Phys. 96, 6796 (1992)
         He : Obtained from the ccRepo (grant-hill.group.shef.ac.uk/ccrepo) Feb. 2017
              D. E. Woon, T. H. Dunning, Jr., J. Chem. Phys. 100, 2975 (1994)
  Li-Be, Na : Obtained from the ccRepo (grant-hill.group.shef.ac.uk/ccrepo) Feb. 2017
              B. P. Prascher, D. E. Woon, K. A. Peterson, T. H. Dunning, Jr., A. K. Wilson, Theor. Chem. Acc. 128, 69 (2011)
         Mg : Obtained from the Peterson Research Group Website (tyr0.chem.wsu.edu/~kipeters) Feb. 2017
              B. P. Prascher, D. E. Woon, K. A. Peterson, T. H. Dunning, Jr., A. K. Wilson, Theor. Chem. Acc. 128, 69 (2011)
      Al-Ar : Obtained from the ccRepo (grant-hill.group.shef.ac.uk/ccrepo) Feb. 2017
              D. E. Woon, T. H. Dunning, Jr., J. Chem. Phys. 98, 1358 (1993)
      Sc-Zn : Obtained from the ccRepo (grant-hill.group.shef.ac.uk/ccrepo) Feb. 2017
              N. B. Balabanov, K. A. Peterson, J. Chem. Phys. 123, 064107 (2005)
              N. B. Balabanov, K. A. Peterson, J. Chem. Phys. 125, 074110 (2006)
      Ga-Kr : Obtained from the ccRepo (grant-hill.group.shef.ac.uk/ccrepo) Feb. 2017
              A. K. Wilson, D. E. Woon, K. A. Peterson, T. H. Dunning, Jr., J. Chem. Phys. 110, 7667 (1999)
     Ag, Au : Obtained from the Peterson Research Group Website (tyr0.chem.wsu.edu/~kipeters) Feb. 2017
              K. A. Peterson, C. Puzzarini, Theor. Chem. Acc. 114, 283 (2005)

================================================================================
                                        WARNINGS
                       Please study these warnings very carefully!
================================================================================


================================================================================
                                       INPUT FILE
================================================================================
NAME = /cluster/projects/nn14654k/ylvaos/basis_set_n_funcs/functionals/gga_c_pw91/SiH2/inp/SiH2_gga_c_pw91_augccpvtz.inp
|  1> ! dft aug-cc-pVTZ TightSCF
|  2> %pal nprocs 8 end
|  3> 
|  4> %loc
|  5>   LocMet NewBoys
|  6>   Occ true
|  7> end
|  8> 
|  9> %method
| 10>   exchange None
| 11>   correlation gga_c_pw91
| 12> end
| 13> 
| 14> %elprop
| 15>   Dipole true
| 16>   Quadrupole true
| 17> end
| 18> 
| 19> * xyz 0 1
| 20> Si    0.000000000000   0.000000000000   0.000000000000
| 21> H    0.000000000000   0.000000000000  -1.514100000000
| 22> H    0.000000000000   1.513200000000   0.052800000000
| 23> *
| 24> 
| 25> 
| 26>                          ****END OF INPUT****
================================================================================

                       ****************************
                       * Single Point Calculation *
                       ****************************

---------------------------------
CARTESIAN COORDINATES (ANGSTROEM)
---------------------------------
  Si     0.000000    0.000000    0.000000
  H      0.000000    0.000000   -1.514100
  H      0.000000    1.513200    0.052800

----------------------------
CARTESIAN COORDINATES (A.U.)
----------------------------
  NO LB      ZA    FRAG     MASS         X           Y           Z
   0 Si   14.0000    0    28.086    0.000000    0.000000    0.000000
   1 H     1.0000    0     1.008    0.000000    0.000000   -2.861234
   2 H     1.0000    0     1.008    0.000000    2.859534    0.099778

--------------------------------
INTERNAL COORDINATES (ANGSTROEM)
--------------------------------
 Si     0   0   0     0.000000000000     0.00000000     0.00000000
 H      1   0   0     1.514100000000     0.00000000     0.00000000
 H      1   2   0     1.514120893456    91.99840755     0.00000000

---------------------------
INTERNAL COORDINATES (A.U.)
---------------------------
 Si     0   0   0     0.000000000000     0.00000000     0.00000000
 H      1   0   0     2.861234339370     0.00000000     0.00000000
 H      1   2   0     2.861273822280    91.99840755     0.00000000

---------------------
BASIS SET INFORMATION
---------------------
There are 2 groups of distinct atoms

 Group   1 Type Si  : 42s17p3d2f contracted to 6s5p3d2f pattern {131313111/77111/111/11}
 Group   2 Type H   : 6s3p2d contracted to 4s3p2d pattern {3111/111/11}

Atom   0Si   basis set group =>   1
Atom   1H    basis set group =>   2
Atom   2H    basis set group =>   2


           ************************************************************
           *        Program running with 8 parallel MPI-processes     *
           *              working on a common directory               *
           ************************************************************
------------------------------------------------------------------------------
                             ORCA STARTUP CALCULATIONS
------------------------------------------------------------------------------
------------------------------------------------------------------------------
                   ___                                                        
                  /   \      - P O W E R E D   B Y -                         
                 /     \                                                     
                 |  |  |   _    _      __       _____    __    __             
                 |  |  |  | |  | |    /  \     |  _  \  |  |  /  |          
                  \  \/   | |  | |   /    \    | | | |  |  | /  /          
                 / \  \   | |__| |  /  /\  \   | |_| |  |  |/  /          
                |  |  |   |  __  | /  /__\  \  |    /   |      \           
                |  |  |   | |  | | |   __   |  |    \   |  |\   \          
                \     /   | |  | | |  |  |  |  | |\  \  |  | \   \       
                 \___/    |_|  |_| |__|  |__|  |_| \__\ |__|  \__/        
                                                                              
                      - O R C A' S   B I G   F R I E N D -                    
                                      &                                       
                       - I N T E G R A L  F E E D E R -                       
                                                                              
 v1 FN, 2020, v2 2021, v3 2022-2024                                           
------------------------------------------------------------------------------


----------------------
SHARK INTEGRAL PACKAGE
----------------------

Number of atoms                             ...      3
Number of basis functions                   ...    121
Number of shells                            ...     49
Maximum angular momentum                    ...      3
Integral batch strategy                     ... SHARK/LIBINT Hybrid
RI-J (if used) integral strategy            ... SPLIT-RIJ (Revised 2003 algorithm where possible)
Printlevel                                  ...      1
Contraction scheme used                     ... PARTIAL GENERAL contraction
Prescreening option                         ... SCHWARTZ
   Thresh                                   ... 2.500e-11
   Tcut                                     ... 2.500e-12
   Tpresel                                  ... 2.500e-12 
Coulomb Range Separation                    ... NOT USED
Exchange Range Separation                   ... NOT USED
Multipole approximations                    ... NOT USED
Finite Nucleus Model                        ... NOT USED
CABS basis                                  ... NOT available
Auxiliary Coulomb fitting basis             ... NOT available
Auxiliary J/K fitting basis                 ... NOT available
Auxiliary Correlation fitting basis         ... NOT available
Auxiliary 'external' fitting basis          ... NOT available

Checking pre-screening integrals            ... done (  0.0 sec) Dimension = 49
Save PGC pre-screening integrals            ... done (  0.0 sec) Dimension = 49
Calculate PGC overlap integrals             ... done (  0.0 sec) Dimension = 34
Calculating pre-screening integrals (ORCA)  ... done (  0.1 sec) Dimension = 34
Shell pair information
Shell pair cut-off parameter TPreSel        ...   2.5e-12
Total number of shell pairs                 ...      1225
Shell pairs after pre-screening             ...      1223
Total number of primitive shell pairs       ...      1437
Primitive shell pairs kept                  ...      1377
          la=0 lb=0:    300 shell pairs
          la=1 lb=0:    384 shell pairs
          la=1 lb=1:    136 shell pairs
          la=2 lb=0:    168 shell pairs
          la=2 lb=1:    112 shell pairs
          la=2 lb=2:     28 shell pairs
          la=3 lb=0:     46 shell pairs
          la=3 lb=1:     32 shell pairs
          la=3 lb=2:     14 shell pairs
          la=3 lb=3:      3 shell pairs

Checking whether 4 symmetric matrices of dimension 121 fit in memory
:Max Core in MB      =   4096.00
 MB in use           =      3.20
 MB left             =   4092.80
 MB needed           =      0.23
 Data fit in memory  = YES
Calculating Nuclear repulsion               ... done (  0.0 sec) ENN=     10.028851096195 Eh

Diagonalization of the overlap matrix:
Smallest eigenvalue                        ... 3.295e-04
Time for diagonalization                   ...    0.001 sec
Threshold for overlap eigenvalues          ... 1.000e-07
Number of eigenvalues below threshold      ... 0
Time for construction of square roots      ...    0.022 sec
Total time needed                          ...    0.029 sec

-------------------
DFT GRID GENERATION
-------------------

General Integration Accuracy     IntAcc      ... 4.388
Radial Grid Type                 RadialGrid  ... OptM3 with GC (2021)
Angular Grid (max. ang.)         AngularGrid ... 4 (Lebedev-302)
Angular grid pruning method      GridPruning ... 4 (adaptive)
Weight generation scheme         WeightScheme... mBecke (2022)
Basis function cutoff            BFCut       ... 1.0000e-11
Integration weight cutoff        WCut        ... 1.0000e-14
Partially contracted basis set               ... off
Rotationally invariant grid construction     ... off
Angular grids for H and He will be reduced by one unit
Diffuse basis detected: some atoms will have their outermost
                        angular grid increased by 1.

Total number of grid points                  ...    14794
Total number of batches                      ...      232
Average number of points per batch           ...       63
Average number of grid points per atom       ...     4931

---------------------
SHARK GRID GENERATION
---------------------

General Integration Accuracy     IntAcc      ... 4.388
Radial Grid Type                 RadialGrid  ... OptM3 with GC (2021)
Angular Grid (max. ang.)         AngularGrid ... 4 (Lebedev-302)
Angular grid pruning method      GridPruning ... 4 (adaptive)
Weight generation scheme         WeightScheme... mBecke (2022)
Basis function cutoff            BFCut       ... 1.0000e-11
Integration weight cutoff        WCut        ... 1.0000e-14
Partially contracted basis set               ... off
Rotationally invariant grid construction     ... off
Angular grids for H and He will be reduced by one unit
Diffuse basis detected: some atoms will have their outermost
                        angular grid increased by 1.
Core-polarized basis detected: some atoms will have their core
                               angular grid increased.
Steep s-basis detected: some atoms will have their radial
                        grid points doubled.

Total number of grid points                  ...    27189
Total number of batches                      ...      425
Average number of points per batch           ...       63
Average number of grid points per atom       ...     9063
Grids setup in   0.2 sec
Initializing property integral containers    ... done (  0.0 sec)

SHARK setup successfully completed in   0.4 seconds

Maximum memory used throughout the entire STARTUP-calculation: 48.0 MB


           ************************************************************
           *        Program running with 8 parallel MPI-processes     *
           *              working on a common directory               *
           ************************************************************
-------------------------------------------------------------------------------
                                 ORCA GUESS
                   Start orbitals & Density for SCF / CASSCF
-------------------------------------------------------------------------------

------------
SCF SETTINGS
------------
Hamiltonian:
 Density Functional     Method          .... DFT(GTOs)
 Exchange Functional    Exchange        .... no Exchange
  Functional kind                       .... Correlation
  Functional name                       .... Perdew & Wang 91
  Functional family                     .... GGA
  Functional refs                              
    [ 0] J. P. Perdew. In P. Ziesche and H. Eschrig, editors, Proceedings of the 75. WE-Heraeus-Seminar and 21st Annual International Symposium on Electronic Structure of Solids, 11. Berlin, 1991. Akademie Verlag.
    [ 1] J. P. Perdew, J. A. Chevary, S. H. Vosko, K. A. Jackson, M. R. Pederson, D. J. Singh, and C. Fiolhais.,  Phys. Rev. B 46, 6671 (1992), doi: 10.1103/PhysRevB.46.6671
    [ 2] J. P. Perdew, J. A. Chevary, S. H. Vosko, K. A. Jackson, M. R. Pederson, D. J. Singh, and C. Fiolhais.,  Phys. Rev. B 48, 4978 (1993), doi: 10.1103/PhysRevB.48.4978.2
  Functional external parameters        .... 0
 Gradients option       PostSCFGGA      .... off


General Settings:
 Integral files         IntName         .... /cluster/projects/nn14654k/ylvaos/basis_set_n_funcs/functionals/gga_c_pw91/SiH2/inp/SiH2_gga_c_pw91_augccpvtz
 Hartree-Fock type      HFTyp           .... RHF
 Total Charge           Charge          ....    0
 Multiplicity           Mult            ....    1
 Number of Electrons    NEL             ....   16
 Basis Dimension        Dim             ....   96
 Nuclear Repulsion      ENuc            ....     10.0288510962 Eh

Convergence Acceleration:
 AO-DIIS                CNVDIIS         .... on
   Start iteration      DIISMaxIt       ....    12
   Startup error        DIISStart       ....  0.200000
   # of expansion vecs  DIISMaxEq       ....     5
   Bias factor          DIISBfac        ....   1.050
   Max. coefficient     DIISMaxC        ....  10.000
 MO-DIIS                CNVKDIIS        .... off
 Trust-Rad. Augm. Hess. CNVTRAH         .... auto
   Auto Start mean grad. ratio tolernc. ....  1.125000
   Auto Start start iteration           ....    50
   Auto Start num. interpolation iter.  ....    10
   Max. Number of Micro iterations      ....    24
   Max. Number of Macro iterations      .... Maxiter - #DIIS iter
   Number of Davidson start vectors     ....     2
   Converg. threshold    (grad. norm)   ....   1.000e-05
   Grad. Scal. Fac. for Micro threshold ....   0.100
   Minimum threshold for Micro iter.    ....   1.000e-02
   NR start threshold (gradient norm)   ....   1.000e-04
   Initial trust radius                 ....   0.400
   Minimum AH scaling param. (alpha)    ....   1.000
   Maximum AH scaling param. (alpha)    .... 1000.000
   Quad. conv. algorithm                .... NR
   White noise on init. David. guess    .... on
   Maximum white noise                  ....   0.010
   Pseudo random numbers                .... off
   Inactive MOs                         .... canonical
   Orbital update algorithm             .... Taylor
   Preconditioner                       .... Diag
   Full preconditioner red. dimension   ....   250
 SOSCF                 CNVSOSCF           .... on
   Start iteration     SOSCFMaxIt         ....   150
   Startup grad/error  SOSCFStart         ....  0.003300
   Hessian update      SOSCFHessUp        .... L-BFGS
   Autom. constraints  SOSCFAutoConstrain .... off
 Level Shifting         CNVShift        .... on
   Level shift para.    LevelShift      ....    0.2500
   Turn off err/grad.   ShiftErr        ....    0.0010
 Zerner damping         CNVZerner       .... off
 Static damping         CNVDamp         .... on
   Fraction old density DampFac         ....    0.7000
   Max. Damping (<1)    DampMax         ....    0.9800
   Min. Damping (>=0)   DampMin         ....    0.0000
   Turn off err/grad.   DampErr         ....    0.1000

SCF Procedure:
 Maximum # iterations   MaxIter         ....   125
 SCF integral mode      SCFMode         .... Direct
   Integral package                     .... SHARK and LIBINT hybrid scheme
 Reset frequency        DirectResetFreq ....    20
 Integral Threshold     Thresh          ....  2.500e-11 Eh
 Primitive CutOff       TCut            ....  2.500e-12 Eh

Convergence Tolerance:
 Convergence Check Mode ConvCheckMode   .... Total+1el-Energy
 Convergence forced     ConvForced      .... 0
 Energy Change          TolE            ....  1.000e-08 Eh
 1-El. energy change                    ....  1.000e-05 Eh
 Orbital Gradient       TolG            ....  1.000e-05
 Orbital Rotation angle TolX            ....  1.000e-05
 DIIS Error             TolErr          ....  5.000e-07

------------------------------
INITIAL GUESS: MODEL POTENTIAL
------------------------------
Loading Hartree-Fock densities                     ... done
Calculating cut-offs                               ... done
Initializing the effective Hamiltonian             ... done
Setting up the integral package (SHARK)            ... done
Starting the Coulomb interaction                   ... done (   0.0 sec)
Making the grid                                    ... done (   0.0 sec)
Mapping shells                                     ... done
Starting the XC term evaluation                    ... done (   0.0 sec)
  promolecular density results
     # of electrons  =     15.999547908
     EX              =      0.000000000
     EC              =     -0.604133675
     EX+EC           =     -0.604133675
Transforming the Hamiltonian                       ... done (   0.0 sec)
Diagonalizing the Hamiltonian                      ... done (   0.0 sec)
Back transforming the eigenvectors                 ... done (   0.0 sec)
Now organizing SCF variables                       ... done
                      ------------------
                      INITIAL GUESS DONE (   0.2 sec)
                      ------------------
             **** ENERGY FILE WAS UPDATED (/cluster/projects/nn14654k/ylvaos/basis_set_n_funcs/functionals/gga_c_pw91/SiH2/inp/SiH2_gga_c_pw91_augccpvtz.en.tmp) ****
Finished Guess after   0.3 sec
Maximum memory used throughout the entire GUESS-calculation: 6.9 MB


           ************************************************************
           *        Program running with 8 parallel MPI-processes     *
           *              working on a common directory               *
           ************************************************************

-------------------------------------------------------------------------------------------
                                      ORCA LEAN-SCF
                              memory conserving SCF solver
-------------------------------------------------------------------------------------------

----------------------------------------D-I-I-S--------------------------------------------
Iteration    Energy (Eh)           Delta-E    RMSDP     MaxDP     DIISErr   Damp  Time(sec)
-------------------------------------------------------------------------------------------
               ***  Starting incremental Fock matrix formation  ***
    1    -269.5813342534589196     0.00e+00  7.03e-02  6.59e-01  8.60e-01  0.700   0.2
Warning: op=0 Small HOMO/LUMO gap (   0.011) - skipping pre-diagonalization
         Will do a full diagonalization
    2    -269.8600513009295128    -2.79e-01  6.11e-02  5.91e-01  4.12e-01  0.700   0.2
                               ***Turning on AO-DIIS***
    3    -269.9816716055805728    -1.22e-01  4.33e-02  4.23e-01  1.83e-01  0.700   0.2
    4    -270.0428851579906109    -6.12e-02  3.17e-02  2.99e-01  1.08e-01  0.700   0.1
    5    -270.0810937062695416    -3.82e-02  2.34e-02  2.05e-01  6.41e-02  0.700   0.1
    6    -270.1071678240546703    -2.61e-02  5.70e-02  4.58e-01  3.98e-02  0.000   0.1
    7    -270.1673838259703757    -6.02e-02  3.54e-03  2.65e-02  5.74e-03  0.000   0.2
                              *** Initializing SOSCF ***
---------------------------------------S-O-S-C-F--------------------------------------
Iteration    Energy (Eh)           Delta-E    RMSDP     MaxDP     MaxGrad    Time(sec)
--------------------------------------------------------------------------------------
    8    -270.1677891146076718    -4.05e-04  1.39e-03  1.36e-02  3.01e-03     0.1
               *** Restarting incremental Fock matrix formation ***
    9    -270.1679081718627913    -1.19e-04  3.35e-03  2.64e-02  2.11e-03     0.2
   10    -270.1679684961877115    -6.03e-05  2.74e-03  2.02e-02  5.25e-04     0.2
   11    -270.1679775150310547    -9.02e-06  1.93e-04  1.05e-03  4.34e-04     0.2
   12    -270.1679798449788450    -2.33e-06  1.20e-04  1.00e-03  8.64e-05     0.3
   13    -270.1679799059362495    -6.10e-08  5.34e-05  4.05e-04  2.73e-05     0.2
   14    -270.1679799162057520    -1.03e-08  9.88e-06  7.26e-05  5.08e-06     0.2
   15    -270.1679799170087790    -8.03e-10  4.08e-06  2.42e-05  4.63e-06     0.3
                 **** Energy Check signals convergence ****

               *****************************************************
               *                     SUCCESS                       *
               *           SCF CONVERGED AFTER  15 CYCLES          *
               *****************************************************

             **** ENERGY FILE WAS UPDATED (/cluster/projects/nn14654k/ylvaos/basis_set_n_funcs/functionals/gga_c_pw91/SiH2/inp/SiH2_gga_c_pw91_augccpvtz.en.tmp) ****

----------------
TOTAL SCF ENERGY
----------------

Total Energy       :       -270.16797991711582 Eh           -7351.64448 eV

Components:
Nuclear Repulsion  :         10.02885109619548 Eh             272.89891 eV
Electronic Energy  :       -280.19683101331134 Eh           -7624.54340 eV
One Electron Energy:       -413.02835926419243 Eh          -11239.07304 eV
Two Electron Energy:        132.83152825088112 Eh            3614.52964 eV

Virial components:
Potential Energy   :       -547.95293434629934 Eh          -14910.55738 eV
Kinetic Energy     :        277.78495442918359 Eh            7558.91290 eV
Virial Ratio       :          1.97257960018850

DFT components:
N(Alpha)           :        7.999541481864 electrons
N(Beta)            :        7.999541481864 electrons
N(Total)           :       15.999082963728 electrons
E(X)               :        0.000000000000 Eh       
E(C)               :       -0.581991263363 Eh       
E(XC)              :       -0.581991263363 Eh       

---------------
SCF CONVERGENCE
---------------

  Last Energy change         ...    8.0303e-10  Tolerance :   1.0000e-08
  Last MAX-Density change    ...    2.4237e-05  Tolerance :   1.0000e-07
  Last RMS-Density change    ...    4.0829e-06  Tolerance :   5.0000e-09
  Last DIIS Error            ...    3.0102e-03  Tolerance :   5.0000e-07
  Last Orbital Gradient      ...    4.6336e-06  Tolerance :   1.0000e-05
  Last Orbital Rotation      ...    6.1226e-06  Tolerance :   1.0000e-05


----------------
ORBITAL ENERGIES
----------------

  NO   OCC          E(Eh)            E(eV) 
   0   2.0000     -61.229900     -1666.1503 
   1   2.0000      -4.114547      -111.9625 
   2   2.0000      -2.594875       -70.6102 
   3   2.0000      -2.583946       -70.3127 
   4   2.0000      -2.582922       -70.2849 
   5   2.0000      -0.256622        -6.9830 
   6   2.0000      -0.090336        -2.4582 
   7   2.0000      -0.035631        -0.9696 
   8   0.0000      -0.020489        -0.5575 
   9   0.0000       0.029578         0.8049 
  10   0.0000       0.058255         1.5852 
  11   0.0000       0.066896         1.8203 
  12   0.0000       0.067220         1.8292 
  13   0.0000       0.075213         2.0467 
  14   0.0000       0.119277         3.2457 
  15   0.0000       0.130040         3.5386 
  16   0.0000       0.131383         3.5751 
  17   0.0000       0.133001         3.6191 
  18   0.0000       0.142316         3.8726 
*Only the first 10 virtual orbitals were printed.

                    ********************************
                    * MULLIKEN POPULATION ANALYSIS *
                    ********************************

-----------------------
MULLIKEN ATOMIC CHARGES
-----------------------
   0 Si:   -0.531844
   1 H :    0.265928
   2 H :    0.265916
Sum of atomic charges:    0.0000000

--------------------------------
MULLIKEN REDUCED ORBITAL CHARGES
--------------------------------
  0 Sis       :     5.538570  s :     5.538570
      pz      :     3.399124  p :     8.809736
      px      :     1.995781
      py      :     3.414831
      dz2     :     0.102970  d :     0.177171
      dxz     :    -0.000003
      dyz     :     0.008836
      dx2y2   :     0.065370
      dxy     :    -0.000003
      f0      :     0.003066  f :     0.006368
      f+1     :     0.000001
      f-1     :     0.002018
      f+2     :     0.000004
      f-2     :     0.000000
      f+3     :     0.000001
      f-3     :     0.001278

  1 H s       :     0.678703  s :     0.678703
      pz      :     0.061402  p :     0.048440
      px      :     0.000990
      py      :    -0.013953
      dz2     :     0.007168  d :     0.006929
      dxz     :     0.001121
      dyz     :    -0.001063
      dx2y2   :    -0.000298
      dxy     :     0.000000

  2 H s       :     0.678714  s :     0.678714
      pz      :    -0.013847  p :     0.048441
      px      :     0.000990
      py      :     0.061297
      dz2     :     0.001064  d :     0.006930
      dxz     :     0.000005
      dyz     :    -0.000922
      dx2y2   :     0.005667
      dxy     :     0.001117



                     *******************************
                     * LOEWDIN POPULATION ANALYSIS *
                     *******************************

----------------------
LOEWDIN ATOMIC CHARGES
----------------------
   0 Si:    0.859329
   1 H :   -0.429674
   2 H :   -0.429655

-------------------------------
LOEWDIN REDUCED ORBITAL CHARGES
-------------------------------
  0 Sis       :     4.957998  s :     4.957998
      pz      :     3.012458  p :     8.012385
      px      :     1.975322
      py      :     3.024605
      dz2     :     0.087656  d :     0.144883
      dxz     :     0.000308
      dyz     :     0.003511
      dx2y2   :     0.053077
      dxy     :     0.000330
      f0      :     0.010974  f :     0.025405
      f+1     :     0.000059
      f-1     :     0.008552
      f+2     :     0.001628
      f-2     :     0.000003
      f+3     :     0.000098
      f-3     :     0.004091

  1 H s       :     0.892036  s :     0.892036
      pz      :     0.226270  p :     0.405603
      px      :     0.002748
      py      :     0.176585
      dz2     :     0.063181  d :     0.132034
      dxz     :     0.009185
      dyz     :     0.058010
      dx2y2   :     0.001651
      dxy     :     0.000008

  2 H s       :     0.892032  s :     0.892032
      pz      :     0.174784  p :     0.405592
      px      :     0.002748
      py      :     0.228061
      dz2     :     0.017264  d :     0.132031
      dxz     :     0.000000
      dyz     :     0.057106
      dx2y2   :     0.048469
      dxy     :     0.009191



                      *****************************
                      * MAYER POPULATION ANALYSIS *
                      *****************************

  NA   - Mulliken gross atomic population
  ZA   - Total nuclear charge
  QA   - Mulliken gross atomic charge
  VA   - Mayer's total valence
  BVA  - Mayer's bonded valence
  FA   - Mayer's free valence

  ATOM       NA         ZA         QA         VA         BVA        FA
  0 Si    14.5318    14.0000    -0.5318     2.0621     2.0621     0.0000
  1 H      0.7341     1.0000     0.2659     1.0130     1.0130     0.0000
  2 H      0.7341     1.0000     0.2659     1.0130     1.0130    -0.0000

  Mayer bond orders larger than 0.100000
B(  0-Si,  1-H ) :   1.0310 B(  0-Si,  2-H ) :   1.0310 

-------
TIMINGS
-------

Total SCF time: 0 days 0 hours 0 min 3 sec 

Total time                  ....       3.199 sec
Sum of individual times     ....       2.997 sec  ( 93.7%)

SCF preparation             ....       0.265 sec  (  8.3%)
Fock matrix formation       ....       1.947 sec  ( 60.9%)
  Startup                   ....       0.026 sec  (  1.3% of F)
  Coulomb formation         ....       0.538 sec  ( 27.6% of F)
  XC integration            ....       0.840 sec  ( 43.2% of F)
    Basis function eval.    ....       0.035 sec  (  4.1% of XC)
    Density eval.           ....       0.016 sec  (  1.9% of XC)
    XC-Functional eval.     ....       0.013 sec  (  1.5% of XC)
    XC-Potential eval.      ....       0.040 sec  (  4.7% of XC)
Diagonalization             ....       0.000 sec  (  0.0%)
Density matrix formation    ....       0.306 sec  (  9.6%)
Total Energy calculation    ....       0.036 sec  (  1.1%)
Population analysis         ....       0.028 sec  (  0.9%)
Orbital Transformation      ....       0.069 sec  (  2.2%)
Orbital Orthonormalization  ....       0.000 sec  (  0.0%)
DIIS solution               ....       0.164 sec  (  5.1%)
SOSCF solution              ....       0.181 sec  (  5.7%)
Finished LeanSCF after   3.2 sec

Maximum memory used throughout the entire LEANSCF-calculation: 11.1 MB


           ************************************************************
           *        Program running with 8 parallel MPI-processes     *
           *              working on a common directory               *
           ************************************************************

------------------------------------------------------------------------------
                         ORCA PROPERTY INTEGRAL CALCULATIONS
------------------------------------------------------------------------------

GBWName                                   ... /cluster/projects/nn14654k/ylvaos/basis_set_n_funcs/functionals/gga_c_pw91/SiH2/inp/SiH2_gga_c_pw91_augccpvtz.gbw
Number of atoms                           ...      3
Number of basis functions                 ...    121
Max core memory                           ...   4096 MB

Dipole integrals                          ... YES
Quadrupole integrals                      ... YES
Linear momentum integrals                 ...  NO
Angular momentum integrals                ...  NO
Higher moments length integrals           ...  NO
Higher moments velocity integrals         ...  NO
Kinetic energy integrals                  ...  NO
GIAO right hand sides                     ...  NO
GIAO dipole derivative integrals          ...  NO
SOC integrals                             ...  NO
EPR diamagnetic integrals (GIAO)          ...  NO
EPR gauge integrals                       ...  NO
Field gradient integrals                  ...  NO (   0 nuclei)
Spin-dipole/Fermi contact integrals       ...  NO (   0 nuclei)
Contact density integrals                 ...  NO (   0 nuclei)
Nucleus-orbit integrals                   ...  NO (   0 nuclei)
Geometric perturbations                   ...  NO (   3 nuclei)

Choice of electric origin   ... Center of mass
Position of electric origin ... (  0.0000,  0.0958, -0.0925) 
Choice of magnetic origin   ... GIAO
Position of magnetic origin ... (  0.0000,  0.0000,  0.0000) 

Calculating integrals                     ... Electric Dipole (Length)     done (  0.0 sec)
Calculating integrals                     ... Electric Quadrupole (Length) done (  0.0 sec)

Property integrals calculated in   0.1 sec

Maximum memory used throughout the entire PROPINT-calculation: 7.3 MB
------------------------------------------------------------------------------
                           ORCA ORBITAL LOCALIZATION
------------------------------------------------------------------------------

Input orbitals are from                  ... /cluster/projects/nn14654k/ylvaos/basis_set_n_funcs/functionals/gga_c_pw91/SiH2/inp/SiH2_gga_c_pw91_augccpvtz.gbw
Output orbitals are to                   ... /cluster/projects/nn14654k/ylvaos/basis_set_n_funcs/functionals/gga_c_pw91/SiH2/inp/SiH2_gga_c_pw91_augccpvtz.loc
Max. number of iterations                ... 128
Localizations seeded randomly            ... on
Convergence tolerance                    ... 1.000e-06
Threshold for strong local MOs           ... 9.500e-01
Threshold for bond MOs                   ... 8.500e-01
Operator                                 ... 0
Orbital range for localization           ... 1 to 7
Localization criterion                   ... NEW-BOYS
Doing the dipole integrals               ... o.k.
Initial value of the localization sum :     3.037529
ITERATION   0 : L=   10.2162236105 DL=  7.18e+00 (AVERGE_DL)=    0.5846730568 
ITERATION   1 : L=   10.8036421531 DL=  5.87e-01 (AVERGE_DL)=    0.1672492498 
ITERATION   2 : L=   10.8158582402 DL=  1.22e-02 (AVERGE_DL)=    0.0241188398 
ITERATION   3 : L=   10.8159447047 DL=  8.65e-05 (AVERGE_DL)=    0.0020291282 
ITERATION   4 : L=   10.8160458938 DL=  1.01e-04 (AVERGE_DL)=    0.0021951147 
ITERATION   5 : L=   10.8161474513 DL=  1.02e-04 (AVERGE_DL)=    0.0021991064 
ITERATION   6 : L=   10.8162524730 DL=  1.05e-04 (AVERGE_DL)=    0.0022362995 
ITERATION   7 : L=   10.8163595757 DL=  1.07e-04 (AVERGE_DL)=    0.0022583464 
ITERATION   8 : L=   10.8164682352 DL=  1.09e-04 (AVERGE_DL)=    0.0022747003 
ITERATION   9 : L=   10.8165776432 DL=  1.09e-04 (AVERGE_DL)=    0.0022825213 
ITERATION  10 : L=   10.8166870322 DL=  1.09e-04 (AVERGE_DL)=    0.0022823231 
ITERATION  11 : L=   10.8167956296 DL=  1.09e-04 (AVERGE_DL)=    0.0022740502 
ITERATION  12 : L=   10.8169026990 DL=  1.07e-04 (AVERGE_DL)=    0.0022579961 
ITERATION  13 : L=   10.8170075560 DL=  1.05e-04 (AVERGE_DL)=    0.0022345440 
ITERATION  14 : L=   10.8171095872 DL=  1.02e-04 (AVERGE_DL)=    0.0022042305 
ITERATION  15 : L=   10.8172082640 DL=  9.87e-05 (AVERGE_DL)=    0.0021676932 
ITERATION  16 : L=   10.8173031518 DL=  9.49e-05 (AVERGE_DL)=    0.0021256679 
ITERATION  17 : L=   10.8173939134 DL=  9.08e-05 (AVERGE_DL)=    0.0020789384 
ITERATION  18 : L=   10.8174803097 DL=  8.64e-05 (AVERGE_DL)=    0.0020283269 
ITERATION  19 : L=   10.8175621944 DL=  8.19e-05 (AVERGE_DL)=    0.0019746573 
ITERATION  20 : L=   10.8176395068 DL=  7.73e-05 (AVERGE_DL)=    0.0019187341 
ITERATION  21 : L=   10.8177122615 DL=  7.28e-05 (AVERGE_DL)=    0.0018613189 
ITERATION  22 : L=   10.8177805382 DL=  6.83e-05 (AVERGE_DL)=    0.0018031293 
ITERATION  23 : L=   10.8178444696 DL=  6.39e-05 (AVERGE_DL)=    0.0017448072 
ITERATION  24 : L=   10.8179042291 DL=  5.98e-05 (AVERGE_DL)=    0.0016869171 
ITERATION  25 : L=   10.8179600214 DL=  5.58e-05 (AVERGE_DL)=    0.0016299623 
ITERATION  26 : L=   10.8180120698 DL=  5.20e-05 (AVERGE_DL)=    0.0015743230 
ITERATION  27 : L=   10.8180606097 DL=  4.85e-05 (AVERGE_DL)=    0.0015203369 
ITERATION  28 : L=   10.8181058831 DL=  4.53e-05 (AVERGE_DL)=    0.0014682898 
ITERATION  29 : L=   10.8181481281 DL=  4.22e-05 (AVERGE_DL)=    0.0014183325 
ITERATION  30 : L=   10.8181875764 DL=  3.94e-05 (AVERGE_DL)=    0.0013705808 
ITERATION  31 : L=   10.8182244507 DL=  3.69e-05 (AVERGE_DL)=    0.0013251108 
ITERATION  32 : L=   10.8182589606 DL=  3.45e-05 (AVERGE_DL)=    0.0012819230 
ITERATION  33 : L=   10.8182913017 DL=  3.23e-05 (AVERGE_DL)=    0.0012409884 
ITERATION  34 : L=   10.8183216547 DL=  3.04e-05 (AVERGE_DL)=    0.0012022399 
ITERATION  35 : L=   10.8183501848 DL=  2.85e-05 (AVERGE_DL)=    0.0011655800 
ITERATION  36 : L=   10.8183770421 DL=  2.69e-05 (AVERGE_DL)=    0.0011308939 
ITERATION  37 : L=   10.8184023623 DL=  2.53e-05 (AVERGE_DL)=    0.0010980551 
ITERATION  38 : L=   10.8184262667 DL=  2.39e-05 (AVERGE_DL)=    0.0010669136 
ITERATION  39 : L=   10.8184488642 DL=  2.26e-05 (AVERGE_DL)=    0.0010373371 
ITERATION  40 : L=   10.8184702512 DL=  2.14e-05 (AVERGE_DL)=    0.0010091727 
ITERATION  41 : L=   10.8184905138 DL=  2.03e-05 (AVERGE_DL)=    0.0009822864 
ITERATION  42 : L=   10.8185097281 DL=  1.92e-05 (AVERGE_DL)=    0.0009565380 
ITERATION  43 : L=   10.8185279616 DL=  1.82e-05 (AVERGE_DL)=    0.0009318067 
ITERATION  44 : L=   10.8185452742 DL=  1.73e-05 (AVERGE_DL)=    0.0009079711 
ITERATION  45 : L=   10.8185617193 DL=  1.64e-05 (AVERGE_DL)=    0.0008849290 
ITERATION  46 : L=   10.8185773443 DL=  1.56e-05 (AVERGE_DL)=    0.0008625798 
ITERATION  47 : L=   10.8185921917 DL=  1.48e-05 (AVERGE_DL)=    0.0008408467 
ITERATION  48 : L=   10.8186063000 DL=  1.41e-05 (AVERGE_DL)=    0.0008196486 
ITERATION  49 : L=   10.8186197041 DL=  1.34e-05 (AVERGE_DL)=    0.0007989304 
ITERATION  50 : L=   10.8186324359 DL=  1.27e-05 (AVERGE_DL)=    0.0007786379 
ITERATION  51 : L=   10.8186445245 DL=  1.21e-05 (AVERGE_DL)=    0.0007587118 
ITERATION  52 : L=   10.8186559974 DL=  1.15e-05 (AVERGE_DL)=    0.0007391425 
ITERATION  53 : L=   10.8186668800 DL=  1.09e-05 (AVERGE_DL)=    0.0007198730 
ITERATION  54 : L=   10.8186771969 DL=  1.03e-05 (AVERGE_DL)=    0.0007009155 
ITERATION  55 : L=   10.8186869709 DL=  9.77e-06 (AVERGE_DL)=    0.0006822217 
ITERATION  56 : L=   10.8186962240 DL=  9.25e-06 (AVERGE_DL)=    0.0006637945 
ITERATION  57 : L=   10.8187049776 DL=  8.75e-06 (AVERGE_DL)=    0.0006456328 
ITERATION  58 : L=   10.8187132523 DL=  8.27e-06 (AVERGE_DL)=    0.0006277195 
ITERATION  59 : L=   10.8187210682 DL=  7.82e-06 (AVERGE_DL)=    0.0006100681 
ITERATION  60 : L=   10.8187284447 DL=  7.38e-06 (AVERGE_DL)=    0.0005926737 
ITERATION  61 : L=   10.8187354004 DL=  6.96e-06 (AVERGE_DL)=    0.0005755240 
ITERATION  62 : L=   10.8187419538 DL=  6.55e-06 (AVERGE_DL)=    0.0005586275 
ITERATION  63 : L=   10.8187481232 DL=  6.17e-06 (AVERGE_DL)=    0.0005420139 
ITERATION  64 : L=   10.8187539266 DL=  5.80e-06 (AVERGE_DL)=    0.0005256938 
ITERATION  65 : L=   10.8187593808 DL=  5.45e-06 (AVERGE_DL)=    0.0005096321 
ITERATION  66 : L=   10.8187645027 DL=  5.12e-06 (AVERGE_DL)=    0.0004938607 
ITERATION  67 : L=   10.8187693089 DL=  4.81e-06 (AVERGE_DL)=    0.0004783995 
ITERATION  68 : L=   10.8187738148 DL=  4.51e-06 (AVERGE_DL)=    0.0004632159 
ITERATION  69 : L=   10.8187780363 DL=  4.22e-06 (AVERGE_DL)=    0.0004483575 
ITERATION  70 : L=   10.8187819879 DL=  3.95e-06 (AVERGE_DL)=    0.0004337847 
ITERATION  71 : L=   10.8187856845 DL=  3.70e-06 (AVERGE_DL)=    0.0004195571 
ITERATION  72 : L=   10.8187891396 DL=  3.46e-06 (AVERGE_DL)=    0.0004056218 
ITERATION  73 : L=   10.8187923670 DL=  3.23e-06 (AVERGE_DL)=    0.0003920289 
ITERATION  74 : L=   10.8187953792 DL=  3.01e-06 (AVERGE_DL)=    0.0003787327 
ITERATION  75 : L=   10.8187981892 DL=  2.81e-06 (AVERGE_DL)=    0.0003658013 
ITERATION  76 : L=   10.8188008082 DL=  2.62e-06 (AVERGE_DL)=    0.0003531456 
ITERATION  77 : L=   10.8188032482 DL=  2.44e-06 (AVERGE_DL)=    0.0003408702 
ITERATION  78 : L=   10.8188055194 DL=  2.27e-06 (AVERGE_DL)=    0.0003288622 
ITERATION  79 : L=   10.8188076328 DL=  2.11e-06 (AVERGE_DL)=    0.0003172342 
ITERATION  80 : L=   10.8188095975 DL=  1.96e-06 (AVERGE_DL)=    0.0003058714 
ITERATION  81 : L=   10.8188114236 DL=  1.83e-06 (AVERGE_DL)=    0.0002948874 
ITERATION  82 : L=   10.8188131194 DL=  1.70e-06 (AVERGE_DL)=    0.0002841720 
ITERATION  83 : L=   10.8188146939 DL=  1.57e-06 (AVERGE_DL)=    0.0002738121 
ITERATION  84 : L=   10.8188161543 DL=  1.46e-06 (AVERGE_DL)=    0.0002637169 
ITERATION  85 : L=   10.8188175089 DL=  1.35e-06 (AVERGE_DL)=    0.0002539730 
ITERATION  86 : L=   10.8188187644 DL=  1.26e-06 (AVERGE_DL)=    0.0002445153 
ITERATION  87 : L=   10.8188199275 DL=  1.16e-06 (AVERGE_DL)=    0.0002353337 
ITERATION  88 : L=   10.8188210045 DL=  1.08e-06 (AVERGE_DL)=    0.0002264683 
ITERATION  89 : L=   10.8188220015 DL=  9.97e-07 (AVERGE_DL)=    0.0002178878 
LOCALIZATION SUM CONVERGED


--------------------------------------------------------------------------------
                    LOCALIZED MOLECULAR ORBITAL COMPOSITIONS
--------------------------------------------------------------------------------

The Mulliken populations for each LMO on each atom are computed
The LMO`s will be ordered according to atom index and type
  (A) Strongly localized MO`s have populations of >=0.950 on one atom
  (B) Two center bond orbitals have populations of >=0.850 on two atoms
  (C) Other MO`s are considered to be `delocalized`

FOUND  -   5 strongly local MO`s
       -   2 two center bond MO`s
       -   0 significantly delocalized MO`s

Rather strongly localized orbitals:
MO   5:   0Si -   0.951421
MO   4:   0Si -   0.985082
MO   3:   0Si -   0.986228
MO   2:   0Si -   1.004997
MO   1:   0Si -   0.986444
Bond-like localized orbitals:
MO   7:   2H  -   0.335326  and   0Si -   0.675227
MO   6:   1H  -   0.335297  and   0Si -   0.675242
Localized MO's were stored in: /cluster/projects/nn14654k/ylvaos/basis_set_n_funcs/functionals/gga_c_pw91/SiH2/inp/SiH2_gga_c_pw91_augccpvtz.loc

-------------------------   --------------------
FINAL SINGLE POINT ENERGY      -270.167979917116
-------------------------   --------------------



           ************************************************************
           *        Program running with 8 parallel MPI-processes     *
           *              working on a common directory               *
           ************************************************************

------------------------------------------------------------------------------
                              ORCA PROPERTY CALCULATIONS
------------------------------------------------------------------------------

GBWName                                 ... /cluster/projects/nn14654k/ylvaos/basis_set_n_funcs/functionals/gga_c_pw91/SiH2/inp/SiH2_gga_c_pw91_augccpvtz.gbw
Number of atoms                         ...      3
Number of basis functions               ...    121
Max core memory                         ...   4096 MB

Electric properties:
Dipole moment                           ... YES
Quadrupole moment                       ... YES
Static polarizability (Dipole/Dipole)   ...  NO
Static polarizability (Dipole/Quad.)    ...  NO
Static polarizability (Quad./Quad.)     ...  NO
Static polarizability (Velocity)        ...  NO
Static hyperpolarizability              ...  NO

Atomic electric properties:
Dipole moment                           ...  NO
Quadrupole moment                       ...  NO
Static polarizability                   ...  NO

Choice of electric origin               ... Center of mass
Position of electric origin             ...     0.000000     0.095755    -0.092471

General magnetic properties:
Magnetizability                         ...  NO

EPR properties:
g-Tensor (aka g-matrix)                 ...  NO
Zero-Field splitting spin-orbit         ...  NO
Zero-field splitting spin-spin          ...  NO
Hyperfine couplings                     ...  NO (   0 nuclei)
Quadrupole couplings                    ...  NO (   0 nuclei)
Contact density                         ...  NO (   0 nuclei)

NMR properties:
Chemical shifts                         ...  NO (   0 nuclei)
Spin-rotation constants                 ...  NO (   0 nuclei)
Spin-spin couplings                     ...  NO (   0 nuclei,    0 pairs)

Choice of magnetic origin               ... GIAO
Position of magnetic origin             ...     0.000000     0.000000     0.000000

Properties with geometric perturbations:
SCF Hessian                             ...  NO
IR spectrum                             ...  NO
VCD spectrum                            ...  NO
X-ray spectroscopy properties:
SCF XES/XAS/RIXS spectra                ...  NO

SCF SOC stabilization energy            ...  NO
Diagonal Born-Oppenheimer correction    ...  NO

-------------
DIPOLE MOMENT
-------------

Method             : SCF
Type of density    : Electron Density
Multiplicity       :   1
Irrep              :   0
Energy             :  -270.1679799171158152 Eh
Basis              : AO
                                X                 Y                 Z
Electronic contribution:      0.000000001      -0.987399627       0.953513706
Nuclear contribution   :      0.000000000       1.327457389      -1.281928022
                        -----------------------------------------
Total Dipole Moment    :      0.000000001       0.340057762      -0.328414316
                        -----------------------------------------
Magnitude (a.u.)       :      0.472752837
Magnitude (Debye)      :      1.201642215



--------------------
Rotational spectrum 
--------------------
 
Rotational constants in cm-1:             8.101050             7.049111             3.769280 
Rotational constants in MHz :        242863.361200        211327.036298        113000.174884 

Dipole components along the rotational axes: 
x,y,z [a.u.] :    -0.000036    -0.472753     0.000000 
x,y,z [Debye]:    -0.000091    -1.201642     0.000000 

 

Dipole moment calculation done in   0.0 sec 

-----------------
QUADRUPOLE MOMENT
-----------------

Method             : SCF
Type of density    : Electron Density
Multiplicity       :   1
Irrep              :   0
Energy             :  -270.1679799171158152 Eh
Basis              : AO

                XX              YY              ZZ              XY              XZ              YZ
  NUC        0.000000000     7.776008003     7.822723490     0.000000000     0.000000000     0.672490579
  EL       -14.947608152   -27.942783528   -27.862983574    -0.000000008     0.000000006     1.140156112
  TOT      -14.947608152   -20.166775525   -20.040260085    -0.000000008     0.000000006     1.812646691 (a.u.)
           -20.105044173   -27.125002785   -26.954835191    -0.000000010     0.000000008     2.438071792 (Buckingham)

diagonalized tensor:
           -21.917267943   -18.289767666   -14.947608152 (a.u.)
           -29.479474954   -24.600363021   -20.105044173 (Buckingham)
           -14.253542715     0.383793084    13.869749630 (traceless form in Buckingham)

            -0.000000001     0.000000000     1.000000000
            -0.719331897     0.694666555    -0.000000001
             0.694666555     0.719331897     0.000000001
        
Isotropic quadrupole :   -18.384881254

Quadrupole moment calculation done in   0.0 sec (  0.0 sec for integrals)

Maximum memory used throughout the entire PROP-calculation: 3.7 MB

--------------------------------
SUGGESTED CITATIONS FOR THIS RUN
--------------------------------

Below you find a list of papers that are relevant to this ORCA run
We neither can nor want to force you to cite these papers, but we appreciate if you do
You receive ORCA, which is the product of decades of hard work by many enthusiastic individuals, for free
The only thing we kindly ask in return is that you cite our papers,
We deeply appreciate it, if you show your appreciation for ORCA by not just citing the generic ORCA reference.

Please note that relegating all ORCA citations to the supporting information does *not* help us.
SI sections are not indexed - citations you put there will not count into any citation statistics
But we need these citations in order to attract the funding resources that allow us to do what we are doing

Therefore, if you are a happy ORCA user, please consider citing a few of the papers listed below in the main body of your paper

In addition to the list printed below, the program has created the file /cluster/projects/nn14654k/ylvaos/basis_set_n_funcs/functionals/gga_c_pw91/SiH2/inp/SiH2_gga_c_pw91_augccpvtz.bibtex that contains the list in bibtex format
You can import this file easily into all common literature databanks and citation aid programs

It goes without saying that in many instances, there are alternative algorithms to achieve similar
results as the ones you have gotten from ORCA. It is, of course, also the case that in some instances
ORCA just re-implements algorithms worked out by others. We are fully aware of that and we are also
fully appreciative of our colleagues work. Hence this citation list should not be read as indicating
that the listed papers, which are focused on our own work, are the only ones worth citing. It simply
meant to make it easier for users to cite ORCA specific papers. It is not a substitute for doing your
own literature research and citing the relevant literature in a scientifically appropriate manner.

List of essential papers. We consider these as the minimum necessary citations

  1. Neese, F.
     Software update: the ORCA program system, version 6.0
     WIRES Comput. Molec. Sci. 2025 15(1), e70019
     doi.org/10.1002/wcms.70019

List of papers to cite with high priority. The work reported in these papers was absolutely
necessary for this run to complete.
Our perspective: the developers of density functionals and basis sets usually get cited in chemistry papers
Good! But without the algorithms to do something with them, the functionals or basis sets would not do anything.
Hence, in our opinion, the algorithm design and method developments papers are equally worthy of getting cited

  1. Lehtola, S.; Steigemann, C.; Oliveira, M.; Marques, M.
     Recent developments in Libxc - A comprehensive library of functionals for density functional theory
     Software X 2018 7 , 
     doi.org/10.1016/j.softx.2017.11.002
  2. Neese, F.
     The SHARK Integral Generation and Digestion System
     J. Comp. Chem. 2022 44(3), 381
     doi.org/10.1002/jcc.26942

List of suggested additional citations. These are papers that are important in the 'surrounding' of 
of this run, or papers that preceded the highly important papers. If you like your results we are grateful for a citation.

  1. Neese, F.
     The ORCA program system
     WIRES Comput. Molec. Sci. 2012 2(1), 73-78
     doi.org/10.1002/wcms.81
  2. Neese, F.
     Software update: the ORCA program system, version 4.0
     WIRES Comput. Molec. Sci. 2018 8(1), 1-6
     doi.org/10.1002/wcms.1327
  3. Neese, F.; Wennmohs, F.; Becker, U.; Riplinger, C.
     The ORCA quantum chemistry program package
     J. Chem. Phys. 2020 152(22), 224108
     doi.org/10.1063/5.0004608
  4. Neese, F.
     Software update: The ORCA program system—Version 5.0
     WIRES Comput. Molec. Sci. 2022 12(1), e1606
     doi.org/10.1002/wcms.1606

List of optional additional citations

  1. Neese, F.
     Approximate second-order SCF convergence for spin unrestricted wavefunctions
     Chem. Phys. Lett. 2000 325(1-3), 93-98
     doi.org/10.1016/s0009-2614(00)00662-x

Timings for individual modules:

Sum of individual times          ...        5.235 sec (=   0.087 min)
Startup calculation              ...        0.681 sec (=   0.011 min)  13.0 %
SCF iterations                   ...        3.909 sec (=   0.065 min)  74.7 %
Property integrals               ...        0.326 sec (=   0.005 min)   6.2 %
Property calculations            ...        0.314 sec (=   0.005 min)   6.0 %
Orbital localization             ...        0.004 sec (=   0.000 min)   0.1 %
                             ****ORCA TERMINATED NORMALLY****
TOTAL RUN TIME: 0 days 0 hours 0 minutes 7 seconds 502 msec
