
                                 *****************
                                 * O   R   C   A *
                                 *****************

                                            #,                                       
                                            ###                                      
                                            ####                                     
                                            #####                                    
                                            ######                                   
                                           ########,                                 
                                     ,,################,,,,,                         
                               ,,#################################,,                 
                          ,,##########################################,,             
                       ,#########################################, ''#####,          
                    ,#############################################,,   '####,        
                  ,##################################################,,,,####,       
                ,###########''''           ''''###############################       
              ,#####''   ,,,,##########,,,,          '''####'''          '####       
            ,##' ,,,,###########################,,,                        '##       
           ' ,,###''''                  '''############,,,                           
         ,,##''                                '''############,,,,        ,,,,,,###''
      ,#''                                            '''#######################'''  
     '                                                          ''''####''''         
             ,#######,   #######,   ,#######,      ##                                
            ,#'     '#,  ##    ##  ,#'     '#,    #''#        ,####,    ,#,          
            ##       ##  ##   ,#'  ##            #'  '#       #'       ,# #          
            ##       ##  #######   ##           ,######,      #####,      #          
            '#,     ,#'  ##    ##  '#,     ,#' ,#      #,     #,   #      #          
             '#######'   ##     ##  '#######'  #'      '#     '####' #    #          



                #########################################################
                #                        -***-                          #
                #          Department of theory and spectroscopy        #
                #                                                       #
                #                      Frank Neese                      #
                #                                                       #
                #     Directorship, Architecture, Infrastructure        #
                #                    SHARK, DRIVERS                     #
                #        Core code/Algorithms in most modules           #
                #                                                       #
                #        Max Planck Institute fuer Kohlenforschung      #
                #                Kaiser Wilhelm Platz 1                 #
                #                 D-45470 Muelheim/Ruhr                 #
                #                      Germany                          #
                #                                                       #
                #                  All rights reserved                  #
                #                        -***-                          #
                #########################################################


                         Program Version 6.1.1  -  RELEASE   -
                                (GIT: $487d211c$)
                          ($2025-11-21 10:33:24 +0100$)


 With contributions from (in alphabetic order):
[Max-Planck-Institut fuer Kohlenforschung]                               
  Daniel Aravena         : Magnetic Suceptibility                        
  Michael Atanasov       : Ab Initio Ligand Field Theory (pilot matlab implementation)
  Alexander A. Auer      : GIAO ZORA, VPT2 properties, NMR spectrum      
  Ute Becker             : All parallelization in ORCA, NUMFREQ, NUMCALC 
  Giovanni Bistoni       : ED, misc. LED, open-shell LED, HFLD           
  Dmytro Bykov           : pre 5.0 version of the SCF Hessian            
  Marcos Casanova-Páez   : Triplet and SCS-CIS(D). UHF-(DLPNO)-IP/EA/STEOM-CCSD. UHF-CVS-IP/STEOM-CCSD   
  Vijay G. Chilkuri      : MRCI spin determinant printing, contributions to CSF-ICE 
  Pauline Colinet        : FMM embedding                                 
  Dipayan Datta          : RHF DLPNO-CCSD density                        
  Achintya Kumar Dutta   : EOM-CC, STEOM-CC                              
  Nicolas Foglia         : Exact transition moments, OPA infrastructure, MCD improvements    
  Dmitry Ganyushin       : Spin-Orbit,Spin-Spin,Magnetic field MRCI      
  Miquel Garcia-Rates    : C-PCM and meta-GGA Hessian, CCSD/C-PCM, Gaussian charge scheme 
  Tiago L. C. Gouveia    : GS-ROHF, GS-ROCIS                             
  Yang Guo               : DLPNO-NEVPT2, F12-NEVPT2, CIM, IAO-localization        
  Andreas Hansen         : Spin unrestricted coupled pair/coupled cluster methods 
  Ingolf Harden          : AUTO-CI MPn and infrastructure                
  Benjamin Helmich-Paris : MC-RPA, TRAH-(SCF,CASSCF), AVAS, COSX integrals, SCF dyn. polar., MC-PDFT, srDFT 
  Lee Huntington         : MR-EOM, pCC                                   
  Robert Izsak           : Overlap fitted RIJCOSX, COSX-SCS-MP3, EOM     
  Riya Kayal             : Wick's Theorem for AUTO-CI, AUTO-CI UHF-CCSDT 
  Emily Kempfer          : AUTO-CI RHF CISDT and CCSDT, approximate NEVPT4
  Christian Kollmar      : KDIIS, OOCD, Brueckner-CCSD(T), CCSD density, CASPT2, CASPT2-K, improved NEVPT2 
  Axel Koslowski         : Symmetry handling                             
  Simone Kossmann        : meta-GGA functionals, TD-DFT gradient, OOMP2, (MP2 Hessian; deprecated post 5.0) 
  Lucas Lang             : DCDCAS, Hyperfine gauge corrections, ICE-SOC+SSC
  Marvin Lechner         : AUTO-CI (C++ implementation), FIC-MRCC        
  Spencer Leger          : CASSCF response                               
  Dagmar Lenk            : GEPOL surface, SMD, ORCA-2-JSON               
  Dimitrios Liakos       : Extrapolation schemes; Compound Job, Property file
  Dimitrios Manganas     : Further ROCIS development; embedding schemes. LFT, Crystal Embedding 
  Dimitrios Pantazis     : SARC Basis sets                               
  Anastasios Papadopoulos: AUTO-CI, single reference methods and gradients 
  Taras Petrenko         : pre 6.0 DFT Hessian and TD-DFT gradient,  ECA, NRVS 
  Petra Pikulova         : Analytic Raman intensities                    
  Peter Pinski           : DLPNO-MP2, DLPNO-MP2 Gradient                 
  Shashank Vittal Rao    : ES-AILFT, MagRelax                            
  Christoph Reimann      : Effective Core Potentials                     
  Marius Retegan         : Local ZFS, SOC                                
  Christoph Riplinger    : Optimizer, TS searches, QM/MM, DLPNO-CCSD(T), (RO)-DLPNO pert. Triples 
  Michael Roemelt        : Original ROCIS implementation, recursive CI coupling coefficients
  Masaaki Saitow         : Open-shell DLPNO-CCSD energy and density      
  Barbara Sandhoefer     : DKH picture change effects                    
  Yorick L. A. Schmerwitz: GMF and freeze-and-release deltaSCF, NEB S-IDPP initial path                    
  Kantharuban Sivalingam : CASSCF convergence/infrastructure, NEVPT2, NEVPT3, NEVPT4(SD), FIC-MRCI and CEPA variants
  Bernardo de Souza      : ESD, SOC TD-DFT                               
  Georgi L. Stoychev     : AutoAux, RI-MP2 NMR, DLPNO-MP2 response, X2C  
  Van Anh Tran           : RI-MP2 g-tensors                              
  Willem Van den Heuvel  : Paramagnetic NMR                              
  Zikuan Wang            : NOTCH, Electric field optimization            
  Frank Wennmohs         : Technical directorship and infrastructure     
  Hang Xu                : AUTO-CI-Response properties                   
                                                                         
[FACCTs GmbH]                                                            
  Markus Bursch, Nicolas Foglia, Miquel Garcia-Rates, Ingolf Harden, Hagen Neugebauer, Anastasios Papadopoulos, 
  Christoph Riplinger, Bernardo de Souza, Georgi L. Stoychev                                                    
                                                                 
  APM, various basis sets, CI-OPT, improved COSX, DLPNO-Multilevel,           
  DOCKER, DRACO, updates on ESD, Fragmentator, GOAT, IRC, LR-CPCM, L-BFGS, MBIS, meta-GGA TD-DFT gradient, ML-optimized integration grids, 
  MM, NACMEs, nearIR, NEB, NEB-TS, NL-DFT gradient (VV10), 2- and 3-layer-ONIOM, interface openCOSMO-RS, QMMM,   
  Crystal-QMMM, RESP, rigid body optimization, SF, symmetry and pop. for TD-DFT, various functionals, SOLVATOR                                   
                                                                         
[Other institutions]                                                     
  V. Asgeirsson          : NEB                                           
  Christoph Bannwarth    : sTDA-DFT, sTD-DFT, PBEh-3c, B97-3c, D3        
  Giovanni Bistoni       : ETS/NOCV, ADLD/ADEX, COVALED                  
  Martin Brehm           : Molecular dynamics                            
  Ronald Cardenas        : ETS/NOCV                                      
  Martina Colucci        : COVALED                                       
  Sebastian Ehlert       : rSCAN, r2SCAN, r2SCAN-3c, D4, dhf basis sets  
  Marvin Friede          : D4 for Fr, Ra, Ac-Lr                          
  Lars Goerigk           : TD-DFT with DH, B97 family of functionals     
  Stefan Grimme          : VdW corrections, initial TS optimization, DFT functionals, gCP, sTDA/sTD-DF 
  Waldemar Hujo          : DFT-NL                                        
  H. Jonsson             : NEB                                           
  Holger Kruse           : gCP                                           
  Marcel Mueller         : wB97X-3c, vDZP basis set                      
  Hagen Neugebauer       : wr2SCAN, Native XTB                           
  Gianluca Regni         : ADLD/ADEX                                     
  Tobias Risthaus        : pre 6.0 range-separated hybrid DFT and stability analysis
  Lukas Wittmann         : regularized MP2, r2SCAN double-hybrids, wr2SCAN        
                                                                         
We gratefully acknowledge several colleagues who have allowed us to      
interface, adapt or use parts of their codes:                            
  Ed Valeev, F. Pavosevic, A. Kumar             : LibInt (2-el integral package), F12 methods 
  Garnet Chan, S. Sharma, J. Yang, R. Olivares  : DMRG                   
  Ulf Ekstrom                                   : XCFun DFT Library      
  Mihaly Kallay                                 : mrcc  (arbitrary order and MRCC methods)
  Frank Weinhold                                : gennbo (NPA and NBO analysis)           
  Simon Mueller                                 : openCOSMO-RS                            
  Christopher J. Cramer and Donald G. Truhlar   : smd solvation model                     
  S Lehtola, MJT Oliveira, MAL Marques          : LibXC Library                           
  Liviu Ungur et al                             : ANISO software                          


 Your calculation uses the libint2 library for the computation of 2-el integrals
 For citations please refer to: http://libint.valeyev.net

 Your ORCA version has been built with support for libXC version: 7.0.0
 For citations please refer to: https://libxc.gitlab.io

 This ORCA versions uses:
   CBLAS   interface :  Fast vector & matrix operations
   LAPACKE interface :  Fast linear algebra routines
   SCALAPACK package :  Parallel linear algebra routines
   Shared memory     :  Shared parallel matrices
   BLAS/LAPACK       :  OpenBLAS 0.3.29  USE64BITINT DYNAMIC_ARCH NO_AFFINITY Cooperlake SINGLE_THREADED
        Core in use  :  Cooperlake
   Copyright (c) 2011-2014, The OpenBLAS Project


  ***********************************
  * Starting time: Wed May 20 12:40:34 2026
  * Host name:     c1-47
  * Process ID:    3650765
  * Working dir.:  /cluster/projects/nn14654k/ylvaos/basis_set_n_funcs/functionals/gga_c_pw91/SiH2/out
  ***********************************

Using LibXC functional ID 134 : Perdew & Wang 91
[ 1]  J. P. Perdew. In P. Ziesche and H. Eschrig, editors, Proceedings of the 75. WE-Heraeus-Seminar and 21st Annual International Symposium on Electronic Structure of Solids, 11. Berlin, 1991. Akademie Verlag.
[ 2]  J. P. Perdew, J. A. Chevary, S. H. Vosko, K. A. Jackson, M. R. Pederson, D. J. Singh, and C. Fiolhais.,  Phys. Rev. B 46, 6671 (1992)
[ 3]  J. P. Perdew, J. A. Chevary, S. H. Vosko, K. A. Jackson, M. R. Pederson, D. J. Singh, and C. Fiolhais.,  Phys. Rev. B 48, 4978 (1993)
Using LibXC functional ID 134 : Perdew & Wang 91
[ 1]  J. P. Perdew. In P. Ziesche and H. Eschrig, editors, Proceedings of the 75. WE-Heraeus-Seminar and 21st Annual International Symposium on Electronic Structure of Solids, 11. Berlin, 1991. Akademie Verlag.
[ 2]  J. P. Perdew, J. A. Chevary, S. H. Vosko, K. A. Jackson, M. R. Pederson, D. J. Singh, and C. Fiolhais.,  Phys. Rev. B 46, 6671 (1992)
[ 3]  J. P. Perdew, J. A. Chevary, S. H. Vosko, K. A. Jackson, M. R. Pederson, D. J. Singh, and C. Fiolhais.,  Phys. Rev. B 48, 4978 (1993)
Your calculation utilizes LibXC
by S. Lehtola, C. Steigemann, M. J. T. Oliveira & M. A. L. Marques
Please cite in your paper:
Lehtola, S.; Steigemann, C.; Oliveira, M.J.T.; Marques, M. A. L. Software X, 7, (2018), 1.
   

================================================================================

----- Orbital basis set information -----
Your calculation utilizes the basis: cc-pVQZ 
       H, B-Ne : Obtained from the ccRepo (grant-hill.group.shef.ac.uk/ccrepo) Feb. 2017
                 T. H. Dunning, Jr., J. Chem. Phys. 90, 1007 (1989)
            He : Obtained from the ccRepo (grant-hill.group.shef.ac.uk/ccrepo) Feb. 2017
                 D. E. Woon, T. H. Dunning, Jr., J. Chem. Phys. 100, 2975 (1994)
  Li-Be, Na-Mg : Obtained from the ccRepo (grant-hill.group.shef.ac.uk/ccrepo) Feb. 2017
                 B. P. Prascher, D. E. Woon, K. A. Peterson, T. H. Dunning, Jr., A. K. Wilson, Theor. Chem. Acc. 128, 69 (2011)
         Al-Ar : Obtained from the ccRepo (grant-hill.group.shef.ac.uk/ccrepo) Feb. 2017
                 D. E. Woon, T. H. Dunning, Jr., J. Chem. Phys. 98, 1358 (1993)
            Ca : Obtained from the Peterson Research Group Website (tyr0.chem.wsu.edu/~kipeters) Feb. 2017
                 J. Koput, K. A. Peterson, J. Phys. Chem. 106, 9595 (2002)
         Sc-Zn : Obtained from the ccRepo (grant-hill.group.shef.ac.uk/ccrepo) Feb. 2017
                 N. B. Balabanov, K. A. Peterson, J. Chem. Phys. 123, 064107 (2005)
                 N. B. Balabanov, K. A. Peterson, J. Chem. Phys. 125, 074110 (2006)
         Ga-Kr : Obtained from the ccRepo (grant-hill.group.shef.ac.uk/ccrepo) Feb. 2017
                 A. K. Wilson, D. E. Woon, K. A. Peterson, T. H. Dunning, Jr., J. Chem. Phys. 110, 7667 (1999)

================================================================================
                                        WARNINGS
                       Please study these warnings very carefully!
================================================================================


================================================================================
                                       INPUT FILE
================================================================================
NAME = /cluster/projects/nn14654k/ylvaos/basis_set_n_funcs/functionals/gga_c_pw91/SiH2/inp/SiH2_gga_c_pw91_ccpvqz.inp
|  1> ! dft cc-pVQZ TightSCF
|  2> %pal nprocs 8 end
|  3> 
|  4> %loc
|  5>   LocMet NewBoys
|  6>   Occ true
|  7> end
|  8> 
|  9> %method
| 10>   exchange None
| 11>   correlation gga_c_pw91
| 12> end
| 13> 
| 14> %elprop
| 15>   Dipole true
| 16>   Quadrupole true
| 17> end
| 18> 
| 19> * xyz 0 1
| 20> Si    0.000000000000   0.000000000000   0.000000000000
| 21> H    0.000000000000   0.000000000000  -1.514100000000
| 22> H    0.000000000000   1.513200000000   0.052800000000
| 23> *
| 24> 
| 25> 
| 26>                          ****END OF INPUT****
================================================================================

                       ****************************
                       * Single Point Calculation *
                       ****************************

---------------------------------
CARTESIAN COORDINATES (ANGSTROEM)
---------------------------------
  Si     0.000000    0.000000    0.000000
  H      0.000000    0.000000   -1.514100
  H      0.000000    1.513200    0.052800

----------------------------
CARTESIAN COORDINATES (A.U.)
----------------------------
  NO LB      ZA    FRAG     MASS         X           Y           Z
   0 Si   14.0000    0    28.086    0.000000    0.000000    0.000000
   1 H     1.0000    0     1.008    0.000000    0.000000   -2.861234
   2 H     1.0000    0     1.008    0.000000    2.859534    0.099778

--------------------------------
INTERNAL COORDINATES (ANGSTROEM)
--------------------------------
 Si     0   0   0     0.000000000000     0.00000000     0.00000000
 H      1   0   0     1.514100000000     0.00000000     0.00000000
 H      1   2   0     1.514120893456    91.99840755     0.00000000

---------------------------
INTERNAL COORDINATES (A.U.)
---------------------------
 Si     0   0   0     0.000000000000     0.00000000     0.00000000
 H      1   0   0     2.861234339370     0.00000000     0.00000000
 H      1   2   0     2.861273822280    91.99840755     0.00000000

---------------------
BASIS SET INFORMATION
---------------------
There are 2 groups of distinct atoms

 Group   1 Type Si  : 42s19p3d2f1g contracted to 6s5p3d2f1g pattern {131313111/88111/111/11/1}
 Group   2 Type H   : 6s3p2d1f contracted to 4s3p2d1f pattern {3111/111/11/1}

Atom   0Si   basis set group =>   1
Atom   1H    basis set group =>   2
Atom   2H    basis set group =>   2


           ************************************************************
           *        Program running with 8 parallel MPI-processes     *
           *              working on a common directory               *
           ************************************************************
------------------------------------------------------------------------------
                             ORCA STARTUP CALCULATIONS
------------------------------------------------------------------------------
------------------------------------------------------------------------------
                   ___                                                        
                  /   \      - P O W E R E D   B Y -                         
                 /     \                                                     
                 |  |  |   _    _      __       _____    __    __             
                 |  |  |  | |  | |    /  \     |  _  \  |  |  /  |          
                  \  \/   | |  | |   /    \    | | | |  |  | /  /          
                 / \  \   | |__| |  /  /\  \   | |_| |  |  |/  /          
                |  |  |   |  __  | /  /__\  \  |    /   |      \           
                |  |  |   | |  | | |   __   |  |    \   |  |\   \          
                \     /   | |  | | |  |  |  |  | |\  \  |  | \   \       
                 \___/    |_|  |_| |__|  |__|  |_| \__\ |__|  \__/        
                                                                              
                      - O R C A' S   B I G   F R I E N D -                    
                                      &                                       
                       - I N T E G R A L  F E E D E R -                       
                                                                              
 v1 FN, 2020, v2 2021, v3 2022-2024                                           
------------------------------------------------------------------------------


----------------------
SHARK INTEGRAL PACKAGE
----------------------

Number of atoms                             ...      3
Number of basis functions                   ...    147
Number of shells                            ...     53
Maximum angular momentum                    ...      4
Integral batch strategy                     ... SHARK/LIBINT Hybrid
RI-J (if used) integral strategy            ... SPLIT-RIJ (Revised 2003 algorithm where possible)
Printlevel                                  ...      1
Contraction scheme used                     ... PARTIAL GENERAL contraction
Prescreening option                         ... SCHWARTZ
   Thresh                                   ... 2.500e-11
   Tcut                                     ... 2.500e-12
   Tpresel                                  ... 2.500e-12 
Coulomb Range Separation                    ... NOT USED
Exchange Range Separation                   ... NOT USED
Multipole approximations                    ... NOT USED
Finite Nucleus Model                        ... NOT USED
CABS basis                                  ... NOT available
Auxiliary Coulomb fitting basis             ... NOT available
Auxiliary J/K fitting basis                 ... NOT available
Auxiliary Correlation fitting basis         ... NOT available
Auxiliary 'external' fitting basis          ... NOT available

Checking pre-screening integrals            ... done (  0.0 sec) Dimension = 53
Save PGC pre-screening integrals            ... done (  0.0 sec) Dimension = 53
Calculate PGC overlap integrals             ... done (  0.0 sec) Dimension = 37
Calculating pre-screening integrals (ORCA)  ... done (  0.1 sec) Dimension = 37
Shell pair information
Shell pair cut-off parameter TPreSel        ...   2.5e-12
Total number of shell pairs                 ...      1431
Shell pairs after pre-screening             ...      1422
Total number of primitive shell pairs       ...      1659
Primitive shell pairs kept                  ...      1568
          la=0 lb=0:    296 shell pairs
          la=1 lb=0:    408 shell pairs
          la=1 lb=1:    153 shell pairs
          la=2 lb=0:    168 shell pairs
          la=2 lb=1:    119 shell pairs
          la=2 lb=2:     28 shell pairs
          la=3 lb=0:     94 shell pairs
          la=3 lb=1:     68 shell pairs
          la=3 lb=2:     28 shell pairs
          la=3 lb=3:     10 shell pairs
          la=4 lb=0:     21 shell pairs
          la=4 lb=1:     17 shell pairs
          la=4 lb=2:      7 shell pairs
          la=4 lb=3:      4 shell pairs
          la=4 lb=4:      1 shell pairs

Checking whether 4 symmetric matrices of dimension 147 fit in memory
:Max Core in MB      =   4096.00
 MB in use           =      4.74
 MB left             =   4091.26
 MB needed           =      0.33
 Data fit in memory  = YES
Calculating Nuclear repulsion               ... done (  0.0 sec) ENN=     10.028851096195 Eh

Diagonalization of the overlap matrix:
Smallest eigenvalue                        ... 1.764e-04
Time for diagonalization                   ...    0.001 sec
Threshold for overlap eigenvalues          ... 1.000e-07
Number of eigenvalues below threshold      ... 0
Time for construction of square roots      ...    0.002 sec
Total time needed                          ...    0.005 sec

-------------------
DFT GRID GENERATION
-------------------

General Integration Accuracy     IntAcc      ... 4.388
Radial Grid Type                 RadialGrid  ... OptM3 with GC (2021)
Angular Grid (max. ang.)         AngularGrid ... 4 (Lebedev-302)
Angular grid pruning method      GridPruning ... 4 (adaptive)
Weight generation scheme         WeightScheme... mBecke (2022)
Basis function cutoff            BFCut       ... 1.0000e-11
Integration weight cutoff        WCut        ... 1.0000e-14
Partially contracted basis set               ... off
Rotationally invariant grid construction     ... off
Angular grids for H and He will be reduced by one unit

Total number of grid points                  ...    13986
Total number of batches                      ...      220
Average number of points per batch           ...       63
Average number of grid points per atom       ...     4662

---------------------
SHARK GRID GENERATION
---------------------

General Integration Accuracy     IntAcc      ... 4.388
Radial Grid Type                 RadialGrid  ... OptM3 with GC (2021)
Angular Grid (max. ang.)         AngularGrid ... 4 (Lebedev-302)
Angular grid pruning method      GridPruning ... 4 (adaptive)
Weight generation scheme         WeightScheme... mBecke (2022)
Basis function cutoff            BFCut       ... 1.0000e-11
Integration weight cutoff        WCut        ... 1.0000e-14
Partially contracted basis set               ... off
Rotationally invariant grid construction     ... off
Angular grids for H and He will be reduced by one unit
Core-polarized basis detected: some atoms will have their core
                               angular grid increased.
Steep s-basis detected: some atoms will have their radial
                        grid points doubled.

Total number of grid points                  ...    25951
Total number of batches                      ...      407
Average number of points per batch           ...       63
Average number of grid points per atom       ...     8650
Grids setup in   0.2 sec
Initializing property integral containers    ... done (  0.0 sec)

SHARK setup successfully completed in   0.4 seconds

Maximum memory used throughout the entire STARTUP-calculation: 58.2 MB


           ************************************************************
           *        Program running with 8 parallel MPI-processes     *
           *              working on a common directory               *
           ************************************************************
-------------------------------------------------------------------------------
                                 ORCA GUESS
                   Start orbitals & Density for SCF / CASSCF
-------------------------------------------------------------------------------

------------
SCF SETTINGS
------------
Hamiltonian:
 Density Functional     Method          .... DFT(GTOs)
 Exchange Functional    Exchange        .... no Exchange
  Functional kind                       .... Correlation
  Functional name                       .... Perdew & Wang 91
  Functional family                     .... GGA
  Functional refs                              
    [ 0] J. P. Perdew. In P. Ziesche and H. Eschrig, editors, Proceedings of the 75. WE-Heraeus-Seminar and 21st Annual International Symposium on Electronic Structure of Solids, 11. Berlin, 1991. Akademie Verlag.
    [ 1] J. P. Perdew, J. A. Chevary, S. H. Vosko, K. A. Jackson, M. R. Pederson, D. J. Singh, and C. Fiolhais.,  Phys. Rev. B 46, 6671 (1992), doi: 10.1103/PhysRevB.46.6671
    [ 2] J. P. Perdew, J. A. Chevary, S. H. Vosko, K. A. Jackson, M. R. Pederson, D. J. Singh, and C. Fiolhais.,  Phys. Rev. B 48, 4978 (1993), doi: 10.1103/PhysRevB.48.4978.2
  Functional external parameters        .... 0
 Gradients option       PostSCFGGA      .... off


General Settings:
 Integral files         IntName         .... /cluster/projects/nn14654k/ylvaos/basis_set_n_funcs/functionals/gga_c_pw91/SiH2/inp/SiH2_gga_c_pw91_ccpvqz
 Hartree-Fock type      HFTyp           .... RHF
 Total Charge           Charge          ....    0
 Multiplicity           Mult            ....    1
 Number of Electrons    NEL             ....   16
 Basis Dimension        Dim             ....  119
 Nuclear Repulsion      ENuc            ....     10.0288510962 Eh

Convergence Acceleration:
 AO-DIIS                CNVDIIS         .... on
   Start iteration      DIISMaxIt       ....    12
   Startup error        DIISStart       ....  0.200000
   # of expansion vecs  DIISMaxEq       ....     5
   Bias factor          DIISBfac        ....   1.050
   Max. coefficient     DIISMaxC        ....  10.000
 MO-DIIS                CNVKDIIS        .... off
 Trust-Rad. Augm. Hess. CNVTRAH         .... auto
   Auto Start mean grad. ratio tolernc. ....  1.125000
   Auto Start start iteration           ....    50
   Auto Start num. interpolation iter.  ....    10
   Max. Number of Micro iterations      ....    24
   Max. Number of Macro iterations      .... Maxiter - #DIIS iter
   Number of Davidson start vectors     ....     2
   Converg. threshold    (grad. norm)   ....   1.000e-05
   Grad. Scal. Fac. for Micro threshold ....   0.100
   Minimum threshold for Micro iter.    ....   1.000e-02
   NR start threshold (gradient norm)   ....   1.000e-04
   Initial trust radius                 ....   0.400
   Minimum AH scaling param. (alpha)    ....   1.000
   Maximum AH scaling param. (alpha)    .... 1000.000
   Quad. conv. algorithm                .... NR
   White noise on init. David. guess    .... on
   Maximum white noise                  ....   0.010
   Pseudo random numbers                .... off
   Inactive MOs                         .... canonical
   Orbital update algorithm             .... Taylor
   Preconditioner                       .... Diag
   Full preconditioner red. dimension   ....   250
 SOSCF                 CNVSOSCF           .... on
   Start iteration     SOSCFMaxIt         ....   150
   Startup grad/error  SOSCFStart         ....  0.003300
   Hessian update      SOSCFHessUp        .... L-BFGS
   Autom. constraints  SOSCFAutoConstrain .... off
 Level Shifting         CNVShift        .... on
   Level shift para.    LevelShift      ....    0.2500
   Turn off err/grad.   ShiftErr        ....    0.0010
 Zerner damping         CNVZerner       .... off
 Static damping         CNVDamp         .... on
   Fraction old density DampFac         ....    0.7000
   Max. Damping (<1)    DampMax         ....    0.9800
   Min. Damping (>=0)   DampMin         ....    0.0000
   Turn off err/grad.   DampErr         ....    0.1000

SCF Procedure:
 Maximum # iterations   MaxIter         ....   125
 SCF integral mode      SCFMode         .... Direct
   Integral package                     .... SHARK and LIBINT hybrid scheme
 Reset frequency        DirectResetFreq ....    20
 Integral Threshold     Thresh          ....  2.500e-11 Eh
 Primitive CutOff       TCut            ....  2.500e-12 Eh

Convergence Tolerance:
 Convergence Check Mode ConvCheckMode   .... Total+1el-Energy
 Convergence forced     ConvForced      .... 0
 Energy Change          TolE            ....  1.000e-08 Eh
 1-El. energy change                    ....  1.000e-05 Eh
 Orbital Gradient       TolG            ....  1.000e-05
 Orbital Rotation angle TolX            ....  1.000e-05
 DIIS Error             TolErr          ....  5.000e-07

------------------------------
INITIAL GUESS: MODEL POTENTIAL
------------------------------
Loading Hartree-Fock densities                     ... done
Calculating cut-offs                               ... done
Initializing the effective Hamiltonian             ... done
Setting up the integral package (SHARK)            ... done
Starting the Coulomb interaction                   ... done (   0.0 sec)
Making the grid                                    ... done (   0.0 sec)
Mapping shells                                     ... done
Starting the XC term evaluation                    ... done (   0.0 sec)
  promolecular density results
     # of electrons  =     16.000312466
     EX              =      0.000000000
     EC              =     -0.604133486
     EX+EC           =     -0.604133486
Transforming the Hamiltonian                       ... done (   0.0 sec)
Diagonalizing the Hamiltonian                      ... done (   0.0 sec)
Back transforming the eigenvectors                 ... done (   0.0 sec)
Now organizing SCF variables                       ... done
                      ------------------
                      INITIAL GUESS DONE (   0.0 sec)
                      ------------------
             **** ENERGY FILE WAS UPDATED (/cluster/projects/nn14654k/ylvaos/basis_set_n_funcs/functionals/gga_c_pw91/SiH2/inp/SiH2_gga_c_pw91_ccpvqz.en.tmp) ****
Finished Guess after   0.1 sec
Maximum memory used throughout the entire GUESS-calculation: 10.5 MB


           ************************************************************
           *        Program running with 8 parallel MPI-processes     *
           *              working on a common directory               *
           ************************************************************

-------------------------------------------------------------------------------------------
                                      ORCA LEAN-SCF
                              memory conserving SCF solver
-------------------------------------------------------------------------------------------

----------------------------------------D-I-I-S--------------------------------------------
Iteration    Energy (Eh)           Delta-E    RMSDP     MaxDP     DIISErr   Damp  Time(sec)
-------------------------------------------------------------------------------------------
               ***  Starting incremental Fock matrix formation  ***
    1    -269.8060560564304069     0.00e+00  8.27e-02  1.28e+00  6.29e-01  0.700   0.2
Warning: op=0 Small HOMO/LUMO gap (   0.007) - skipping pre-diagonalization
         Will do a full diagonalization
    2    -269.9554966339146063    -1.49e-01  4.76e-02  6.79e-01  3.23e-01  0.700   0.3
                               ***Turning on AO-DIIS***
    3    -270.0217691385358307    -6.63e-02  1.94e-02  2.21e-01  1.50e-01  0.700   0.2
    4    -270.0576196912189175    -3.59e-02  1.21e-02  1.37e-01  9.09e-02  0.700   0.2
    5    -270.0810821295461892    -2.35e-02  2.44e-02  2.63e-01  5.90e-02  0.000   0.2
    6    -270.1338058173749914    -5.27e-02  2.41e-03  2.46e-02  6.34e-03  0.000   0.2
                              *** Initializing SOSCF ***
---------------------------------------S-O-S-C-F--------------------------------------
Iteration    Energy (Eh)           Delta-E    RMSDP     MaxDP     MaxGrad    Time(sec)
--------------------------------------------------------------------------------------
    7    -270.1339155756650712    -1.10e-04  1.05e-03  1.55e-02  2.17e-03     0.2
               *** Restarting incremental Fock matrix formation ***
    8    -270.1339328386265493    -1.73e-05  8.28e-04  1.23e-02  4.53e-04     0.2
    9    -270.1339355958902502    -2.76e-06  3.52e-04  5.66e-03  7.98e-05     0.2
   10    -270.1339357936902275    -1.98e-07  4.70e-05  7.53e-04  4.83e-05     0.2
   11    -270.1339358105766451    -1.69e-08  1.72e-05  2.06e-04  1.52e-05     0.2
   12    -270.1339358136879696    -3.11e-09  5.80e-06  8.19e-05  3.86e-06     0.2
                 **** Energy Check signals convergence ****

               *****************************************************
               *                     SUCCESS                       *
               *           SCF CONVERGED AFTER  12 CYCLES          *
               *****************************************************

             **** ENERGY FILE WAS UPDATED (/cluster/projects/nn14654k/ylvaos/basis_set_n_funcs/functionals/gga_c_pw91/SiH2/inp/SiH2_gga_c_pw91_ccpvqz.en.tmp) ****

----------------
TOTAL SCF ENERGY
----------------

Total Energy       :       -270.13393581379006 Eh           -7350.71810 eV

Components:
Nuclear Repulsion  :         10.02885109619548 Eh             272.89891 eV
Electronic Energy  :       -280.16278690998558 Eh           -7623.61701 eV
One Electron Energy:       -413.74265350664581 Eh          -11258.50997 eV
Two Electron Energy:        133.57986659666025 Eh            3634.89296 eV

Virial components:
Potential Energy   :       -549.54507156007594 Eh          -14953.88164 eV
Kinetic Energy     :        279.41113574628594 Eh            7603.16354 eV
Virial Ratio       :          1.96679731497559

DFT components:
N(Alpha)           :        8.000006671776 electrons
N(Beta)            :        8.000006671776 electrons
N(Total)           :       16.000013343551 electrons
E(X)               :        0.000000000000 Eh       
E(C)               :       -0.583995651298 Eh       
E(XC)              :       -0.583995651298 Eh       

---------------
SCF CONVERGENCE
---------------

  Last Energy change         ...    3.1113e-09  Tolerance :   1.0000e-08
  Last MAX-Density change    ...    8.1927e-05  Tolerance :   1.0000e-07
  Last RMS-Density change    ...    5.8041e-06  Tolerance :   5.0000e-09
  Last DIIS Error            ...    2.1732e-03  Tolerance :   5.0000e-07
  Last Orbital Gradient      ...    3.8570e-06  Tolerance :   1.0000e-05
  Last Orbital Rotation      ...    5.0216e-06  Tolerance :   1.0000e-05


----------------
ORBITAL ENERGIES
----------------

  NO   OCC          E(Eh)            E(eV) 
   0   2.0000     -61.079380     -1662.0544 
   1   2.0000      -4.074830      -110.8818 
   2   2.0000      -2.541913       -69.1690 
   3   2.0000      -2.531210       -68.8777 
   4   2.0000      -2.529697       -68.8366 
   5   2.0000      -0.242556        -6.6003 
   6   2.0000      -0.077218        -2.1012 
   7   2.0000      -0.020338        -0.5534 
   8   0.0000      -0.005852        -0.1592 
   9   0.0000       0.124079         3.3764 
  10   0.0000       0.145742         3.9658 
  11   0.0000       0.172269         4.6877 
  12   0.0000       0.211527         5.7559 
  13   0.0000       0.214018         5.8237 
  14   0.0000       0.231082         6.2881 
  15   0.0000       0.236186         6.4269 
  16   0.0000       0.244797         6.6613 
  17   0.0000       0.248835         6.7712 
  18   0.0000       0.320512         8.7216 
*Only the first 10 virtual orbitals were printed.

                    ********************************
                    * MULLIKEN POPULATION ANALYSIS *
                    ********************************

-----------------------
MULLIKEN ATOMIC CHARGES
-----------------------
   0 Si:    0.060840
   1 H :   -0.030421
   2 H :   -0.030420
Sum of atomic charges:    0.0000000

--------------------------------
MULLIKEN REDUCED ORBITAL CHARGES
--------------------------------
  0 Sis       :     5.759553  s :     5.759553
      pz      :     3.076206  p :     8.166481
      px      :     2.001265
      py      :     3.089010
      dz2     :     0.012938  d :     0.027719
      dxz     :     0.000007
      dyz     :     0.006199
      dx2y2   :     0.008569
      dxy     :     0.000007
      f0      :    -0.006627  f :    -0.013001
      f+1     :    -0.000001
      f-1     :    -0.001330
      f+2     :     0.000028
      f-2     :     0.000000
      f+3     :    -0.000001
      f-3     :    -0.005071
      g0      :    -0.000887  g :    -0.001592
      g+1     :     0.000000
      g-1     :    -0.000030
      g+2     :    -0.000198
      g-2     :     0.000000
      g+3     :     0.000000
      g-3     :    -0.000003
      g+4     :    -0.000475
      g-4     :     0.000000

  1 H s       :     1.081116  s :     1.081116
      pz      :    -0.041383  p :    -0.037852
      px      :    -0.000229
      py      :     0.003760
      dz2     :    -0.012327  d :    -0.012289
      dxz     :    -0.000377
      dyz     :     0.000392
      dx2y2   :     0.000023
      dxy     :     0.000000
      f0      :    -0.000519  f :    -0.000554
      f+1     :    -0.000032
      f-1     :    -0.000004
      f+2     :     0.000001
      f-2     :     0.000000
      f+3     :    -0.000000
      f-3     :     0.000000

  2 H s       :     1.081104  s :     1.081104
      pz      :     0.004158  p :    -0.037843
      px      :    -0.000229
      py      :    -0.041772
      dz2     :    -0.002988  d :    -0.012287
      dxz     :    -0.000000
      dyz     :     0.000378
      dx2y2   :    -0.009300
      dxy     :    -0.000377
      f0      :    -0.000002  f :    -0.000554
      f+1     :    -0.000002
      f-1     :    -0.000191
      f+2     :    -0.000004
      f-2     :    -0.000000
      f+3     :    -0.000031
      f-3     :    -0.000324



                     *******************************
                     * LOEWDIN POPULATION ANALYSIS *
                     *******************************

----------------------
LOEWDIN ATOMIC CHARGES
----------------------
   0 Si:    0.221997
   1 H :   -0.111003
   2 H :   -0.110994

-------------------------------
LOEWDIN REDUCED ORBITAL CHARGES
-------------------------------
  0 Sis       :     5.239811  s :     5.239811
      pz      :     3.183537  p :     8.381332
      px      :     1.999051
      py      :     3.198744
      dz2     :     0.082042  d :     0.136660
      dxz     :     0.000015
      dyz     :     0.000854
      dx2y2   :     0.053734
      dxy     :     0.000016
      f0      :     0.007784  f :     0.017876
      f+1     :     0.000002
      f-1     :     0.006337
      f+2     :     0.001193
      f-2     :     0.000000
      f+3     :     0.000004
      f-3     :     0.002556
      g0      :     0.001009  g :     0.002325
      g+1     :     0.000008
      g-1     :     0.000298
      g+2     :     0.000347
      g-2     :     0.000001
      g+3     :     0.000000
      g-3     :     0.000172
      g+4     :     0.000485
      g-4     :     0.000006

  1 H s       :     0.970261  s :     0.970261
      pz      :     0.073058  p :     0.120552
      px      :     0.000181
      py      :     0.047313
      dz2     :     0.012308  d :     0.018667
      dxz     :     0.000224
      dyz     :     0.005979
      dx2y2   :     0.000156
      dxy     :     0.000000
      f0      :     0.001245  f :     0.001523
      f+1     :     0.000044
      f-1     :     0.000222
      f+2     :     0.000012
      f-2     :     0.000000
      f+3     :     0.000000
      f-3     :     0.000000

  2 H s       :     0.970258  s :     0.970258
      pz      :     0.046582  p :     0.120548
      px      :     0.000181
      py      :     0.073786
      dz2     :     0.003555  d :     0.018665
      dxz     :     0.000000
      dyz     :     0.005873
      dx2y2   :     0.009013
      dxy     :     0.000223
      f0      :     0.000082  f :     0.001523
      f+1     :     0.000003
      f-1     :     0.000487
      f+2     :     0.000140
      f-2     :     0.000000
      f+3     :     0.000041
      f-3     :     0.000769



                      *****************************
                      * MAYER POPULATION ANALYSIS *
                      *****************************

  NA   - Mulliken gross atomic population
  ZA   - Total nuclear charge
  QA   - Mulliken gross atomic charge
  VA   - Mayer's total valence
  BVA  - Mayer's bonded valence
  FA   - Mayer's free valence

  ATOM       NA         ZA         QA         VA         BVA        FA
  0 Si    13.9392    14.0000     0.0608     1.6766     1.6766    -0.0000
  1 H      1.0304     1.0000    -0.0304     0.8334     0.8334    -0.0000
  2 H      1.0304     1.0000    -0.0304     0.8335     0.8335     0.0000

  Mayer bond orders larger than 0.100000
B(  0-Si,  1-H ) :   0.8383 B(  0-Si,  2-H ) :   0.8383 

-------
TIMINGS
-------

Total SCF time: 0 days 0 hours 0 min 2 sec 

Total time                  ....       2.729 sec
Sum of individual times     ....       2.433 sec  ( 89.2%)

SCF preparation             ....       0.082 sec  (  3.0%)
Fock matrix formation       ....       1.860 sec  ( 68.2%)
  Startup                   ....       0.010 sec  (  0.5% of F)
  Coulomb formation         ....       1.161 sec  ( 62.4% of F)
  XC integration            ....       0.466 sec  ( 25.0% of F)
    XC Preparation          ....       0.000 sec  (  0.0% of XC)
    Basis function eval.    ....       0.033 sec  (  7.1% of XC)
    Density eval.           ....       0.022 sec  (  4.7% of XC)
    XC-Functional eval.     ....       0.010 sec  (  2.2% of XC)
    XC-Potential eval.      ....       0.045 sec  (  9.7% of XC)
Diagonalization             ....       0.000 sec  (  0.0%)
Density matrix formation    ....       0.153 sec  (  5.6%)
Total Energy calculation    ....       0.020 sec  (  0.7%)
Population analysis         ....       0.016 sec  (  0.6%)
Orbital Transformation      ....       0.018 sec  (  0.7%)
Orbital Orthonormalization  ....       0.000 sec  (  0.0%)
DIIS solution               ....       0.207 sec  (  7.6%)
SOSCF solution              ....       0.078 sec  (  2.8%)
Finished LeanSCF after   2.8 sec

Maximum memory used throughout the entire LEANSCF-calculation: 20.3 MB


           ************************************************************
           *        Program running with 8 parallel MPI-processes     *
           *              working on a common directory               *
           ************************************************************

------------------------------------------------------------------------------
                         ORCA PROPERTY INTEGRAL CALCULATIONS
------------------------------------------------------------------------------

GBWName                                   ... /cluster/projects/nn14654k/ylvaos/basis_set_n_funcs/functionals/gga_c_pw91/SiH2/inp/SiH2_gga_c_pw91_ccpvqz.gbw
Number of atoms                           ...      3
Number of basis functions                 ...    147
Max core memory                           ...   4096 MB

Dipole integrals                          ... YES
Quadrupole integrals                      ... YES
Linear momentum integrals                 ...  NO
Angular momentum integrals                ...  NO
Higher moments length integrals           ...  NO
Higher moments velocity integrals         ...  NO
Kinetic energy integrals                  ...  NO
GIAO right hand sides                     ...  NO
GIAO dipole derivative integrals          ...  NO
SOC integrals                             ...  NO
EPR diamagnetic integrals (GIAO)          ...  NO
EPR gauge integrals                       ...  NO
Field gradient integrals                  ...  NO (   0 nuclei)
Spin-dipole/Fermi contact integrals       ...  NO (   0 nuclei)
Contact density integrals                 ...  NO (   0 nuclei)
Nucleus-orbit integrals                   ...  NO (   0 nuclei)
Geometric perturbations                   ...  NO (   3 nuclei)

Choice of electric origin   ... Center of mass
Position of electric origin ... (  0.0000,  0.0958, -0.0925) 
Choice of magnetic origin   ... GIAO
Position of magnetic origin ... (  0.0000,  0.0000,  0.0000) 

Calculating integrals                     ... Electric Dipole (Length)     done (  0.0 sec)
Calculating integrals                     ... Electric Quadrupole (Length) done (  0.0 sec)

Property integrals calculated in   0.0 sec

Maximum memory used throughout the entire PROPINT-calculation: 11.0 MB
------------------------------------------------------------------------------
                           ORCA ORBITAL LOCALIZATION
------------------------------------------------------------------------------

Input orbitals are from                  ... /cluster/projects/nn14654k/ylvaos/basis_set_n_funcs/functionals/gga_c_pw91/SiH2/inp/SiH2_gga_c_pw91_ccpvqz.gbw
Output orbitals are to                   ... /cluster/projects/nn14654k/ylvaos/basis_set_n_funcs/functionals/gga_c_pw91/SiH2/inp/SiH2_gga_c_pw91_ccpvqz.loc
Max. number of iterations                ... 128
Localizations seeded randomly            ... on
Convergence tolerance                    ... 1.000e-06
Threshold for strong local MOs           ... 9.500e-01
Threshold for bond MOs                   ... 8.500e-01
Operator                                 ... 0
Orbital range for localization           ... 1 to 7
Localization criterion                   ... NEW-BOYS
Doing the dipole integrals               ... o.k.
Initial value of the localization sum :     3.344016
ITERATION   0 : L=    9.8935775187 DL=  6.55e+00 (AVERGE_DL)=    0.5584656661 
ITERATION   1 : L=   10.8317054809 DL=  9.38e-01 (AVERGE_DL)=    0.2113593152 
ITERATION   2 : L=   10.8360198743 DL=  4.31e-03 (AVERGE_DL)=    0.0143334331 
ITERATION   3 : L=   10.8361658361 DL=  1.46e-04 (AVERGE_DL)=    0.0026363912 
ITERATION   4 : L=   10.8362940114 DL=  1.28e-04 (AVERGE_DL)=    0.0024705440 
ITERATION   5 : L=   10.8363984104 DL=  1.04e-04 (AVERGE_DL)=    0.0022296590 
ITERATION   6 : L=   10.8365140893 DL=  1.16e-04 (AVERGE_DL)=    0.0023470233 
ITERATION   7 : L=   10.8366331976 DL=  1.19e-04 (AVERGE_DL)=    0.0023815595 
ITERATION   8 : L=   10.8367567233 DL=  1.24e-04 (AVERGE_DL)=    0.0024253202 
ITERATION   9 : L=   10.8368830290 DL=  1.26e-04 (AVERGE_DL)=    0.0024524586 
ITERATION  10 : L=   10.8370109865 DL=  1.28e-04 (AVERGE_DL)=    0.0024684442 
ITERATION  11 : L=   10.8371392337 DL=  1.28e-04 (AVERGE_DL)=    0.0024712366 
ITERATION  12 : L=   10.8372664304 DL=  1.27e-04 (AVERGE_DL)=    0.0024610943 
ITERATION  13 : L=   10.8373912626 DL=  1.25e-04 (AVERGE_DL)=    0.0024381119 
ITERATION  14 : L=   10.8375125077 DL=  1.21e-04 (AVERGE_DL)=    0.0024028262 
ITERATION  15 : L=   10.8376290773 DL=  1.17e-04 (AVERGE_DL)=    0.0023560427 
ITERATION  16 : L=   10.8377400538 DL=  1.11e-04 (AVERGE_DL)=    0.0022988246 
ITERATION  17 : L=   10.8378447113 DL=  1.05e-04 (AVERGE_DL)=    0.0022324175 
ITERATION  18 : L=   10.8379425260 DL=  9.78e-05 (AVERGE_DL)=    0.0021582044 
ITERATION  19 : L=   10.8380331731 DL=  9.06e-05 (AVERGE_DL)=    0.0020776249 
ITERATION  20 : L=   10.8381165137 DL=  8.33e-05 (AVERGE_DL)=    0.0019921351 
ITERATION  21 : L=   10.8381925738 DL=  7.61e-05 (AVERGE_DL)=    0.0019031313 
ITERATION  22 : L=   10.8382615185 DL=  6.89e-05 (AVERGE_DL)=    0.0018119276 
ITERATION  23 : L=   10.8383236250 DL=  6.21e-05 (AVERGE_DL)=    0.0017197245 
ITERATION  24 : L=   10.8383792543 DL=  5.56e-05 (AVERGE_DL)=    0.0016275796 
ITERATION  25 : L=   10.8384288257 DL=  4.96e-05 (AVERGE_DL)=    0.0015364059 
ITERATION  26 : L=   10.8384727939 DL=  4.40e-05 (AVERGE_DL)=    0.0014469703 
ITERATION  27 : L=   10.8385116294 DL=  3.88e-05 (AVERGE_DL)=    0.0013598934 
ITERATION  28 : L=   10.8385458034 DL=  3.42e-05 (AVERGE_DL)=    0.0012756686 
ITERATION  29 : L=   10.8385757750 DL=  3.00e-05 (AVERGE_DL)=    0.0011946637 
ITERATION  30 : L=   10.8386019833 DL=  2.62e-05 (AVERGE_DL)=    0.0011171453 
ITERATION  31 : L=   10.8386248407 DL=  2.29e-05 (AVERGE_DL)=    0.0010432871 
ITERATION  32 : L=   10.8386447296 DL=  1.99e-05 (AVERGE_DL)=    0.0009731848 
ITERATION  33 : L=   10.8386620003 DL=  1.73e-05 (AVERGE_DL)=    0.0009068707 
ITERATION  34 : L=   10.8386769708 DL=  1.50e-05 (AVERGE_DL)=    0.0008443249 
ITERATION  35 : L=   10.8386899276 DL=  1.30e-05 (AVERGE_DL)=    0.0007854860 
ITERATION  36 : L=   10.8387011265 DL=  1.12e-05 (AVERGE_DL)=    0.0007302610 
ITERATION  37 : L=   10.8387107950 DL=  9.67e-06 (AVERGE_DL)=    0.0006785322 
ITERATION  38 : L=   10.8387191343 DL=  8.34e-06 (AVERGE_DL)=    0.0006301663 
ITERATION  39 : L=   10.8387263214 DL=  7.19e-06 (AVERGE_DL)=    0.0005850127 
ITERATION  40 : L=   10.8387325114 DL=  6.19e-06 (AVERGE_DL)=    0.0005429198 
ITERATION  41 : L=   10.8387378399 DL=  5.33e-06 (AVERGE_DL)=    0.0005037267 
ITERATION  42 : L=   10.8387424252 DL=  4.59e-06 (AVERGE_DL)=    0.0004672753 
ITERATION  43 : L=   10.8387463699 DL=  3.94e-06 (AVERGE_DL)=    0.0004334111 
ITERATION  44 : L=   10.8387497630 DL=  3.39e-06 (AVERGE_DL)=    0.0004019625 
ITERATION  45 : L=   10.8387526817 DL=  2.92e-06 (AVERGE_DL)=    0.0003728122 
ITERATION  46 : L=   10.8387551923 DL=  2.51e-06 (AVERGE_DL)=    0.0003457635 
ITERATION  47 : L=   10.8387573526 DL=  2.16e-06 (AVERGE_DL)=    0.0003207284 
ITERATION  48 : L=   10.8387592116 DL=  1.86e-06 (AVERGE_DL)=    0.0002975359 
ITERATION  49 : L=   10.8387608123 DL=  1.60e-06 (AVERGE_DL)=    0.0002760839 
ITERATION  50 : L=   10.8387621910 DL=  1.38e-06 (AVERGE_DL)=    0.0002562284 
ITERATION  51 : L=   10.8387633793 DL=  1.19e-06 (AVERGE_DL)=    0.0002378735 
ITERATION  52 : L=   10.8387644040 DL=  1.02e-06 (AVERGE_DL)=    0.0002208943 
ITERATION  53 : L=   10.8387652883 DL=  8.84e-07 (AVERGE_DL)=    0.0002052101 
LOCALIZATION SUM CONVERGED


--------------------------------------------------------------------------------
                    LOCALIZED MOLECULAR ORBITAL COMPOSITIONS
--------------------------------------------------------------------------------

The Mulliken populations for each LMO on each atom are computed
The LMO`s will be ordered according to atom index and type
  (A) Strongly localized MO`s have populations of >=0.950 on one atom
  (B) Two center bond orbitals have populations of >=0.850 on two atoms
  (C) Other MO`s are considered to be `delocalized`

FOUND  -   5 strongly local MO`s
       -   2 two center bond MO`s
       -   0 significantly delocalized MO`s

Rather strongly localized orbitals:
MO   5:   0Si -   0.992352
MO   4:   0Si -   1.027086
MO   3:   0Si -   1.053539
MO   2:   0Si -   1.042512
MO   1:   0Si -   1.026658
Bond-like localized orbitals:
MO   7:   2H  -   0.600568  and   0Si -   0.413596
MO   6:   1H  -   0.600295  and   0Si -   0.413828
Localized MO's were stored in: /cluster/projects/nn14654k/ylvaos/basis_set_n_funcs/functionals/gga_c_pw91/SiH2/inp/SiH2_gga_c_pw91_ccpvqz.loc

-------------------------   --------------------
FINAL SINGLE POINT ENERGY      -270.133935813790
-------------------------   --------------------



           ************************************************************
           *        Program running with 8 parallel MPI-processes     *
           *              working on a common directory               *
           ************************************************************

------------------------------------------------------------------------------
                              ORCA PROPERTY CALCULATIONS
------------------------------------------------------------------------------

GBWName                                 ... /cluster/projects/nn14654k/ylvaos/basis_set_n_funcs/functionals/gga_c_pw91/SiH2/inp/SiH2_gga_c_pw91_ccpvqz.gbw
Number of atoms                         ...      3
Number of basis functions               ...    147
Max core memory                         ...   4096 MB

Electric properties:
Dipole moment                           ... YES
Quadrupole moment                       ... YES
Static polarizability (Dipole/Dipole)   ...  NO
Static polarizability (Dipole/Quad.)    ...  NO
Static polarizability (Quad./Quad.)     ...  NO
Static polarizability (Velocity)        ...  NO
Static hyperpolarizability              ...  NO

Atomic electric properties:
Dipole moment                           ...  NO
Quadrupole moment                       ...  NO
Static polarizability                   ...  NO

Choice of electric origin               ... Center of mass
Position of electric origin             ...     0.000000     0.095755    -0.092471

General magnetic properties:
Magnetizability                         ...  NO

EPR properties:
g-Tensor (aka g-matrix)                 ...  NO
Zero-Field splitting spin-orbit         ...  NO
Zero-field splitting spin-spin          ...  NO
Hyperfine couplings                     ...  NO (   0 nuclei)
Quadrupole couplings                    ...  NO (   0 nuclei)
Contact density                         ...  NO (   0 nuclei)

NMR properties:
Chemical shifts                         ...  NO (   0 nuclei)
Spin-rotation constants                 ...  NO (   0 nuclei)
Spin-spin couplings                     ...  NO (   0 nuclei,    0 pairs)

Choice of magnetic origin               ... GIAO
Position of magnetic origin             ...     0.000000     0.000000     0.000000

Properties with geometric perturbations:
SCF Hessian                             ...  NO
IR spectrum                             ...  NO
VCD spectrum                            ...  NO
X-ray spectroscopy properties:
SCF XES/XAS/RIXS spectra                ...  NO

SCF SOC stabilization energy            ...  NO
Diagonal Born-Oppenheimer correction    ...  NO

-------------
DIPOLE MOMENT
-------------

Method             : SCF
Type of density    : Electron Density
Multiplicity       :   1
Irrep              :   0
Energy             :  -270.1339358137900604 Eh
Basis              : AO
                                X                 Y                 Z
Electronic contribution:      0.000000000      -1.012875198       0.978119266
Nuclear contribution   :      0.000000000       1.327457389      -1.281928022
                        -----------------------------------------
Total Dipole Moment    :      0.000000000       0.314582191      -0.303808756
                        -----------------------------------------
Magnitude (a.u.)       :      0.437334787
Magnitude (Debye)      :      1.111616686



--------------------
Rotational spectrum 
--------------------
 
Rotational constants in cm-1:             8.101050             7.049111             3.769280 
Rotational constants in MHz :        242863.361200        211327.036298        113000.174884 

Dipole components along the rotational axes: 
x,y,z [a.u.] :    -0.000035    -0.437335     0.000000 
x,y,z [Debye]:    -0.000089    -1.111617     0.000000 

 

Dipole moment calculation done in   0.0 sec 

-----------------
QUADRUPOLE MOMENT
-----------------

Method             : SCF
Type of density    : Electron Density
Multiplicity       :   1
Irrep              :   0
Energy             :  -270.1339358137900604 Eh
Basis              : AO

                XX              YY              ZZ              XY              XZ              YZ
  NUC        0.000000000     7.776008003     7.822723490     0.000000000     0.000000000     0.672490579
  EL       -13.597195573   -26.050795386   -26.008271689    -0.000000001     0.000000001     0.606435308
  TOT      -13.597195573   -18.274787383   -18.185548199    -0.000000001     0.000000001     1.278925887 (a.u.)
           -18.288693069   -24.580214028   -24.460184273    -0.000000002     0.000000002     1.720199057 (Buckingham)

diagonalized tensor:
           -19.509871793   -16.950463789   -13.597195573 (a.u.)
           -26.241444799   -22.798953502   -18.288693069 (Buckingham)
           -11.395243027    -1.067769136    12.463012162 (traceless form in Buckingham)

            -0.000000000     0.000000000     1.000000000
            -0.719328548     0.694670023    -0.000000000
             0.694670023     0.719328548     0.000000000
        
Isotropic quadrupole :   -16.685843718

Quadrupole moment calculation done in   0.0 sec (  0.0 sec for integrals)

Maximum memory used throughout the entire PROP-calculation: 5.6 MB

--------------------------------
SUGGESTED CITATIONS FOR THIS RUN
--------------------------------

Below you find a list of papers that are relevant to this ORCA run
We neither can nor want to force you to cite these papers, but we appreciate if you do
You receive ORCA, which is the product of decades of hard work by many enthusiastic individuals, for free
The only thing we kindly ask in return is that you cite our papers,
We deeply appreciate it, if you show your appreciation for ORCA by not just citing the generic ORCA reference.

Please note that relegating all ORCA citations to the supporting information does *not* help us.
SI sections are not indexed - citations you put there will not count into any citation statistics
But we need these citations in order to attract the funding resources that allow us to do what we are doing

Therefore, if you are a happy ORCA user, please consider citing a few of the papers listed below in the main body of your paper

In addition to the list printed below, the program has created the file /cluster/projects/nn14654k/ylvaos/basis_set_n_funcs/functionals/gga_c_pw91/SiH2/inp/SiH2_gga_c_pw91_ccpvqz.bibtex that contains the list in bibtex format
You can import this file easily into all common literature databanks and citation aid programs

It goes without saying that in many instances, there are alternative algorithms to achieve similar
results as the ones you have gotten from ORCA. It is, of course, also the case that in some instances
ORCA just re-implements algorithms worked out by others. We are fully aware of that and we are also
fully appreciative of our colleagues work. Hence this citation list should not be read as indicating
that the listed papers, which are focused on our own work, are the only ones worth citing. It simply
meant to make it easier for users to cite ORCA specific papers. It is not a substitute for doing your
own literature research and citing the relevant literature in a scientifically appropriate manner.

List of essential papers. We consider these as the minimum necessary citations

  1. Neese, F.
     Software update: the ORCA program system, version 6.0
     WIRES Comput. Molec. Sci. 2025 15(1), e70019
     doi.org/10.1002/wcms.70019

List of papers to cite with high priority. The work reported in these papers was absolutely
necessary for this run to complete.
Our perspective: the developers of density functionals and basis sets usually get cited in chemistry papers
Good! But without the algorithms to do something with them, the functionals or basis sets would not do anything.
Hence, in our opinion, the algorithm design and method developments papers are equally worthy of getting cited

  1. Lehtola, S.; Steigemann, C.; Oliveira, M.; Marques, M.
     Recent developments in Libxc - A comprehensive library of functionals for density functional theory
     Software X 2018 7 , 
     doi.org/10.1016/j.softx.2017.11.002
  2. Neese, F.
     The SHARK Integral Generation and Digestion System
     J. Comp. Chem. 2022 44(3), 381
     doi.org/10.1002/jcc.26942

List of suggested additional citations. These are papers that are important in the 'surrounding' of 
of this run, or papers that preceded the highly important papers. If you like your results we are grateful for a citation.

  1. Neese, F.
     The ORCA program system
     WIRES Comput. Molec. Sci. 2012 2(1), 73-78
     doi.org/10.1002/wcms.81
  2. Neese, F.
     Software update: the ORCA program system, version 4.0
     WIRES Comput. Molec. Sci. 2018 8(1), 1-6
     doi.org/10.1002/wcms.1327
  3. Neese, F.; Wennmohs, F.; Becker, U.; Riplinger, C.
     The ORCA quantum chemistry program package
     J. Chem. Phys. 2020 152(22), 224108
     doi.org/10.1063/5.0004608
  4. Neese, F.
     Software update: The ORCA program system—Version 5.0
     WIRES Comput. Molec. Sci. 2022 12(1), e1606
     doi.org/10.1002/wcms.1606

List of optional additional citations

  1. Neese, F.
     Approximate second-order SCF convergence for spin unrestricted wavefunctions
     Chem. Phys. Lett. 2000 325(1-3), 93-98
     doi.org/10.1016/s0009-2614(00)00662-x

Timings for individual modules:

Sum of individual times          ...        4.650 sec (=   0.077 min)
Startup calculation              ...        0.711 sec (=   0.012 min)  15.3 %
SCF iterations                   ...        3.392 sec (=   0.057 min)  72.9 %
Property integrals               ...        0.260 sec (=   0.004 min)   5.6 %
Property calculations            ...        0.283 sec (=   0.005 min)   6.1 %
Orbital localization             ...        0.004 sec (=   0.000 min)   0.1 %
                             ****ORCA TERMINATED NORMALLY****
TOTAL RUN TIME: 0 days 0 hours 0 minutes 5 seconds 602 msec
