
                                 *****************
                                 * O   R   C   A *
                                 *****************

                                            #,                                       
                                            ###                                      
                                            ####                                     
                                            #####                                    
                                            ######                                   
                                           ########,                                 
                                     ,,################,,,,,                         
                               ,,#################################,,                 
                          ,,##########################################,,             
                       ,#########################################, ''#####,          
                    ,#############################################,,   '####,        
                  ,##################################################,,,,####,       
                ,###########''''           ''''###############################       
              ,#####''   ,,,,##########,,,,          '''####'''          '####       
            ,##' ,,,,###########################,,,                        '##       
           ' ,,###''''                  '''############,,,                           
         ,,##''                                '''############,,,,        ,,,,,,###''
      ,#''                                            '''#######################'''  
     '                                                          ''''####''''         
             ,#######,   #######,   ,#######,      ##                                
            ,#'     '#,  ##    ##  ,#'     '#,    #''#        ,####,    ,#,          
            ##       ##  ##   ,#'  ##            #'  '#       #'       ,# #          
            ##       ##  #######   ##           ,######,      #####,      #          
            '#,     ,#'  ##    ##  '#,     ,#' ,#      #,     #,   #      #          
             '#######'   ##     ##  '#######'  #'      '#     '####' #    #          



                #########################################################
                #                        -***-                          #
                #          Department of theory and spectroscopy        #
                #                                                       #
                #                      Frank Neese                      #
                #                                                       #
                #     Directorship, Architecture, Infrastructure        #
                #                    SHARK, DRIVERS                     #
                #        Core code/Algorithms in most modules           #
                #                                                       #
                #        Max Planck Institute fuer Kohlenforschung      #
                #                Kaiser Wilhelm Platz 1                 #
                #                 D-45470 Muelheim/Ruhr                 #
                #                      Germany                          #
                #                                                       #
                #                  All rights reserved                  #
                #                        -***-                          #
                #########################################################


                         Program Version 6.1.1  -  RELEASE   -
                                (GIT: $487d211c$)
                          ($2025-11-21 10:33:24 +0100$)


 With contributions from (in alphabetic order):
[Max-Planck-Institut fuer Kohlenforschung]                               
  Daniel Aravena         : Magnetic Suceptibility                        
  Michael Atanasov       : Ab Initio Ligand Field Theory (pilot matlab implementation)
  Alexander A. Auer      : GIAO ZORA, VPT2 properties, NMR spectrum      
  Ute Becker             : All parallelization in ORCA, NUMFREQ, NUMCALC 
  Giovanni Bistoni       : ED, misc. LED, open-shell LED, HFLD           
  Dmytro Bykov           : pre 5.0 version of the SCF Hessian            
  Marcos Casanova-Páez   : Triplet and SCS-CIS(D). UHF-(DLPNO)-IP/EA/STEOM-CCSD. UHF-CVS-IP/STEOM-CCSD   
  Vijay G. Chilkuri      : MRCI spin determinant printing, contributions to CSF-ICE 
  Pauline Colinet        : FMM embedding                                 
  Dipayan Datta          : RHF DLPNO-CCSD density                        
  Achintya Kumar Dutta   : EOM-CC, STEOM-CC                              
  Nicolas Foglia         : Exact transition moments, OPA infrastructure, MCD improvements    
  Dmitry Ganyushin       : Spin-Orbit,Spin-Spin,Magnetic field MRCI      
  Miquel Garcia-Rates    : C-PCM and meta-GGA Hessian, CCSD/C-PCM, Gaussian charge scheme 
  Tiago L. C. Gouveia    : GS-ROHF, GS-ROCIS                             
  Yang Guo               : DLPNO-NEVPT2, F12-NEVPT2, CIM, IAO-localization        
  Andreas Hansen         : Spin unrestricted coupled pair/coupled cluster methods 
  Ingolf Harden          : AUTO-CI MPn and infrastructure                
  Benjamin Helmich-Paris : MC-RPA, TRAH-(SCF,CASSCF), AVAS, COSX integrals, SCF dyn. polar., MC-PDFT, srDFT 
  Lee Huntington         : MR-EOM, pCC                                   
  Robert Izsak           : Overlap fitted RIJCOSX, COSX-SCS-MP3, EOM     
  Riya Kayal             : Wick's Theorem for AUTO-CI, AUTO-CI UHF-CCSDT 
  Emily Kempfer          : AUTO-CI RHF CISDT and CCSDT, approximate NEVPT4
  Christian Kollmar      : KDIIS, OOCD, Brueckner-CCSD(T), CCSD density, CASPT2, CASPT2-K, improved NEVPT2 
  Axel Koslowski         : Symmetry handling                             
  Simone Kossmann        : meta-GGA functionals, TD-DFT gradient, OOMP2, (MP2 Hessian; deprecated post 5.0) 
  Lucas Lang             : DCDCAS, Hyperfine gauge corrections, ICE-SOC+SSC
  Marvin Lechner         : AUTO-CI (C++ implementation), FIC-MRCC        
  Spencer Leger          : CASSCF response                               
  Dagmar Lenk            : GEPOL surface, SMD, ORCA-2-JSON               
  Dimitrios Liakos       : Extrapolation schemes; Compound Job, Property file
  Dimitrios Manganas     : Further ROCIS development; embedding schemes. LFT, Crystal Embedding 
  Dimitrios Pantazis     : SARC Basis sets                               
  Anastasios Papadopoulos: AUTO-CI, single reference methods and gradients 
  Taras Petrenko         : pre 6.0 DFT Hessian and TD-DFT gradient,  ECA, NRVS 
  Petra Pikulova         : Analytic Raman intensities                    
  Peter Pinski           : DLPNO-MP2, DLPNO-MP2 Gradient                 
  Shashank Vittal Rao    : ES-AILFT, MagRelax                            
  Christoph Reimann      : Effective Core Potentials                     
  Marius Retegan         : Local ZFS, SOC                                
  Christoph Riplinger    : Optimizer, TS searches, QM/MM, DLPNO-CCSD(T), (RO)-DLPNO pert. Triples 
  Michael Roemelt        : Original ROCIS implementation, recursive CI coupling coefficients
  Masaaki Saitow         : Open-shell DLPNO-CCSD energy and density      
  Barbara Sandhoefer     : DKH picture change effects                    
  Yorick L. A. Schmerwitz: GMF and freeze-and-release deltaSCF, NEB S-IDPP initial path                    
  Kantharuban Sivalingam : CASSCF convergence/infrastructure, NEVPT2, NEVPT3, NEVPT4(SD), FIC-MRCI and CEPA variants
  Bernardo de Souza      : ESD, SOC TD-DFT                               
  Georgi L. Stoychev     : AutoAux, RI-MP2 NMR, DLPNO-MP2 response, X2C  
  Van Anh Tran           : RI-MP2 g-tensors                              
  Willem Van den Heuvel  : Paramagnetic NMR                              
  Zikuan Wang            : NOTCH, Electric field optimization            
  Frank Wennmohs         : Technical directorship and infrastructure     
  Hang Xu                : AUTO-CI-Response properties                   
                                                                         
[FACCTs GmbH]                                                            
  Markus Bursch, Nicolas Foglia, Miquel Garcia-Rates, Ingolf Harden, Hagen Neugebauer, Anastasios Papadopoulos, 
  Christoph Riplinger, Bernardo de Souza, Georgi L. Stoychev                                                    
                                                                 
  APM, various basis sets, CI-OPT, improved COSX, DLPNO-Multilevel,           
  DOCKER, DRACO, updates on ESD, Fragmentator, GOAT, IRC, LR-CPCM, L-BFGS, MBIS, meta-GGA TD-DFT gradient, ML-optimized integration grids, 
  MM, NACMEs, nearIR, NEB, NEB-TS, NL-DFT gradient (VV10), 2- and 3-layer-ONIOM, interface openCOSMO-RS, QMMM,   
  Crystal-QMMM, RESP, rigid body optimization, SF, symmetry and pop. for TD-DFT, various functionals, SOLVATOR                                   
                                                                         
[Other institutions]                                                     
  V. Asgeirsson          : NEB                                           
  Christoph Bannwarth    : sTDA-DFT, sTD-DFT, PBEh-3c, B97-3c, D3        
  Giovanni Bistoni       : ETS/NOCV, ADLD/ADEX, COVALED                  
  Martin Brehm           : Molecular dynamics                            
  Ronald Cardenas        : ETS/NOCV                                      
  Martina Colucci        : COVALED                                       
  Sebastian Ehlert       : rSCAN, r2SCAN, r2SCAN-3c, D4, dhf basis sets  
  Marvin Friede          : D4 for Fr, Ra, Ac-Lr                          
  Lars Goerigk           : TD-DFT with DH, B97 family of functionals     
  Stefan Grimme          : VdW corrections, initial TS optimization, DFT functionals, gCP, sTDA/sTD-DF 
  Waldemar Hujo          : DFT-NL                                        
  H. Jonsson             : NEB                                           
  Holger Kruse           : gCP                                           
  Marcel Mueller         : wB97X-3c, vDZP basis set                      
  Hagen Neugebauer       : wr2SCAN, Native XTB                           
  Gianluca Regni         : ADLD/ADEX                                     
  Tobias Risthaus        : pre 6.0 range-separated hybrid DFT and stability analysis
  Lukas Wittmann         : regularized MP2, r2SCAN double-hybrids, wr2SCAN        
                                                                         
We gratefully acknowledge several colleagues who have allowed us to      
interface, adapt or use parts of their codes:                            
  Ed Valeev, F. Pavosevic, A. Kumar             : LibInt (2-el integral package), F12 methods 
  Garnet Chan, S. Sharma, J. Yang, R. Olivares  : DMRG                   
  Ulf Ekstrom                                   : XCFun DFT Library      
  Mihaly Kallay                                 : mrcc  (arbitrary order and MRCC methods)
  Frank Weinhold                                : gennbo (NPA and NBO analysis)           
  Simon Mueller                                 : openCOSMO-RS                            
  Christopher J. Cramer and Donald G. Truhlar   : smd solvation model                     
  S Lehtola, MJT Oliveira, MAL Marques          : LibXC Library                           
  Liviu Ungur et al                             : ANISO software                          


 Your calculation uses the libint2 library for the computation of 2-el integrals
 For citations please refer to: http://libint.valeyev.net

 Your ORCA version has been built with support for libXC version: 7.0.0
 For citations please refer to: https://libxc.gitlab.io

 This ORCA versions uses:
   CBLAS   interface :  Fast vector & matrix operations
   LAPACKE interface :  Fast linear algebra routines
   SCALAPACK package :  Parallel linear algebra routines
   Shared memory     :  Shared parallel matrices
   BLAS/LAPACK       :  OpenBLAS 0.3.29  USE64BITINT DYNAMIC_ARCH NO_AFFINITY Cooperlake SINGLE_THREADED
        Core in use  :  Cooperlake
   Copyright (c) 2011-2014, The OpenBLAS Project


  ***********************************
  * Starting time: Wed May 20 12:40:34 2026
  * Host name:     c1-41
  * Process ID:    4146610
  * Working dir.:  /cluster/projects/nn14654k/ylvaos/basis_set_n_funcs/functionals/gga_c_pw91/SiH2/out
  ***********************************

Using LibXC functional ID 134 : Perdew & Wang 91
[ 1]  J. P. Perdew. In P. Ziesche and H. Eschrig, editors, Proceedings of the 75. WE-Heraeus-Seminar and 21st Annual International Symposium on Electronic Structure of Solids, 11. Berlin, 1991. Akademie Verlag.
[ 2]  J. P. Perdew, J. A. Chevary, S. H. Vosko, K. A. Jackson, M. R. Pederson, D. J. Singh, and C. Fiolhais.,  Phys. Rev. B 46, 6671 (1992)
[ 3]  J. P. Perdew, J. A. Chevary, S. H. Vosko, K. A. Jackson, M. R. Pederson, D. J. Singh, and C. Fiolhais.,  Phys. Rev. B 48, 4978 (1993)
Using LibXC functional ID 134 : Perdew & Wang 91
[ 1]  J. P. Perdew. In P. Ziesche and H. Eschrig, editors, Proceedings of the 75. WE-Heraeus-Seminar and 21st Annual International Symposium on Electronic Structure of Solids, 11. Berlin, 1991. Akademie Verlag.
[ 2]  J. P. Perdew, J. A. Chevary, S. H. Vosko, K. A. Jackson, M. R. Pederson, D. J. Singh, and C. Fiolhais.,  Phys. Rev. B 46, 6671 (1992)
[ 3]  J. P. Perdew, J. A. Chevary, S. H. Vosko, K. A. Jackson, M. R. Pederson, D. J. Singh, and C. Fiolhais.,  Phys. Rev. B 48, 4978 (1993)
Your calculation utilizes LibXC
by S. Lehtola, C. Steigemann, M. J. T. Oliveira & M. A. L. Marques
Please cite in your paper:
Lehtola, S.; Steigemann, C.; Oliveira, M.J.T.; Marques, M. A. L. Software X, 7, (2018), 1.
   

================================================================================

----- Orbital basis set information -----
Your calculation utilizes the basis: aug-cc-pVQZ 
    H, B-Ne : Obtained from the ccRepo (grant-hill.group.shef.ac.uk/ccrepo) Feb. 2017
              R. A. Kendall, T. H. Dunning, Jr., R. J. Harrison, J. Chem. Phys. 96, 6796 (1992)
         He : Obtained from the ccRepo (grant-hill.group.shef.ac.uk/ccrepo) Feb. 2017
              D. E. Woon, T. H. Dunning, Jr., J. Chem. Phys. 100, 2975 (1994)
  Li-Be, Na : Obtained from the ccRepo (grant-hill.group.shef.ac.uk/ccrepo) Feb. 2017
              B. P. Prascher, D. E. Woon, K. A. Peterson, T. H. Dunning, Jr., A. K. Wilson, Theor. Chem. Acc. 128, 69 (2011)
         Mg : Obtained from the Peterson Research Group Website (tyr0.chem.wsu.edu/~kipeters) Feb. 2017
              B. P. Prascher, D. E. Woon, K. A. Peterson, T. H. Dunning, Jr., A. K. Wilson, Theor. Chem. Acc. 128, 69 (2011)
      Al-Ar : Obtained from the ccRepo (grant-hill.group.shef.ac.uk/ccrepo) Feb. 2017
              D. E. Woon, T. H. Dunning, Jr., J. Chem. Phys. 98, 1358 (1993)
      Sc-Zn : Obtained from the ccRepo (grant-hill.group.shef.ac.uk/ccrepo) Feb. 2017
              N. B. Balabanov, K. A. Peterson, J. Chem. Phys. 123, 064107 (2005)
              N. B. Balabanov, K. A. Peterson, J. Chem. Phys. 125, 074110 (2006)
      Ga-Kr : Obtained from the ccRepo (grant-hill.group.shef.ac.uk/ccrepo) Feb. 2017
              A. K. Wilson, D. E. Woon, K. A. Peterson, T. H. Dunning, Jr., J. Chem. Phys. 110, 7667 (1999)

================================================================================
                                        WARNINGS
                       Please study these warnings very carefully!
================================================================================


================================================================================
                                       INPUT FILE
================================================================================
NAME = /cluster/projects/nn14654k/ylvaos/basis_set_n_funcs/functionals/gga_c_pw91/SiH2/inp/SiH2_gga_c_pw91_augccpvqz.inp
|  1> ! dft aug-cc-pVQZ TightSCF
|  2> %pal nprocs 8 end
|  3> 
|  4> %loc
|  5>   LocMet NewBoys
|  6>   Occ true
|  7> end
|  8> 
|  9> %method
| 10>   exchange None
| 11>   correlation gga_c_pw91
| 12> end
| 13> 
| 14> %elprop
| 15>   Dipole true
| 16>   Quadrupole true
| 17> end
| 18> 
| 19> * xyz 0 1
| 20> Si    0.000000000000   0.000000000000   0.000000000000
| 21> H    0.000000000000   0.000000000000  -1.514100000000
| 22> H    0.000000000000   1.513200000000   0.052800000000
| 23> *
| 24> 
| 25> 
| 26>                          ****END OF INPUT****
================================================================================

                       ****************************
                       * Single Point Calculation *
                       ****************************

---------------------------------
CARTESIAN COORDINATES (ANGSTROEM)
---------------------------------
  Si     0.000000    0.000000    0.000000
  H      0.000000    0.000000   -1.514100
  H      0.000000    1.513200    0.052800

----------------------------
CARTESIAN COORDINATES (A.U.)
----------------------------
  NO LB      ZA    FRAG     MASS         X           Y           Z
   0 Si   14.0000    0    28.086    0.000000    0.000000    0.000000
   1 H     1.0000    0     1.008    0.000000    0.000000   -2.861234
   2 H     1.0000    0     1.008    0.000000    2.859534    0.099778

--------------------------------
INTERNAL COORDINATES (ANGSTROEM)
--------------------------------
 Si     0   0   0     0.000000000000     0.00000000     0.00000000
 H      1   0   0     1.514100000000     0.00000000     0.00000000
 H      1   2   0     1.514120893456    91.99840755     0.00000000

---------------------------
INTERNAL COORDINATES (A.U.)
---------------------------
 Si     0   0   0     0.000000000000     0.00000000     0.00000000
 H      1   0   0     2.861234339370     0.00000000     0.00000000
 H      1   2   0     2.861273822280    91.99840755     0.00000000

---------------------
BASIS SET INFORMATION
---------------------
There are 2 groups of distinct atoms

 Group   1 Type Si  : 43s20p4d3f2g contracted to 7s6p4d3f2g pattern {1313131111/881111/1111/111/11}
 Group   2 Type H   : 7s4p3d2f contracted to 5s4p3d2f pattern {31111/1111/111/11}

Atom   0Si   basis set group =>   1
Atom   1H    basis set group =>   2
Atom   2H    basis set group =>   2


           ************************************************************
           *        Program running with 8 parallel MPI-processes     *
           *              working on a common directory               *
           ************************************************************
------------------------------------------------------------------------------
                             ORCA STARTUP CALCULATIONS
------------------------------------------------------------------------------
------------------------------------------------------------------------------
                   ___                                                        
                  /   \      - P O W E R E D   B Y -                         
                 /     \                                                     
                 |  |  |   _    _      __       _____    __    __             
                 |  |  |  | |  | |    /  \     |  _  \  |  |  /  |          
                  \  \/   | |  | |   /    \    | | | |  |  | /  /          
                 / \  \   | |__| |  /  /\  \   | |_| |  |  |/  /          
                |  |  |   |  __  | /  /__\  \  |    /   |      \           
                |  |  |   | |  | | |   __   |  |    \   |  |\   \          
                \     /   | |  | | |  |  |  |  | |\  \  |  | \   \       
                 \___/    |_|  |_| |__|  |__|  |_| \__\ |__|  \__/        
                                                                              
                      - O R C A' S   B I G   F R I E N D -                    
                                      &                                       
                       - I N T E G R A L  F E E D E R -                       
                                                                              
 v1 FN, 2020, v2 2021, v3 2022-2024                                           
------------------------------------------------------------------------------


----------------------
SHARK INTEGRAL PACKAGE
----------------------

Number of atoms                             ...      3
Number of basis functions                   ...    204
Number of shells                            ...     66
Maximum angular momentum                    ...      4
Integral batch strategy                     ... SHARK/LIBINT Hybrid
RI-J (if used) integral strategy            ... SPLIT-RIJ (Revised 2003 algorithm where possible)
Printlevel                                  ...      1
Contraction scheme used                     ... PARTIAL GENERAL contraction
Prescreening option                         ... SCHWARTZ
   Thresh                                   ... 2.500e-11
   Tcut                                     ... 2.500e-12
   Tpresel                                  ... 2.500e-12 
Coulomb Range Separation                    ... NOT USED
Exchange Range Separation                   ... NOT USED
Multipole approximations                    ... NOT USED
Finite Nucleus Model                        ... NOT USED
CABS basis                                  ... NOT available
Auxiliary Coulomb fitting basis             ... NOT available
Auxiliary J/K fitting basis                 ... NOT available
Auxiliary Correlation fitting basis         ... NOT available
Auxiliary 'external' fitting basis          ... NOT available

Checking pre-screening integrals            ... done (  0.0 sec) Dimension = 66
Save PGC pre-screening integrals            ... done (  0.0 sec) Dimension = 66
Calculate PGC overlap integrals             ... done (  0.0 sec) Dimension = 50
Calculating pre-screening integrals (ORCA)  ... done (  0.1 sec) Dimension = 50
Shell pair information
Shell pair cut-off parameter TPreSel        ...   2.5e-12
Total number of shell pairs                 ...      2211
Shell pairs after pre-screening             ...      2197
Total number of primitive shell pairs       ...      2491
Primitive shell pairs kept                  ...      2395
          la=0 lb=0:    374 shell pairs
          la=1 lb=0:    540 shell pairs
          la=1 lb=1:    210 shell pairs
          la=2 lb=0:    270 shell pairs
          la=2 lb=1:    200 shell pairs
          la=2 lb=2:     55 shell pairs
          la=3 lb=0:    185 shell pairs
          la=3 lb=1:    140 shell pairs
          la=3 lb=2:     70 shell pairs
          la=3 lb=3:     28 shell pairs
          la=4 lb=0:     48 shell pairs
          la=4 lb=1:     40 shell pairs
          la=4 lb=2:     20 shell pairs
          la=4 lb=3:     14 shell pairs
          la=4 lb=4:      3 shell pairs

Checking whether 4 symmetric matrices of dimension 204 fit in memory
:Max Core in MB      =   4096.00
 MB in use           =      5.72
 MB left             =   4090.28
 MB needed           =      0.64
 Data fit in memory  = YES
Calculating Nuclear repulsion               ... done (  0.0 sec) ENN=     10.028851096195 Eh

Diagonalization of the overlap matrix:
Smallest eigenvalue                        ... 7.287e-05
Time for diagonalization                   ...    0.002 sec
Threshold for overlap eigenvalues          ... 1.000e-07
Number of eigenvalues below threshold      ... 0
Time for construction of square roots      ...    0.002 sec
Total time needed                          ...    0.008 sec

-------------------
DFT GRID GENERATION
-------------------

General Integration Accuracy     IntAcc      ... 4.388
Radial Grid Type                 RadialGrid  ... OptM3 with GC (2021)
Angular Grid (max. ang.)         AngularGrid ... 4 (Lebedev-302)
Angular grid pruning method      GridPruning ... 4 (adaptive)
Weight generation scheme         WeightScheme... mBecke (2022)
Basis function cutoff            BFCut       ... 1.0000e-11
Integration weight cutoff        WCut        ... 1.0000e-14
Partially contracted basis set               ... off
Rotationally invariant grid construction     ... off
Angular grids for H and He will be reduced by one unit
Diffuse basis detected: some atoms will have their outermost
                        angular grid increased by 1.

Total number of grid points                  ...    14794
Total number of batches                      ...      232
Average number of points per batch           ...       63
Average number of grid points per atom       ...     4931

---------------------
SHARK GRID GENERATION
---------------------

General Integration Accuracy     IntAcc      ... 4.388
Radial Grid Type                 RadialGrid  ... OptM3 with GC (2021)
Angular Grid (max. ang.)         AngularGrid ... 4 (Lebedev-302)
Angular grid pruning method      GridPruning ... 4 (adaptive)
Weight generation scheme         WeightScheme... mBecke (2022)
Basis function cutoff            BFCut       ... 1.0000e-11
Integration weight cutoff        WCut        ... 1.0000e-14
Partially contracted basis set               ... off
Rotationally invariant grid construction     ... off
Angular grids for H and He will be reduced by one unit
Diffuse basis detected: some atoms will have their outermost
                        angular grid increased by 1.
Core-polarized basis detected: some atoms will have their core
                               angular grid increased.
Steep s-basis detected: some atoms will have their radial
                        grid points doubled.

Total number of grid points                  ...    27189
Total number of batches                      ...      425
Average number of points per batch           ...       63
Average number of grid points per atom       ...     9063
Grids setup in   0.2 sec
Initializing property integral containers    ... done (  0.0 sec)

SHARK setup successfully completed in   0.4 seconds

Maximum memory used throughout the entire STARTUP-calculation: 59.2 MB


           ************************************************************
           *        Program running with 8 parallel MPI-processes     *
           *              working on a common directory               *
           ************************************************************
-------------------------------------------------------------------------------
                                 ORCA GUESS
                   Start orbitals & Density for SCF / CASSCF
-------------------------------------------------------------------------------

------------
SCF SETTINGS
------------
Hamiltonian:
 Density Functional     Method          .... DFT(GTOs)
 Exchange Functional    Exchange        .... no Exchange
  Functional kind                       .... Correlation
  Functional name                       .... Perdew & Wang 91
  Functional family                     .... GGA
  Functional refs                              
    [ 0] J. P. Perdew. In P. Ziesche and H. Eschrig, editors, Proceedings of the 75. WE-Heraeus-Seminar and 21st Annual International Symposium on Electronic Structure of Solids, 11. Berlin, 1991. Akademie Verlag.
    [ 1] J. P. Perdew, J. A. Chevary, S. H. Vosko, K. A. Jackson, M. R. Pederson, D. J. Singh, and C. Fiolhais.,  Phys. Rev. B 46, 6671 (1992), doi: 10.1103/PhysRevB.46.6671
    [ 2] J. P. Perdew, J. A. Chevary, S. H. Vosko, K. A. Jackson, M. R. Pederson, D. J. Singh, and C. Fiolhais.,  Phys. Rev. B 48, 4978 (1993), doi: 10.1103/PhysRevB.48.4978.2
  Functional external parameters        .... 0
 Gradients option       PostSCFGGA      .... off


General Settings:
 Integral files         IntName         .... /cluster/projects/nn14654k/ylvaos/basis_set_n_funcs/functionals/gga_c_pw91/SiH2/inp/SiH2_gga_c_pw91_augccpvqz
 Hartree-Fock type      HFTyp           .... RHF
 Total Charge           Charge          ....    0
 Multiplicity           Mult            ....    1
 Number of Electrons    NEL             ....   16
 Basis Dimension        Dim             ....  176
 Nuclear Repulsion      ENuc            ....     10.0288510962 Eh

Convergence Acceleration:
 AO-DIIS                CNVDIIS         .... on
   Start iteration      DIISMaxIt       ....    12
   Startup error        DIISStart       ....  0.200000
   # of expansion vecs  DIISMaxEq       ....     5
   Bias factor          DIISBfac        ....   1.050
   Max. coefficient     DIISMaxC        ....  10.000
 MO-DIIS                CNVKDIIS        .... off
 Trust-Rad. Augm. Hess. CNVTRAH         .... auto
   Auto Start mean grad. ratio tolernc. ....  1.125000
   Auto Start start iteration           ....    50
   Auto Start num. interpolation iter.  ....    10
   Max. Number of Micro iterations      ....    24
   Max. Number of Macro iterations      .... Maxiter - #DIIS iter
   Number of Davidson start vectors     ....     2
   Converg. threshold    (grad. norm)   ....   1.000e-05
   Grad. Scal. Fac. for Micro threshold ....   0.100
   Minimum threshold for Micro iter.    ....   1.000e-02
   NR start threshold (gradient norm)   ....   1.000e-04
   Initial trust radius                 ....   0.400
   Minimum AH scaling param. (alpha)    ....   1.000
   Maximum AH scaling param. (alpha)    .... 1000.000
   Quad. conv. algorithm                .... NR
   White noise on init. David. guess    .... on
   Maximum white noise                  ....   0.010
   Pseudo random numbers                .... off
   Inactive MOs                         .... canonical
   Orbital update algorithm             .... Taylor
   Preconditioner                       .... Diag
   Full preconditioner red. dimension   ....   250
 SOSCF                 CNVSOSCF           .... on
   Start iteration     SOSCFMaxIt         ....   150
   Startup grad/error  SOSCFStart         ....  0.003300
   Hessian update      SOSCFHessUp        .... L-BFGS
   Autom. constraints  SOSCFAutoConstrain .... off
 Level Shifting         CNVShift        .... on
   Level shift para.    LevelShift      ....    0.2500
   Turn off err/grad.   ShiftErr        ....    0.0010
 Zerner damping         CNVZerner       .... off
 Static damping         CNVDamp         .... on
   Fraction old density DampFac         ....    0.7000
   Max. Damping (<1)    DampMax         ....    0.9800
   Min. Damping (>=0)   DampMin         ....    0.0000
   Turn off err/grad.   DampErr         ....    0.1000

SCF Procedure:
 Maximum # iterations   MaxIter         ....   125
 SCF integral mode      SCFMode         .... Direct
   Integral package                     .... SHARK and LIBINT hybrid scheme
 Reset frequency        DirectResetFreq ....    20
 Integral Threshold     Thresh          ....  2.500e-11 Eh
 Primitive CutOff       TCut            ....  2.500e-12 Eh

Convergence Tolerance:
 Convergence Check Mode ConvCheckMode   .... Total+1el-Energy
 Convergence forced     ConvForced      .... 0
 Energy Change          TolE            ....  1.000e-08 Eh
 1-El. energy change                    ....  1.000e-05 Eh
 Orbital Gradient       TolG            ....  1.000e-05
 Orbital Rotation angle TolX            ....  1.000e-05
 DIIS Error             TolErr          ....  5.000e-07

------------------------------
INITIAL GUESS: MODEL POTENTIAL
------------------------------
Loading Hartree-Fock densities                     ... done
Calculating cut-offs                               ... done
Initializing the effective Hamiltonian             ... done
Setting up the integral package (SHARK)            ... done
Starting the Coulomb interaction                   ... done (   0.0 sec)
Making the grid                                    ... done (   0.0 sec)
Mapping shells                                     ... done
Starting the XC term evaluation                    ... done (   0.0 sec)
  promolecular density results
     # of electrons  =     15.999547908
     EX              =      0.000000000
     EC              =     -0.604133675
     EX+EC           =     -0.604133675
Transforming the Hamiltonian                       ... done (   0.0 sec)
Diagonalizing the Hamiltonian                      ... done (   0.0 sec)
Back transforming the eigenvectors                 ... done (   0.0 sec)
Now organizing SCF variables                       ... done
                      ------------------
                      INITIAL GUESS DONE (   0.1 sec)
                      ------------------
             **** ENERGY FILE WAS UPDATED (/cluster/projects/nn14654k/ylvaos/basis_set_n_funcs/functionals/gga_c_pw91/SiH2/inp/SiH2_gga_c_pw91_augccpvqz.en.tmp) ****
Finished Guess after   0.2 sec
Maximum memory used throughout the entire GUESS-calculation: 12.1 MB


           ************************************************************
           *        Program running with 8 parallel MPI-processes     *
           *              working on a common directory               *
           ************************************************************

-------------------------------------------------------------------------------------------
                                      ORCA LEAN-SCF
                              memory conserving SCF solver
-------------------------------------------------------------------------------------------

----------------------------------------D-I-I-S--------------------------------------------
Iteration    Energy (Eh)           Delta-E    RMSDP     MaxDP     DIISErr   Damp  Time(sec)
-------------------------------------------------------------------------------------------
               ***  Starting incremental Fock matrix formation  ***
    1    -269.5554786249146559     0.00e+00  1.44e-01  2.70e+00  6.58e-01  0.700   0.5
Warning: op=0 Small HOMO/LUMO gap (   0.014) - skipping pre-diagonalization
         Will do a full diagonalization
    2    -269.8392356417379574    -2.84e-01  1.14e-01  2.27e+00  3.25e-01  0.700   0.5
                               ***Turning on AO-DIIS***
    3    -269.9630745516522552    -1.24e-01  7.74e-02  1.60e+00  1.47e-01  0.700   0.5
    4    -270.0235604068637372    -6.05e-02  5.54e-02  1.13e+00  8.91e-02  0.700   0.6
    5    -270.0602616192194887    -3.67e-02  1.32e-01  2.64e+00  5.49e-02  0.000   0.5
    6    -270.1393690601003073    -7.91e-02  4.83e-03  5.57e-02  1.79e-02  0.000   0.5
    7    -270.1414932345220450    -2.12e-03  2.48e-03  4.91e-02  9.39e-03  0.000   0.5
    8    -270.1420646397853602    -5.71e-04  1.29e-03  2.35e-02  5.07e-03  0.000   0.5
                              *** Initializing SOSCF ***
---------------------------------------S-O-S-C-F--------------------------------------
Iteration    Energy (Eh)           Delta-E    RMSDP     MaxDP     MaxGrad    Time(sec)
--------------------------------------------------------------------------------------
    9    -270.1422449881044940    -1.80e-04  7.29e-04  1.20e-02  3.19e-03     0.8
               *** Restarting incremental Fock matrix formation ***
   10    -270.1423191146757858    -7.41e-05  2.21e-03  4.12e-02  1.96e-03     0.6
   11    -270.1423712588902504    -5.21e-05  1.88e-03  3.45e-02  7.78e-04     0.5
   12    -270.1423857559465205    -1.45e-05  4.59e-04  8.39e-03  2.47e-04     0.6
   13    -270.1423869549134338    -1.20e-06  1.62e-04  3.39e-03  8.87e-05     0.4
   14    -270.1423870574832335    -1.03e-07  6.83e-05  1.54e-03  1.71e-05     0.4
   15    -270.1423870679672063    -1.05e-08  1.67e-05  2.40e-04  9.26e-06     0.4
   16    -270.1423870701321448    -2.16e-09  3.66e-06  5.44e-05  2.82e-06     0.4
                 **** Energy Check signals convergence ****

               *****************************************************
               *                     SUCCESS                       *
               *           SCF CONVERGED AFTER  16 CYCLES          *
               *****************************************************

             **** ENERGY FILE WAS UPDATED (/cluster/projects/nn14654k/ylvaos/basis_set_n_funcs/functionals/gga_c_pw91/SiH2/inp/SiH2_gga_c_pw91_augccpvqz.en.tmp) ****

----------------
TOTAL SCF ENERGY
----------------

Total Energy       :       -270.14238707017228 Eh           -7350.94807 eV

Components:
Nuclear Repulsion  :         10.02885109619548 Eh             272.89891 eV
Electronic Energy  :       -280.17123816636774 Eh           -7623.84698 eV
One Electron Energy:       -413.44791259977433 Eh          -11250.48967 eV
Two Electron Energy:        133.27667443340658 Eh            3626.64269 eV

Virial components:
Potential Energy   :       -549.33654142380817 Eh          -14948.20724 eV
Kinetic Energy     :        279.19415435363589 Eh            7597.25918 eV
Virial Ratio       :          1.96757895126988

DFT components:
N(Alpha)           :        7.999257459847 electrons
N(Beta)            :        7.999257459847 electrons
N(Total)           :       15.998514919694 electrons
E(X)               :        0.000000000000 Eh       
E(C)               :       -0.580935722035 Eh       
E(XC)              :       -0.580935722035 Eh       

---------------
SCF CONVERGENCE
---------------

  Last Energy change         ...    2.1649e-09  Tolerance :   1.0000e-08
  Last MAX-Density change    ...    5.4355e-05  Tolerance :   1.0000e-07
  Last RMS-Density change    ...    3.6638e-06  Tolerance :   5.0000e-09
  Last DIIS Error            ...    3.1908e-03  Tolerance :   5.0000e-07
  Last Orbital Gradient      ...    2.8153e-06  Tolerance :   1.0000e-05
  Last Orbital Rotation      ...    4.2494e-06  Tolerance :   1.0000e-05


----------------
ORBITAL ENERGIES
----------------

  NO   OCC          E(Eh)            E(eV) 
   0   2.0000     -61.110313     -1662.8962 
   1   2.0000      -4.095087      -111.4330 
   2   2.0000      -2.562930       -69.7409 
   3   2.0000      -2.551951       -69.4421 
   4   2.0000      -2.550701       -69.4081 
   5   2.0000      -0.256722        -6.9858 
   6   2.0000      -0.090274        -2.4565 
   7   2.0000      -0.036138        -0.9834 
   8   0.0000      -0.020645        -0.5618 
   9   0.0000       0.026021         0.7081 
  10   0.0000       0.044858         1.2206 
  11   0.0000       0.050662         1.3786 
  12   0.0000       0.057460         1.5636 
  13   0.0000       0.062543         1.7019 
  14   0.0000       0.097976         2.6661 
  15   0.0000       0.104327         2.8389 
  16   0.0000       0.104736         2.8500 
  17   0.0000       0.107139         2.9154 
  18   0.0000       0.121797         3.3143 
*Only the first 10 virtual orbitals were printed.

                    ********************************
                    * MULLIKEN POPULATION ANALYSIS *
                    ********************************

-----------------------
MULLIKEN ATOMIC CHARGES
-----------------------
   0 Si:   -0.504832
   1 H :    0.252421
   2 H :    0.252411
Sum of atomic charges:    0.0000000

--------------------------------
MULLIKEN REDUCED ORBITAL CHARGES
--------------------------------
  0 Sis       :     6.021419  s :     6.021419
      pz      :     3.195095  p :     8.424268
      px      :     2.020380
      py      :     3.208793
      dz2     :     0.033928  d :     0.066811
      dxz     :     0.000025
      dyz     :     0.007370
      dx2y2   :     0.025460
      dxy     :     0.000027
      f0      :    -0.003256  f :    -0.006551
      f+1     :    -0.000004
      f-1     :    -0.000480
      f+2     :     0.000071
      f-2     :     0.000000
      f+3     :    -0.000006
      f-3     :    -0.002876
      g0      :    -0.000523  g :    -0.001116
      g+1     :    -0.000000
      g-1     :     0.000025
      g+2     :    -0.000150
      g-2     :     0.000000
      g+3     :     0.000000
      g-3     :     0.000011
      g+4     :    -0.000479
      g-4     :    -0.000000

  1 H s       :     0.892450  s :     0.892450
      pz      :    -0.086051  p :    -0.090351
      px      :    -0.001085
      py      :    -0.003215
      dz2     :    -0.032920  d :    -0.038150
      dxz     :    -0.004712
      dyz     :    -0.000708
      dx2y2   :     0.000190
      dxy     :     0.000000
      f0      :    -0.010533  f :    -0.016370
      f+1     :    -0.004414
      f-1     :    -0.001482
      f+2     :     0.000049
      f-2     :    -0.000000
      f+3     :    -0.000000
      f-3     :     0.000011

  2 H s       :     0.892436  s :     0.892436
      pz      :    -0.002841  p :    -0.090333
      px      :    -0.001085
      py      :    -0.086407
      dz2     :    -0.007898  d :    -0.038145
      dxz     :    -0.000003
      dyz     :    -0.000626
      dx2y2   :    -0.024909
      dxy     :    -0.004708
      f0      :    -0.000485  f :    -0.016369
      f+1     :    -0.000300
      f-1     :    -0.003662
      f+2     :    -0.000902
      f-2     :    -0.000016
      f+3     :    -0.004098
      f-3     :    -0.006907



                     *******************************
                     * LOEWDIN POPULATION ANALYSIS *
                     *******************************

----------------------
LOEWDIN ATOMIC CHARGES
----------------------
   0 Si:    1.064070
   1 H :   -0.532046
   2 H :   -0.532024

-------------------------------
LOEWDIN REDUCED ORBITAL CHARGES
-------------------------------
  0 Sis       :     4.841565  s :     4.841565
      pz      :     2.963917  p :     7.913911
      px      :     1.974486
      py      :     2.975507
      dz2     :     0.088338  d :     0.145530
      dxz     :     0.000043
      dyz     :     0.003955
      dx2y2   :     0.053148
      dxy     :     0.000046
      f0      :     0.012155  f :     0.026972
      f+1     :     0.000025
      f-1     :     0.008401
      f+2     :     0.001351
      f-2     :     0.000001
      f+3     :     0.000041
      f-3     :     0.004998
      g0      :     0.004187  g :     0.007952
      g+1     :     0.000032
      g-1     :     0.000167
      g+2     :     0.001449
      g-2     :     0.000004
      g+3     :     0.000000
      g-3     :     0.000062
      g+4     :     0.002024
      g-4     :     0.000026

  1 H s       :     0.877006  s :     0.877006
      pz      :     0.240544  p :     0.433766
      px      :     0.000377
      py      :     0.192845
      dz2     :     0.060659  d :     0.143332
      dxz     :     0.003091
      dyz     :     0.076537
      dx2y2   :     0.003045
      dxy     :     0.000000
      f0      :     0.048629  f :     0.077942
      f+1     :     0.009179
      f-1     :     0.018839
      f+2     :     0.001274
      f-2     :     0.000001
      f+3     :     0.000000
      f-3     :     0.000021

  2 H s       :     0.877001  s :     0.877001
      pz      :     0.190793  p :     0.433756
      px      :     0.000377
      py      :     0.242587
      dz2     :     0.018019  d :     0.143329
      dxz     :     0.000006
      dyz     :     0.075247
      dx2y2   :     0.046972
      dxy     :     0.003086
      f0      :     0.006330  f :     0.077938
      f+1     :     0.000559
      f-1     :     0.018986
      f+2     :     0.012044
      f-2     :     0.000018
      f+3     :     0.008602
      f-3     :     0.031400



                      *****************************
                      * MAYER POPULATION ANALYSIS *
                      *****************************

  NA   - Mulliken gross atomic population
  ZA   - Total nuclear charge
  QA   - Mulliken gross atomic charge
  VA   - Mayer's total valence
  BVA  - Mayer's bonded valence
  FA   - Mayer's free valence

  ATOM       NA         ZA         QA         VA         BVA        FA
  0 Si    14.5048    14.0000    -0.5048     1.2807     1.2807     0.0000
  1 H      0.7476     1.0000     0.2524     0.6544     0.6544    -0.0000
  2 H      0.7476     1.0000     0.2524     0.6545     0.6545     0.0000

  Mayer bond orders larger than 0.100000
B(  0-Si,  1-H ) :   0.6403 B(  0-Si,  2-H ) :   0.6404 

-------
TIMINGS
-------

Total SCF time: 0 days 0 hours 0 min 8 sec 

Total time                  ....       8.651 sec
Sum of individual times     ....       8.242 sec  ( 95.3%)

SCF preparation             ....       0.240 sec  (  2.8%)
Fock matrix formation       ....       6.211 sec  ( 71.8%)
  Startup                   ....       0.032 sec  (  0.5% of F)
  Coulomb formation         ....       4.608 sec  ( 74.2% of F)
  XC integration            ....       0.914 sec  ( 14.7% of F)
    XC Preparation          ....       0.000 sec  (  0.0% of XC)
    Basis function eval.    ....       0.057 sec  (  6.3% of XC)
    Density eval.           ....       0.047 sec  (  5.1% of XC)
    XC-Functional eval.     ....       0.014 sec  (  1.5% of XC)
    XC-Potential eval.      ....       0.130 sec  ( 14.2% of XC)
Diagonalization             ....       0.000 sec  (  0.0%)
Density matrix formation    ....       0.438 sec  (  5.1%)
Total Energy calculation    ....       0.045 sec  (  0.5%)
Population analysis         ....       0.025 sec  (  0.3%)
Orbital Transformation      ....       0.076 sec  (  0.9%)
Orbital Orthonormalization  ....       0.000 sec  (  0.0%)
DIIS solution               ....       0.814 sec  (  9.4%)
SOSCF solution              ....       0.393 sec  (  4.5%)
Finished LeanSCF after   8.7 sec

Maximum memory used throughout the entire LEANSCF-calculation: 22.0 MB


           ************************************************************
           *        Program running with 8 parallel MPI-processes     *
           *              working on a common directory               *
           ************************************************************

------------------------------------------------------------------------------
                         ORCA PROPERTY INTEGRAL CALCULATIONS
------------------------------------------------------------------------------

GBWName                                   ... /cluster/projects/nn14654k/ylvaos/basis_set_n_funcs/functionals/gga_c_pw91/SiH2/inp/SiH2_gga_c_pw91_augccpvqz.gbw
Number of atoms                           ...      3
Number of basis functions                 ...    204
Max core memory                           ...   4096 MB

Dipole integrals                          ... YES
Quadrupole integrals                      ... YES
Linear momentum integrals                 ...  NO
Angular momentum integrals                ...  NO
Higher moments length integrals           ...  NO
Higher moments velocity integrals         ...  NO
Kinetic energy integrals                  ...  NO
GIAO right hand sides                     ...  NO
GIAO dipole derivative integrals          ...  NO
SOC integrals                             ...  NO
EPR diamagnetic integrals (GIAO)          ...  NO
EPR gauge integrals                       ...  NO
Field gradient integrals                  ...  NO (   0 nuclei)
Spin-dipole/Fermi contact integrals       ...  NO (   0 nuclei)
Contact density integrals                 ...  NO (   0 nuclei)
Nucleus-orbit integrals                   ...  NO (   0 nuclei)
Geometric perturbations                   ...  NO (   3 nuclei)

Choice of electric origin   ... Center of mass
Position of electric origin ... (  0.0000,  0.0958, -0.0925) 
Choice of magnetic origin   ... GIAO
Position of magnetic origin ... (  0.0000,  0.0000,  0.0000) 

Calculating integrals                     ... Electric Dipole (Length)     done (  0.0 sec)
Calculating integrals                     ... Electric Quadrupole (Length) done (  0.0 sec)

Property integrals calculated in   0.0 sec

Maximum memory used throughout the entire PROPINT-calculation: 12.9 MB
------------------------------------------------------------------------------
                           ORCA ORBITAL LOCALIZATION
------------------------------------------------------------------------------

Input orbitals are from                  ... /cluster/projects/nn14654k/ylvaos/basis_set_n_funcs/functionals/gga_c_pw91/SiH2/inp/SiH2_gga_c_pw91_augccpvqz.gbw
Output orbitals are to                   ... /cluster/projects/nn14654k/ylvaos/basis_set_n_funcs/functionals/gga_c_pw91/SiH2/inp/SiH2_gga_c_pw91_augccpvqz.loc
Max. number of iterations                ... 128
Localizations seeded randomly            ... on
Convergence tolerance                    ... 1.000e-06
Threshold for strong local MOs           ... 9.500e-01
Threshold for bond MOs                   ... 8.500e-01
Operator                                 ... 0
Orbital range for localization           ... 1 to 7
Localization criterion                   ... NEW-BOYS
Doing the dipole integrals               ... o.k.
Initial value of the localization sum :     7.494422
ITERATION   0 : L=   10.6398897878 DL=  3.15e+00 (AVERGE_DL)=    0.3870196284 
ITERATION   1 : L=   10.8336299419 DL=  1.94e-01 (AVERGE_DL)=    0.0960506201 
ITERATION   2 : L=   10.8363581349 DL=  2.73e-03 (AVERGE_DL)=    0.0113979800 
ITERATION   3 : L=   10.8366071485 DL=  2.49e-04 (AVERGE_DL)=    0.0034435144 
ITERATION   4 : L=   10.8367093003 DL=  1.02e-04 (AVERGE_DL)=    0.0022055326 
ITERATION   5 : L=   10.8368171989 DL=  1.08e-04 (AVERGE_DL)=    0.0022667213 
ITERATION   6 : L=   10.8369163282 DL=  9.91e-05 (AVERGE_DL)=    0.0021726585 
ITERATION   7 : L=   10.8370104537 DL=  9.41e-05 (AVERGE_DL)=    0.0021171123 
ITERATION   8 : L=   10.8370982674 DL=  8.78e-05 (AVERGE_DL)=    0.0020448980 
ITERATION   9 : L=   10.8371797615 DL=  8.15e-05 (AVERGE_DL)=    0.0019699422 
ITERATION  10 : L=   10.8372548087 DL=  7.50e-05 (AVERGE_DL)=    0.0018904165 
ITERATION  11 : L=   10.8373234701 DL=  6.87e-05 (AVERGE_DL)=    0.0018082002 
ITERATION  12 : L=   10.8373859033 DL=  6.24e-05 (AVERGE_DL)=    0.0017242428 
ITERATION  13 : L=   10.8374423546 DL=  5.65e-05 (AVERGE_DL)=    0.0016395594 
ITERATION  14 : L=   10.8374931366 DL=  5.08e-05 (AVERGE_DL)=    0.0015550540 
ITERATION  15 : L=   10.8375386070 DL=  4.55e-05 (AVERGE_DL)=    0.0014714805 
ITERATION  16 : L=   10.8375791529 DL=  4.05e-05 (AVERGE_DL)=    0.0013895174 
ITERATION  17 : L=   10.8376151728 DL=  3.60e-05 (AVERGE_DL)=    0.0013096694 
ITERATION  18 : L=   10.8376470663 DL=  3.19e-05 (AVERGE_DL)=    0.0012323712 
ITERATION  19 : L=   10.8376752238 DL=  2.82e-05 (AVERGE_DL)=    0.0011579427 
ITERATION  20 : L=   10.8377000193 DL=  2.48e-05 (AVERGE_DL)=    0.0010866185 
ITERATION  21 : L=   10.8377218056 DL=  2.18e-05 (AVERGE_DL)=    0.0010185497 
ITERATION  22 : L=   10.8377409111 DL=  1.91e-05 (AVERGE_DL)=    0.0009538250 
ITERATION  23 : L=   10.8377576379 DL=  1.67e-05 (AVERGE_DL)=    0.0008924784 
ITERATION  24 : L=   10.8377722621 DL=  1.46e-05 (AVERGE_DL)=    0.0008344988 
ITERATION  25 : L=   10.8377850332 DL=  1.28e-05 (AVERGE_DL)=    0.0007798379 
ITERATION  26 : L=   10.8377961756 DL=  1.11e-05 (AVERGE_DL)=    0.0007284175 
ITERATION  27 : L=   10.8378058900 DL=  9.71e-06 (AVERGE_DL)=    0.0006801386 
ITERATION  28 : L=   10.8378143547 DL=  8.46e-06 (AVERGE_DL)=    0.0006348858 
ITERATION  29 : L=   10.8378217277 DL=  7.37e-06 (AVERGE_DL)=    0.0005925323 
ITERATION  30 : L=   10.8378281484 DL=  6.42e-06 (AVERGE_DL)=    0.0005529457 
ITERATION  31 : L=   10.8378337394 DL=  5.59e-06 (AVERGE_DL)=    0.0005159821 
ITERATION  32 : L=   10.8378386082 DL=  4.87e-06 (AVERGE_DL)=    0.0004815064 
ITERATION  33 : L=   10.8378428489 DL=  4.24e-06 (AVERGE_DL)=    0.0004493772 
ITERATION  34 : L=   10.8378465437 DL=  3.69e-06 (AVERGE_DL)=    0.0004194558 
ITERATION  35 : L=   10.8378497642 DL=  3.22e-06 (AVERGE_DL)=    0.0003916075 
ITERATION  36 : L=   10.8378525727 DL=  2.81e-06 (AVERGE_DL)=    0.0003656995 
ITERATION  37 : L=   10.8378550236 DL=  2.45e-06 (AVERGE_DL)=    0.0003416281 
ITERATION  38 : L=   10.8378571637 DL=  2.14e-06 (AVERGE_DL)=    0.0003192329 
ITERATION  39 : L=   10.8378590340 DL=  1.87e-06 (AVERGE_DL)=    0.0002984339 
ITERATION  40 : L=   10.8378606697 DL=  1.64e-06 (AVERGE_DL)=    0.0002790887 
ITERATION  41 : L=   10.8378621019 DL=  1.43e-06 (AVERGE_DL)=    0.0002611540 
ITERATION  42 : L=   10.8378633569 DL=  1.25e-06 (AVERGE_DL)=    0.0002444567 
ITERATION  43 : L=   10.8378644578 DL=  1.10e-06 (AVERGE_DL)=    0.0002289609 
ITERATION  44 : L=   10.8378654243 DL=  9.67e-07 (AVERGE_DL)=    0.0002145376 
LOCALIZATION SUM CONVERGED


--------------------------------------------------------------------------------
                    LOCALIZED MOLECULAR ORBITAL COMPOSITIONS
--------------------------------------------------------------------------------

The Mulliken populations for each LMO on each atom are computed
The LMO`s will be ordered according to atom index and type
  (A) Strongly localized MO`s have populations of >=0.950 on one atom
  (B) Two center bond orbitals have populations of >=0.850 on two atoms
  (C) Other MO`s are considered to be `delocalized`

FOUND  -   5 strongly local MO`s
       -   2 two center bond MO`s
       -   0 significantly delocalized MO`s

Rather strongly localized orbitals:
MO   5:   0Si -   1.083052
MO   4:   0Si -   1.047233
MO   3:   0Si -   1.075224
MO   2:   0Si -   0.964031
MO   1:   0Si -   1.044304
Bond-like localized orbitals:
MO   7:   2H  -   0.516576  and   0Si -   0.519284
MO   6:   1H  -   0.516424  and   0Si -   0.519389
Localized MO's were stored in: /cluster/projects/nn14654k/ylvaos/basis_set_n_funcs/functionals/gga_c_pw91/SiH2/inp/SiH2_gga_c_pw91_augccpvqz.loc

-------------------------   --------------------
FINAL SINGLE POINT ENERGY      -270.142387070172
-------------------------   --------------------



           ************************************************************
           *        Program running with 8 parallel MPI-processes     *
           *              working on a common directory               *
           ************************************************************

------------------------------------------------------------------------------
                              ORCA PROPERTY CALCULATIONS
------------------------------------------------------------------------------

GBWName                                 ... /cluster/projects/nn14654k/ylvaos/basis_set_n_funcs/functionals/gga_c_pw91/SiH2/inp/SiH2_gga_c_pw91_augccpvqz.gbw
Number of atoms                         ...      3
Number of basis functions               ...    204
Max core memory                         ...   4096 MB

Electric properties:
Dipole moment                           ... YES
Quadrupole moment                       ... YES
Static polarizability (Dipole/Dipole)   ...  NO
Static polarizability (Dipole/Quad.)    ...  NO
Static polarizability (Quad./Quad.)     ...  NO
Static polarizability (Velocity)        ...  NO
Static hyperpolarizability              ...  NO

Atomic electric properties:
Dipole moment                           ...  NO
Quadrupole moment                       ...  NO
Static polarizability                   ...  NO

Choice of electric origin               ... Center of mass
Position of electric origin             ...     0.000000     0.095755    -0.092471

General magnetic properties:
Magnetizability                         ...  NO

EPR properties:
g-Tensor (aka g-matrix)                 ...  NO
Zero-Field splitting spin-orbit         ...  NO
Zero-field splitting spin-spin          ...  NO
Hyperfine couplings                     ...  NO (   0 nuclei)
Quadrupole couplings                    ...  NO (   0 nuclei)
Contact density                         ...  NO (   0 nuclei)

NMR properties:
Chemical shifts                         ...  NO (   0 nuclei)
Spin-rotation constants                 ...  NO (   0 nuclei)
Spin-spin couplings                     ...  NO (   0 nuclei,    0 pairs)

Choice of magnetic origin               ... GIAO
Position of magnetic origin             ...     0.000000     0.000000     0.000000

Properties with geometric perturbations:
SCF Hessian                             ...  NO
IR spectrum                             ...  NO
VCD spectrum                            ...  NO
X-ray spectroscopy properties:
SCF XES/XAS/RIXS spectra                ...  NO

SCF SOC stabilization energy            ...  NO
Diagonal Born-Oppenheimer correction    ...  NO

-------------
DIPOLE MOMENT
-------------

Method             : SCF
Type of density    : Electron Density
Multiplicity       :   1
Irrep              :   0
Energy             :  -270.1423870701722763 Eh
Basis              : AO
                                X                 Y                 Z
Electronic contribution:     -0.000000001      -0.996600615       0.962399549
Nuclear contribution   :      0.000000000       1.327457389      -1.281928022
                        -----------------------------------------
Total Dipole Moment    :     -0.000000001       0.330856774      -0.319528472
                        -----------------------------------------
Magnitude (a.u.)       :      0.459961574
Magnitude (Debye)      :      1.169129409



--------------------
Rotational spectrum 
--------------------
 
Rotational constants in cm-1:             8.101050             7.049111             3.769280 
Rotational constants in MHz :        242863.361200        211327.036298        113000.174884 

Dipole components along the rotational axes: 
x,y,z [a.u.] :    -0.000035    -0.459962    -0.000000 
x,y,z [Debye]:    -0.000089    -1.169129    -0.000000 

 

Dipole moment calculation done in   0.0 sec 

-----------------
QUADRUPOLE MOMENT
-----------------

Method             : SCF
Type of density    : Electron Density
Multiplicity       :   1
Irrep              :   0
Energy             :  -270.1423870701722763 Eh
Basis              : AO

                XX              YY              ZZ              XY              XZ              YZ
  NUC        0.000000000     7.776008003     7.822723490     0.000000000     0.000000000     0.672490579
  EL       -15.068410606   -28.094032610   -28.010745295     0.000000002     0.000000009     1.190130611
  TOT      -15.068410606   -20.318024607   -20.188021806     0.000000002     0.000000009     1.862621190 (a.u.)
           -20.267527604   -27.328437973   -27.153579759     0.000000002     0.000000011     2.505289202 (Buckingham)

diagonalized tensor:
           -22.116778254   -18.389268158   -15.068410606 (a.u.)
           -29.747823145   -24.734194586   -20.267527604 (Buckingham)
           -14.493924100     0.546961578    13.946962522 (traceless form in Buckingham)

            -0.000000001    -0.000000002     1.000000000
            -0.719331836     0.694666618     0.000000001
             0.694666618     0.719331836     0.000000002
        
Isotropic quadrupole :   -18.524819006

Quadrupole moment calculation done in   0.0 sec (  0.0 sec for integrals)

Maximum memory used throughout the entire PROP-calculation: 7.6 MB

--------------------------------
SUGGESTED CITATIONS FOR THIS RUN
--------------------------------

Below you find a list of papers that are relevant to this ORCA run
We neither can nor want to force you to cite these papers, but we appreciate if you do
You receive ORCA, which is the product of decades of hard work by many enthusiastic individuals, for free
The only thing we kindly ask in return is that you cite our papers,
We deeply appreciate it, if you show your appreciation for ORCA by not just citing the generic ORCA reference.

Please note that relegating all ORCA citations to the supporting information does *not* help us.
SI sections are not indexed - citations you put there will not count into any citation statistics
But we need these citations in order to attract the funding resources that allow us to do what we are doing

Therefore, if you are a happy ORCA user, please consider citing a few of the papers listed below in the main body of your paper

In addition to the list printed below, the program has created the file /cluster/projects/nn14654k/ylvaos/basis_set_n_funcs/functionals/gga_c_pw91/SiH2/inp/SiH2_gga_c_pw91_augccpvqz.bibtex that contains the list in bibtex format
You can import this file easily into all common literature databanks and citation aid programs

It goes without saying that in many instances, there are alternative algorithms to achieve similar
results as the ones you have gotten from ORCA. It is, of course, also the case that in some instances
ORCA just re-implements algorithms worked out by others. We are fully aware of that and we are also
fully appreciative of our colleagues work. Hence this citation list should not be read as indicating
that the listed papers, which are focused on our own work, are the only ones worth citing. It simply
meant to make it easier for users to cite ORCA specific papers. It is not a substitute for doing your
own literature research and citing the relevant literature in a scientifically appropriate manner.

List of essential papers. We consider these as the minimum necessary citations

  1. Neese, F.
     Software update: the ORCA program system, version 6.0
     WIRES Comput. Molec. Sci. 2025 15(1), e70019
     doi.org/10.1002/wcms.70019

List of papers to cite with high priority. The work reported in these papers was absolutely
necessary for this run to complete.
Our perspective: the developers of density functionals and basis sets usually get cited in chemistry papers
Good! But without the algorithms to do something with them, the functionals or basis sets would not do anything.
Hence, in our opinion, the algorithm design and method developments papers are equally worthy of getting cited

  1. Lehtola, S.; Steigemann, C.; Oliveira, M.; Marques, M.
     Recent developments in Libxc - A comprehensive library of functionals for density functional theory
     Software X 2018 7 , 
     doi.org/10.1016/j.softx.2017.11.002
  2. Neese, F.
     The SHARK Integral Generation and Digestion System
     J. Comp. Chem. 2022 44(3), 381
     doi.org/10.1002/jcc.26942

List of suggested additional citations. These are papers that are important in the 'surrounding' of 
of this run, or papers that preceded the highly important papers. If you like your results we are grateful for a citation.

  1. Neese, F.
     The ORCA program system
     WIRES Comput. Molec. Sci. 2012 2(1), 73-78
     doi.org/10.1002/wcms.81
  2. Neese, F.
     Software update: the ORCA program system, version 4.0
     WIRES Comput. Molec. Sci. 2018 8(1), 1-6
     doi.org/10.1002/wcms.1327
  3. Neese, F.; Wennmohs, F.; Becker, U.; Riplinger, C.
     The ORCA quantum chemistry program package
     J. Chem. Phys. 2020 152(22), 224108
     doi.org/10.1063/5.0004608
  4. Neese, F.
     Software update: The ORCA program system—Version 5.0
     WIRES Comput. Molec. Sci. 2022 12(1), e1606
     doi.org/10.1002/wcms.1606

List of optional additional citations

  1. Neese, F.
     Approximate second-order SCF convergence for spin unrestricted wavefunctions
     Chem. Phys. Lett. 2000 325(1-3), 93-98
     doi.org/10.1016/s0009-2614(00)00662-x

Timings for individual modules:

Sum of individual times          ...       10.616 sec (=   0.177 min)
Startup calculation              ...        0.634 sec (=   0.011 min)   6.0 %
SCF iterations                   ...        9.428 sec (=   0.157 min)  88.8 %
Property integrals               ...        0.259 sec (=   0.004 min)   2.4 %
Property calculations            ...        0.289 sec (=   0.005 min)   2.7 %
Orbital localization             ...        0.006 sec (=   0.000 min)   0.1 %
                             ****ORCA TERMINATED NORMALLY****
TOTAL RUN TIME: 0 days 0 hours 0 minutes 11 seconds 793 msec
