
                                 *****************
                                 * O   R   C   A *
                                 *****************

                                            #,                                       
                                            ###                                      
                                            ####                                     
                                            #####                                    
                                            ######                                   
                                           ########,                                 
                                     ,,################,,,,,                         
                               ,,#################################,,                 
                          ,,##########################################,,             
                       ,#########################################, ''#####,          
                    ,#############################################,,   '####,        
                  ,##################################################,,,,####,       
                ,###########''''           ''''###############################       
              ,#####''   ,,,,##########,,,,          '''####'''          '####       
            ,##' ,,,,###########################,,,                        '##       
           ' ,,###''''                  '''############,,,                           
         ,,##''                                '''############,,,,        ,,,,,,###''
      ,#''                                            '''#######################'''  
     '                                                          ''''####''''         
             ,#######,   #######,   ,#######,      ##                                
            ,#'     '#,  ##    ##  ,#'     '#,    #''#        ,####,    ,#,          
            ##       ##  ##   ,#'  ##            #'  '#       #'       ,# #          
            ##       ##  #######   ##           ,######,      #####,      #          
            '#,     ,#'  ##    ##  '#,     ,#' ,#      #,     #,   #      #          
             '#######'   ##     ##  '#######'  #'      '#     '####' #    #          



                #########################################################
                #                        -***-                          #
                #          Department of theory and spectroscopy        #
                #                                                       #
                #                      Frank Neese                      #
                #                                                       #
                #     Directorship, Architecture, Infrastructure        #
                #                    SHARK, DRIVERS                     #
                #        Core code/Algorithms in most modules           #
                #                                                       #
                #        Max Planck Institute fuer Kohlenforschung      #
                #                Kaiser Wilhelm Platz 1                 #
                #                 D-45470 Muelheim/Ruhr                 #
                #                      Germany                          #
                #                                                       #
                #                  All rights reserved                  #
                #                        -***-                          #
                #########################################################


                         Program Version 6.1.1  -  RELEASE   -
                                (GIT: $487d211c$)
                          ($2025-11-21 10:33:24 +0100$)


 With contributions from (in alphabetic order):
[Max-Planck-Institut fuer Kohlenforschung]                               
  Daniel Aravena         : Magnetic Suceptibility                        
  Michael Atanasov       : Ab Initio Ligand Field Theory (pilot matlab implementation)
  Alexander A. Auer      : GIAO ZORA, VPT2 properties, NMR spectrum      
  Ute Becker             : All parallelization in ORCA, NUMFREQ, NUMCALC 
  Giovanni Bistoni       : ED, misc. LED, open-shell LED, HFLD           
  Dmytro Bykov           : pre 5.0 version of the SCF Hessian            
  Marcos Casanova-Páez   : Triplet and SCS-CIS(D). UHF-(DLPNO)-IP/EA/STEOM-CCSD. UHF-CVS-IP/STEOM-CCSD   
  Vijay G. Chilkuri      : MRCI spin determinant printing, contributions to CSF-ICE 
  Pauline Colinet        : FMM embedding                                 
  Dipayan Datta          : RHF DLPNO-CCSD density                        
  Achintya Kumar Dutta   : EOM-CC, STEOM-CC                              
  Nicolas Foglia         : Exact transition moments, OPA infrastructure, MCD improvements    
  Dmitry Ganyushin       : Spin-Orbit,Spin-Spin,Magnetic field MRCI      
  Miquel Garcia-Rates    : C-PCM and meta-GGA Hessian, CCSD/C-PCM, Gaussian charge scheme 
  Tiago L. C. Gouveia    : GS-ROHF, GS-ROCIS                             
  Yang Guo               : DLPNO-NEVPT2, F12-NEVPT2, CIM, IAO-localization        
  Andreas Hansen         : Spin unrestricted coupled pair/coupled cluster methods 
  Ingolf Harden          : AUTO-CI MPn and infrastructure                
  Benjamin Helmich-Paris : MC-RPA, TRAH-(SCF,CASSCF), AVAS, COSX integrals, SCF dyn. polar., MC-PDFT, srDFT 
  Lee Huntington         : MR-EOM, pCC                                   
  Robert Izsak           : Overlap fitted RIJCOSX, COSX-SCS-MP3, EOM     
  Riya Kayal             : Wick's Theorem for AUTO-CI, AUTO-CI UHF-CCSDT 
  Emily Kempfer          : AUTO-CI RHF CISDT and CCSDT, approximate NEVPT4
  Christian Kollmar      : KDIIS, OOCD, Brueckner-CCSD(T), CCSD density, CASPT2, CASPT2-K, improved NEVPT2 
  Axel Koslowski         : Symmetry handling                             
  Simone Kossmann        : meta-GGA functionals, TD-DFT gradient, OOMP2, (MP2 Hessian; deprecated post 5.0) 
  Lucas Lang             : DCDCAS, Hyperfine gauge corrections, ICE-SOC+SSC
  Marvin Lechner         : AUTO-CI (C++ implementation), FIC-MRCC        
  Spencer Leger          : CASSCF response                               
  Dagmar Lenk            : GEPOL surface, SMD, ORCA-2-JSON               
  Dimitrios Liakos       : Extrapolation schemes; Compound Job, Property file
  Dimitrios Manganas     : Further ROCIS development; embedding schemes. LFT, Crystal Embedding 
  Dimitrios Pantazis     : SARC Basis sets                               
  Anastasios Papadopoulos: AUTO-CI, single reference methods and gradients 
  Taras Petrenko         : pre 6.0 DFT Hessian and TD-DFT gradient,  ECA, NRVS 
  Petra Pikulova         : Analytic Raman intensities                    
  Peter Pinski           : DLPNO-MP2, DLPNO-MP2 Gradient                 
  Shashank Vittal Rao    : ES-AILFT, MagRelax                            
  Christoph Reimann      : Effective Core Potentials                     
  Marius Retegan         : Local ZFS, SOC                                
  Christoph Riplinger    : Optimizer, TS searches, QM/MM, DLPNO-CCSD(T), (RO)-DLPNO pert. Triples 
  Michael Roemelt        : Original ROCIS implementation, recursive CI coupling coefficients
  Masaaki Saitow         : Open-shell DLPNO-CCSD energy and density      
  Barbara Sandhoefer     : DKH picture change effects                    
  Yorick L. A. Schmerwitz: GMF and freeze-and-release deltaSCF, NEB S-IDPP initial path                    
  Kantharuban Sivalingam : CASSCF convergence/infrastructure, NEVPT2, NEVPT3, NEVPT4(SD), FIC-MRCI and CEPA variants
  Bernardo de Souza      : ESD, SOC TD-DFT                               
  Georgi L. Stoychev     : AutoAux, RI-MP2 NMR, DLPNO-MP2 response, X2C  
  Van Anh Tran           : RI-MP2 g-tensors                              
  Willem Van den Heuvel  : Paramagnetic NMR                              
  Zikuan Wang            : NOTCH, Electric field optimization            
  Frank Wennmohs         : Technical directorship and infrastructure     
  Hang Xu                : AUTO-CI-Response properties                   
                                                                         
[FACCTs GmbH]                                                            
  Markus Bursch, Nicolas Foglia, Miquel Garcia-Rates, Ingolf Harden, Hagen Neugebauer, Anastasios Papadopoulos, 
  Christoph Riplinger, Bernardo de Souza, Georgi L. Stoychev                                                    
                                                                 
  APM, various basis sets, CI-OPT, improved COSX, DLPNO-Multilevel,           
  DOCKER, DRACO, updates on ESD, Fragmentator, GOAT, IRC, LR-CPCM, L-BFGS, MBIS, meta-GGA TD-DFT gradient, ML-optimized integration grids, 
  MM, NACMEs, nearIR, NEB, NEB-TS, NL-DFT gradient (VV10), 2- and 3-layer-ONIOM, interface openCOSMO-RS, QMMM,   
  Crystal-QMMM, RESP, rigid body optimization, SF, symmetry and pop. for TD-DFT, various functionals, SOLVATOR                                   
                                                                         
[Other institutions]                                                     
  V. Asgeirsson          : NEB                                           
  Christoph Bannwarth    : sTDA-DFT, sTD-DFT, PBEh-3c, B97-3c, D3        
  Giovanni Bistoni       : ETS/NOCV, ADLD/ADEX, COVALED                  
  Martin Brehm           : Molecular dynamics                            
  Ronald Cardenas        : ETS/NOCV                                      
  Martina Colucci        : COVALED                                       
  Sebastian Ehlert       : rSCAN, r2SCAN, r2SCAN-3c, D4, dhf basis sets  
  Marvin Friede          : D4 for Fr, Ra, Ac-Lr                          
  Lars Goerigk           : TD-DFT with DH, B97 family of functionals     
  Stefan Grimme          : VdW corrections, initial TS optimization, DFT functionals, gCP, sTDA/sTD-DF 
  Waldemar Hujo          : DFT-NL                                        
  H. Jonsson             : NEB                                           
  Holger Kruse           : gCP                                           
  Marcel Mueller         : wB97X-3c, vDZP basis set                      
  Hagen Neugebauer       : wr2SCAN, Native XTB                           
  Gianluca Regni         : ADLD/ADEX                                     
  Tobias Risthaus        : pre 6.0 range-separated hybrid DFT and stability analysis
  Lukas Wittmann         : regularized MP2, r2SCAN double-hybrids, wr2SCAN        
                                                                         
We gratefully acknowledge several colleagues who have allowed us to      
interface, adapt or use parts of their codes:                            
  Ed Valeev, F. Pavosevic, A. Kumar             : LibInt (2-el integral package), F12 methods 
  Garnet Chan, S. Sharma, J. Yang, R. Olivares  : DMRG                   
  Ulf Ekstrom                                   : XCFun DFT Library      
  Mihaly Kallay                                 : mrcc  (arbitrary order and MRCC methods)
  Frank Weinhold                                : gennbo (NPA and NBO analysis)           
  Simon Mueller                                 : openCOSMO-RS                            
  Christopher J. Cramer and Donald G. Truhlar   : smd solvation model                     
  S Lehtola, MJT Oliveira, MAL Marques          : LibXC Library                           
  Liviu Ungur et al                             : ANISO software                          


 Your calculation uses the libint2 library for the computation of 2-el integrals
 For citations please refer to: http://libint.valeyev.net

 Your ORCA version has been built with support for libXC version: 7.0.0
 For citations please refer to: https://libxc.gitlab.io

 This ORCA versions uses:
   CBLAS   interface :  Fast vector & matrix operations
   LAPACKE interface :  Fast linear algebra routines
   SCALAPACK package :  Parallel linear algebra routines
   Shared memory     :  Shared parallel matrices
   BLAS/LAPACK       :  OpenBLAS 0.3.29  USE64BITINT DYNAMIC_ARCH NO_AFFINITY Cooperlake SINGLE_THREADED
        Core in use  :  Cooperlake
   Copyright (c) 2011-2014, The OpenBLAS Project


  ***********************************
  * Starting time: Wed May 20 12:35:32 2026
  * Host name:     c1-40
  * Process ID:    632592
  * Working dir.:  /cluster/projects/nn14654k/ylvaos/basis_set_n_funcs/functionals/lda_x/H2O2/out
  ***********************************

Using LibXC functional ID   1 : Slater exchange
[ 1]  P. A. M. Dirac.,  Math. Proc. Cambridge Philos. Soc. 26, 376 (1930)
[ 2]  F. Bloch.,  Z. Phys. 57, 545 (1929)
Using LibXC functional ID   1 : Slater exchange
[ 1]  P. A. M. Dirac.,  Math. Proc. Cambridge Philos. Soc. 26, 376 (1930)
[ 2]  F. Bloch.,  Z. Phys. 57, 545 (1929)
Your calculation utilizes LibXC
by S. Lehtola, C. Steigemann, M. J. T. Oliveira & M. A. L. Marques
Please cite in your paper:
Lehtola, S.; Steigemann, C.; Oliveira, M.J.T.; Marques, M. A. L. Software X, 7, (2018), 1.
   

================================================================================

----- Orbital basis set information -----
Your calculation utilizes the basis: pc-4
   H, C-F              : F. Jensen, J. Chem. Phys. 115, 9113 (2001).
                         F. Jensen, J. Chem. Phys. 116, 7372 (2002).
                         F. Jensen, J. Chem. Phys. 117, 9234 (2002).
   Si-Cl               : F. Jensen, T. Helgaker, J. Chem. Phys. 121, 3463 (2004).
   He-B, Ne-Mg, Al, Ar : F. Jensen, J. Phys. Chem. A 111, 11198 (2007).
   K, Ca, Ga-Kr        : F. Jensen, J. Chem. Phys. 136, 094110 (2012).
   Sc-Zn               : F. Jensen, J. Chem. Phys. 138, 014107 (2013).

================================================================================
                                        WARNINGS
                       Please study these warnings very carefully!
================================================================================


WARNING: The basis set has functions with high angular momentum (Lmax>4).
         We might need to increase small grids for safety reasons and
         in general, DEFGRID3 is recommend for such cases.
  ===> : GRIDX1, TD-DFT and the CP-SCF AngGrids will be increased to at least 2


================================================================================
                                       INPUT FILE
================================================================================
NAME = /cluster/projects/nn14654k/ylvaos/basis_set_n_funcs/functionals/lda_x/H2O2/inp/H2O2_lda_x_pc4.inp
|  1> ! dft pc-4 TightSCF
|  2> %pal nprocs 8 end
|  3> 
|  4> %loc
|  5>   LocMet NewBoys
|  6>   Occ true
|  7> end
|  8> 
|  9> %method
| 10>   exchange lda_x
| 11>   correlation None
| 12> end
| 13> 
| 14> %elprop
| 15>   Dipole true
| 16>   Quadrupole true
| 17> end
| 18> 
| 19> * xyz 0 1
| 20> O    0.000000000000   0.737500000000  -0.052800000000
| 21> O    0.000000000000  -0.737500000000  -0.052800000000
| 22> H    0.819000000000   0.817000000000   0.422000000000
| 23> H   -0.819000000000  -0.817000000000   0.422000000000
| 24> *
| 25> 
| 26> 
| 27>                          ****END OF INPUT****
================================================================================

                       ****************************
                       * Single Point Calculation *
                       ****************************

---------------------------------
CARTESIAN COORDINATES (ANGSTROEM)
---------------------------------
  O      0.000000    0.737500   -0.052800
  O      0.000000   -0.737500   -0.052800
  H      0.819000    0.817000    0.422000
  H     -0.819000   -0.817000    0.422000

----------------------------
CARTESIAN COORDINATES (A.U.)
----------------------------
  NO LB      ZA    FRAG     MASS         X           Y           Z
   0 O     8.0000    0    15.999    0.000000    1.393673   -0.099778
   1 O     8.0000    0    15.999    0.000000   -1.393673   -0.099778
   2 H     1.0000    0     1.008    1.547686    1.543906    0.797464
   3 H     1.0000    0     1.008   -1.547686   -1.543906    0.797464

--------------------------------
INTERNAL COORDINATES (ANGSTROEM)
--------------------------------
 O      0   0   0     0.000000000000     0.00000000     0.00000000
 O      1   0   0     1.475000000000     0.00000000     0.00000000
 H      1   2   0     0.950008573646    94.80032267     0.00000000
 H      2   1   3     0.950008573646    94.80032267   119.79556962

---------------------------
INTERNAL COORDINATES (A.U.)
---------------------------
 O      0   0   0     0.000000000000     0.00000000     0.00000000
 O      1   0   0     2.787346047534     0.00000000     0.00000000
 H      1   2   0     1.795256029067    94.80032267     0.00000000
 H      2   1   3     1.795256029067    94.80032267   119.79556962

---------------------
BASIS SET INFORMATION
---------------------
There are 2 groups of distinct atoms

 Group   1 Type O   : 26s11p6d3f2g1h contracted to 8s7p6d3f2g1h pattern {119111111/5111111/111111/111/11/1}
 Group   2 Type H   : 11s6p3d2f1g contracted to 7s6p3d2f1g pattern {5111111/111111/111/11/1}

Atom   0O    basis set group =>   1
Atom   1O    basis set group =>   1
Atom   2H    basis set group =>   2
Atom   3H    basis set group =>   2


           ************************************************************
           *        Program running with 8 parallel MPI-processes     *
           *              working on a common directory               *
           ************************************************************
------------------------------------------------------------------------------
                             ORCA STARTUP CALCULATIONS
------------------------------------------------------------------------------
------------------------------------------------------------------------------
                   ___                                                        
                  /   \      - P O W E R E D   B Y -                         
                 /     \                                                     
                 |  |  |   _    _      __       _____    __    __             
                 |  |  |  | |  | |    /  \     |  _  \  |  |  /  |          
                  \  \/   | |  | |   /    \    | | | |  |  | /  /          
                 / \  \   | |__| |  /  /\  \   | |_| |  |  |/  /          
                |  |  |   |  __  | /  /__\  \  |    /   |      \           
                |  |  |   | |  | | |   __   |  |    \   |  |\   \          
                \     /   | |  | | |  |  |  |  | |\  \  |  | \   \       
                 \___/    |_|  |_| |__|  |__|  |_| \__\ |__|  \__/        
                                                                              
                      - O R C A' S   B I G   F R I E N D -                    
                                      &                                       
                       - I N T E G R A L  F E E D E R -                       
                                                                              
 v1 FN, 2020, v2 2021, v3 2022-2024                                           
------------------------------------------------------------------------------


----------------------
SHARK INTEGRAL PACKAGE
----------------------

Number of atoms                             ...      4
Number of basis functions                   ...    344
Number of shells                            ...     92
Maximum angular momentum                    ...      5
Integral batch strategy                     ... SHARK/LIBINT Hybrid
RI-J (if used) integral strategy            ... SPLIT-RIJ (Revised 2003 algorithm where possible)
Printlevel                                  ...      1
Contraction scheme used                     ... SEGMENTED contraction
Prescreening option                         ... SCHWARTZ
   Thresh                                   ... 2.500e-11
   Tcut                                     ... 2.500e-12
   Tpresel                                  ... 2.500e-12 
Coulomb Range Separation                    ... NOT USED
Exchange Range Separation                   ... NOT USED
Multipole approximations                    ... NOT USED
Finite Nucleus Model                        ... NOT USED
CABS basis                                  ... NOT available
Auxiliary Coulomb fitting basis             ... NOT available
Auxiliary J/K fitting basis                 ... NOT available
Auxiliary Correlation fitting basis         ... NOT available
Auxiliary 'external' fitting basis          ... NOT available

Checking pre-screening integrals            ... done (  0.0 sec) Dimension = 92
   => SHARK Basis and OBASIS are compatible. Storing Pre-screening
Shell pair information
Shell pair cut-off parameter TPreSel        ...   2.5e-12
Total number of shell pairs                 ...      4278
Shell pairs after pre-screening             ...      4158
Total number of primitive shell pairs       ...     10662
Primitive shell pairs kept                  ...      8976
          la=0 lb=0:    443 shell pairs
          la=1 lb=0:    744 shell pairs
          la=1 lb=1:    336 shell pairs
          la=2 lb=0:    524 shell pairs
          la=2 lb=1:    454 shell pairs
          la=2 lb=2:    168 shell pairs
          la=3 lb=0:    298 shell pairs
          la=3 lb=1:    256 shell pairs
          la=3 lb=2:    180 shell pairs
          la=3 lb=3:     55 shell pairs
          la=4 lb=0:    176 shell pairs
          la=4 lb=1:    152 shell pairs
          la=4 lb=2:    108 shell pairs
          la=4 lb=3:     60 shell pairs
          la=4 lb=4:     21 shell pairs
          la=5 lb=0:     60 shell pairs
          la=5 lb=1:     52 shell pairs
          la=5 lb=2:     36 shell pairs
          la=5 lb=3:     20 shell pairs
          la=5 lb=4:     12 shell pairs
          la=5 lb=5:      3 shell pairs

Checking whether 4 symmetric matrices of dimension 344 fit in memory
:Max Core in MB      =   4096.00
 MB in use           =     11.43
 MB left             =   4084.57
 MB needed           =      1.81
 Data fit in memory  = YES
Calculating Nuclear repulsion               ... done (  0.0 sec) ENN=     36.753926669986 Eh

Diagonalization of the overlap matrix:
Smallest eigenvalue                        ... 1.606e-05
Time for diagonalization                   ...    0.008 sec
Threshold for overlap eigenvalues          ... 1.000e-07
Number of eigenvalues below threshold      ... 0
Time for construction of square roots      ...    0.005 sec
Total time needed                          ...    0.015 sec

-------------------
DFT GRID GENERATION
-------------------

General Integration Accuracy     IntAcc      ... 4.388
Radial Grid Type                 RadialGrid  ... OptM3 with GC (2021)
Angular Grid (max. ang.)         AngularGrid ... 4 (Lebedev-302)
Angular grid pruning method      GridPruning ... 4 (adaptive)
Weight generation scheme         WeightScheme... mBecke (2022)
Basis function cutoff            BFCut       ... 1.0000e-11
Integration weight cutoff        WCut        ... 1.0000e-14
Partially contracted basis set               ... off
Rotationally invariant grid construction     ... off
Angular grids for H and He will be reduced by one unit
Diffuse basis detected: some atoms will have their outermost
                        angular grid increased by 1.
Core-polarized basis detected: some atoms will have their core
                               angular grid increased.

Total number of grid points                  ...    23500
Total number of batches                      ...      370
Average number of points per batch           ...       63
Average number of grid points per atom       ...     5875
Grids setup in   0.1 sec
Initializing property integral containers    ... done (  0.0 sec)

SHARK setup successfully completed in   0.3 seconds

Maximum memory used throughout the entire STARTUP-calculation: 55.0 MB


           ************************************************************
           *        Program running with 8 parallel MPI-processes     *
           *              working on a common directory               *
           ************************************************************
-------------------------------------------------------------------------------
                                 ORCA GUESS
                   Start orbitals & Density for SCF / CASSCF
-------------------------------------------------------------------------------

------------
SCF SETTINGS
------------
Hamiltonian:
 Density Functional     Method          .... DFT(GTOs)
  Functional kind                       .... Exchange
  Functional name                       .... Slater exchange
  Functional family                     .... LDA
  Functional refs                              
    [ 0] P. A. M. Dirac.,  Math. Proc. Cambridge Philos. Soc. 26, 376 (1930), doi: 10.1017/S0305004100016108
    [ 1] F. Bloch.,  Z. Phys. 57, 545 (1929), doi: 10.1007/BF01340281
  Functional external parameters        .... 0
 Correlation Functional Correlation     .... No Correlation
 Gradients option       PostSCFGGA      .... off


General Settings:
 Integral files         IntName         .... /cluster/projects/nn14654k/ylvaos/basis_set_n_funcs/functionals/lda_x/H2O2/inp/H2O2_lda_x_pc4
 Hartree-Fock type      HFTyp           .... RHF
 Total Charge           Charge          ....    0
 Multiplicity           Mult            ....    1
 Number of Electrons    NEL             ....   18
 Basis Dimension        Dim             ....  344
 Nuclear Repulsion      ENuc            ....     36.7539266700 Eh

Convergence Acceleration:
 AO-DIIS                CNVDIIS         .... on
   Start iteration      DIISMaxIt       ....    12
   Startup error        DIISStart       ....  0.200000
   # of expansion vecs  DIISMaxEq       ....     5
   Bias factor          DIISBfac        ....   1.050
   Max. coefficient     DIISMaxC        ....  10.000
 MO-DIIS                CNVKDIIS        .... off
 Trust-Rad. Augm. Hess. CNVTRAH         .... auto
   Auto Start mean grad. ratio tolernc. ....  1.125000
   Auto Start start iteration           ....    50
   Auto Start num. interpolation iter.  ....    10
   Max. Number of Micro iterations      ....    24
   Max. Number of Macro iterations      .... Maxiter - #DIIS iter
   Number of Davidson start vectors     ....     2
   Converg. threshold    (grad. norm)   ....   1.000e-05
   Grad. Scal. Fac. for Micro threshold ....   0.100
   Minimum threshold for Micro iter.    ....   1.000e-02
   NR start threshold (gradient norm)   ....   1.000e-04
   Initial trust radius                 ....   0.400
   Minimum AH scaling param. (alpha)    ....   1.000
   Maximum AH scaling param. (alpha)    .... 1000.000
   Quad. conv. algorithm                .... NR
   White noise on init. David. guess    .... on
   Maximum white noise                  ....   0.010
   Pseudo random numbers                .... off
   Inactive MOs                         .... canonical
   Orbital update algorithm             .... Taylor
   Preconditioner                       .... Diag
   Full preconditioner red. dimension   ....   250
 SOSCF                 CNVSOSCF           .... on
   Start iteration     SOSCFMaxIt         ....   150
   Startup grad/error  SOSCFStart         ....  0.003300
   Hessian update      SOSCFHessUp        .... L-BFGS
   Autom. constraints  SOSCFAutoConstrain .... off
 Level Shifting         CNVShift        .... on
   Level shift para.    LevelShift      ....    0.2500
   Turn off err/grad.   ShiftErr        ....    0.0010
 Zerner damping         CNVZerner       .... off
 Static damping         CNVDamp         .... on
   Fraction old density DampFac         ....    0.7000
   Max. Damping (<1)    DampMax         ....    0.9800
   Min. Damping (>=0)   DampMin         ....    0.0000
   Turn off err/grad.   DampErr         ....    0.1000

SCF Procedure:
 Maximum # iterations   MaxIter         ....   125
 SCF integral mode      SCFMode         .... Direct
   Integral package                     .... SHARK and LIBINT hybrid scheme
 Reset frequency        DirectResetFreq ....    20
 Integral Threshold     Thresh          ....  2.500e-11 Eh
 Primitive CutOff       TCut            ....  2.500e-12 Eh

Convergence Tolerance:
 Convergence Check Mode ConvCheckMode   .... Total+1el-Energy
 Convergence forced     ConvForced      .... 0
 Energy Change          TolE            ....  1.000e-08 Eh
 1-El. energy change                    ....  1.000e-05 Eh
 Orbital Gradient       TolG            ....  1.000e-05
 Orbital Rotation angle TolX            ....  1.000e-05
 DIIS Error             TolErr          ....  5.000e-07

------------------------------
INITIAL GUESS: MODEL POTENTIAL
------------------------------
Loading Hartree-Fock densities                     ... done
Calculating cut-offs                               ... done
Initializing the effective Hamiltonian             ... done
Setting up the integral package (SHARK)            ... done
Starting the Coulomb interaction                   ... done (   0.0 sec)
Making the grid                                    ... done (   0.0 sec)
Mapping shells                                     ... done
Starting the XC term evaluation                    ... done (   0.0 sec)
  promolecular density results
     # of electrons  =     17.999004873
     EX              =    -15.309065258
     EC              =      0.000000000
     EX+EC           =    -15.309065258
Transforming the Hamiltonian                       ... done (   0.0 sec)
Diagonalizing the Hamiltonian                      ... done (   0.0 sec)
Back transforming the eigenvectors                 ... done (   0.0 sec)
Now organizing SCF variables                       ... done
                      ------------------
                      INITIAL GUESS DONE (   0.1 sec)
                      ------------------
             **** ENERGY FILE WAS UPDATED (/cluster/projects/nn14654k/ylvaos/basis_set_n_funcs/functionals/lda_x/H2O2/inp/H2O2_lda_x_pc4.en.tmp) ****
Finished Guess after   0.2 sec
Maximum memory used throughout the entire GUESS-calculation: 24.4 MB


           ************************************************************
           *        Program running with 8 parallel MPI-processes     *
           *              working on a common directory               *
           ************************************************************

-------------------------------------------------------------------------------------------
                                      ORCA LEAN-SCF
                              memory conserving SCF solver
-------------------------------------------------------------------------------------------

----------------------------------------D-I-I-S--------------------------------------------
Iteration    Energy (Eh)           Delta-E    RMSDP     MaxDP     DIISErr   Damp  Time(sec)
-------------------------------------------------------------------------------------------
               ***  Starting incremental Fock matrix formation  ***
    1    -149.2944828852993169     0.00e+00  8.16e-04  1.25e-02  1.24e-01  0.700   3.9
    2    -149.3112264508641829    -1.67e-02  5.96e-04  6.64e-03  5.03e-02  0.700   3.8
                               ***Turning on AO-DIIS***
    3    -149.3170148651275326    -5.79e-03  2.86e-04  3.12e-03  1.89e-02  0.700   3.8
    4    -149.3207030171489578    -3.69e-03  5.09e-04  6.69e-03  1.05e-02  0.000   3.8
                              *** Initializing SOSCF ***
---------------------------------------S-O-S-C-F--------------------------------------
Iteration    Energy (Eh)           Delta-E    RMSDP     MaxDP     MaxGrad    Time(sec)
--------------------------------------------------------------------------------------
    5    -149.3291047735958159    -8.40e-03  9.41e-05  9.01e-04  2.21e-03     3.9
               *** Restarting incremental Fock matrix formation ***
    6    -149.3291350990904789    -3.03e-05  9.33e-05  1.43e-03  2.80e-04     4.0
    7    -149.3291360140209463    -9.15e-07  1.68e-05  2.19e-04  2.31e-04     3.3
    8    -149.3291369737038394    -9.60e-07  2.32e-05  3.61e-04  1.01e-04     3.0
    9    -149.3291371673010985    -1.94e-07  4.24e-06  6.40e-05  2.16e-05     3.2
   10    -149.3291371765612325    -9.26e-09  6.04e-07  8.27e-06  7.50e-06     2.8
                 **** Energy Check signals convergence ****

               *****************************************************
               *                     SUCCESS                       *
               *           SCF CONVERGED AFTER  10 CYCLES          *
               *****************************************************

             **** ENERGY FILE WAS UPDATED (/cluster/projects/nn14654k/ylvaos/basis_set_n_funcs/functionals/lda_x/H2O2/inp/H2O2_lda_x_pc4.en.tmp) ****

----------------
TOTAL SCF ENERGY
----------------

Total Energy       :       -149.32913717734834 Eh           -4063.45240 eV

Components:
Nuclear Repulsion  :         36.75392666998557 Eh            1000.12519 eV
Electronic Energy  :       -186.08306384733393 Eh           -5063.57759 eV
One Electron Energy:       -280.67432236740507 Eh           -7637.53660 eV
Two Electron Energy:         94.59125852007114 Eh            2573.95900 eV

Virial components:
Potential Energy   :       -298.81199369507789 Eh           -8131.08772 eV
Kinetic Energy     :        149.48285651772954 Eh            4067.63532 eV
Virial Ratio       :          1.99897165906538

DFT components:
N(Alpha)           :        9.000011285977 electrons
N(Beta)            :        9.000011285977 electrons
N(Total)           :       18.000022571953 electrons
E(X)               :      -15.435138113650 Eh       
E(C)               :        0.000000000000 Eh       
E(XC)              :      -15.435138113650 Eh       

---------------
SCF CONVERGENCE
---------------

  Last Energy change         ...    9.2601e-09  Tolerance :   1.0000e-08
  Last MAX-Density change    ...    8.2677e-06  Tolerance :   1.0000e-07
  Last RMS-Density change    ...    6.0410e-07  Tolerance :   5.0000e-09
  Last DIIS Error            ...    2.2075e-03  Tolerance :   5.0000e-07
  Last Orbital Gradient      ...    7.4990e-06  Tolerance :   1.0000e-05
  Last Orbital Rotation      ...    7.3488e-06  Tolerance :   1.0000e-05


----------------
ORBITAL ENERGIES
----------------

  NO   OCC          E(Eh)            E(eV) 
   0   2.0000     -18.603306      -506.2217 
   1   2.0000     -18.603303      -506.2216 
   2   2.0000      -0.986814       -26.8526 
   3   2.0000      -0.778256       -21.1774 
   4   2.0000      -0.438506       -11.9324 
   5   2.0000      -0.410624       -11.1736 
   6   2.0000      -0.341686        -9.2978 
   7   2.0000      -0.245102        -6.6696 
   8   2.0000      -0.193260        -5.2589 
   9   0.0000      -0.026728        -0.7273 
  10   0.0000      -0.002859        -0.0778 
  11   0.0000       0.035875         0.9762 
  12   0.0000       0.095326         2.5939 
  13   0.0000       0.101685         2.7670 
  14   0.0000       0.125911         3.4262 
  15   0.0000       0.146667         3.9910 
  16   0.0000       0.149830         4.0771 
  17   0.0000       0.156642         4.2624 
  18   0.0000       0.167987         4.5712 
  19   0.0000       0.176352         4.7988 
*Only the first 10 virtual orbitals were printed.

                    ********************************
                    * MULLIKEN POPULATION ANALYSIS *
                    ********************************

-----------------------
MULLIKEN ATOMIC CHARGES
-----------------------
   0 O :   -0.291486
   1 O :   -0.291475
   2 H :    0.291487
   3 H :    0.291475
Sum of atomic charges:   -0.0000000

--------------------------------
MULLIKEN REDUCED ORBITAL CHARGES
--------------------------------
  0 O s       :     3.849483  s :     3.849483
      pz      :     1.798120  p :     4.389433
      px      :     1.589378
      py      :     1.001935
      dz2     :     0.004186  d :     0.046235
      dxz     :     0.007152
      dyz     :     0.012117
      dx2y2   :     0.013523
      dxy     :     0.009257
      f0      :     0.000961  f :     0.005882
      f+1     :     0.000239
      f-1     :     0.000763
      f+2     :     0.001480
      f-2     :     0.000065
      f+3     :     0.001507
      f-3     :     0.000867
      g0      :     0.000029  g :     0.000428
      g+1     :     0.000017
      g-1     :     0.000068
      g+2     :     0.000055
      g-2     :     0.000015
      g+3     :     0.000018
      g-3     :     0.000055
      g+4     :     0.000080
      g-4     :     0.000090
      h0      :     0.000002  h :     0.000025
      h+1     :     0.000001
      h-1     :     0.000002
      h+2     :     0.000003
      h-2     :     0.000000
      h+3     :     0.000002
      h-3     :     0.000003
      h+4     :     0.000003
      h-4     :     0.000000
      h+5     :     0.000004
      h-5     :     0.000005

  1 O s       :     3.849478  s :     3.849478
      pz      :     1.798118  p :     4.389429
      px      :     1.589374
      py      :     1.001936
      dz2     :     0.004186  d :     0.046235
      dxz     :     0.007152
      dyz     :     0.012117
      dx2y2   :     0.013522
      dxy     :     0.009257
      f0      :     0.000961  f :     0.005882
      f+1     :     0.000239
      f-1     :     0.000763
      f+2     :     0.001480
      f-2     :     0.000065
      f+3     :     0.001507
      f-3     :     0.000867
      g0      :     0.000029  g :     0.000428
      g+1     :     0.000017
      g-1     :     0.000068
      g+2     :     0.000055
      g-2     :     0.000015
      g+3     :     0.000018
      g-3     :     0.000055
      g+4     :     0.000080
      g-4     :     0.000090
      h0      :     0.000002  h :     0.000025
      h+1     :     0.000001
      h-1     :     0.000002
      h+2     :     0.000003
      h-2     :     0.000000
      h+3     :     0.000002
      h-3     :     0.000003
      h+4     :     0.000003
      h-4     :     0.000000
      h+5     :     0.000004
      h-5     :     0.000005

  2 H s       :     0.586033  s :     0.586033
      pz      :     0.042753  p :     0.106403
      px      :     0.040033
      py      :     0.023617
      dz2     :     0.004520  d :     0.015210
      dxz     :     0.003212
      dyz     :     0.001317
      dx2y2   :     0.004093
      dxy     :     0.002069
      f0      :     0.000058  f :     0.000843
      f+1     :     0.000265
      f-1     :     0.000025
      f+2     :     0.000145
      f-2     :     0.000093
      f+3     :     0.000185
      f-3     :     0.000071
      g0      :     0.000003  g :     0.000024
      g+1     :     0.000004
      g-1     :     0.000000
      g+2     :     0.000004
      g-2     :     0.000000
      g+3     :     0.000005
      g-3     :     0.000003
      g+4     :     0.000002
      g-4     :     0.000001

  3 H s       :     0.586042  s :     0.586042
      pz      :     0.042753  p :     0.106405
      px      :     0.040035
      py      :     0.023617
      dz2     :     0.004520  d :     0.015211
      dxz     :     0.003212
      dyz     :     0.001317
      dx2y2   :     0.004093
      dxy     :     0.002069
      f0      :     0.000058  f :     0.000843
      f+1     :     0.000265
      f-1     :     0.000025
      f+2     :     0.000145
      f-2     :     0.000093
      f+3     :     0.000185
      f-3     :     0.000071
      g0      :     0.000003  g :     0.000024
      g+1     :     0.000004
      g-1     :     0.000000
      g+2     :     0.000004
      g-2     :     0.000000
      g+3     :     0.000005
      g-3     :     0.000003
      g+4     :     0.000002
      g-4     :     0.000001



                     *******************************
                     * LOEWDIN POPULATION ANALYSIS *
                     *******************************

----------------------
LOEWDIN ATOMIC CHARGES
----------------------
   0 O :    0.725313
   1 O :    0.725313
   2 H :   -0.725313
   3 H :   -0.725313

-------------------------------
LOEWDIN REDUCED ORBITAL CHARGES
-------------------------------
  0 O s       :     3.068860  s :     3.068860
      pz      :     1.474660  p :     3.807403
      px      :     1.392793
      py      :     0.939951
      dz2     :     0.027773  d :     0.302217
      dxz     :     0.013121
      dyz     :     0.085534
      dx2y2   :     0.091973
      dxy     :     0.083817
      f0      :     0.010807  f :     0.090795
      f+1     :     0.002317
      f-1     :     0.010662
      f+2     :     0.021067
      f-2     :     0.000526
      f+3     :     0.028006
      f-3     :     0.017410
      g0      :     0.000294  g :     0.005049
      g+1     :     0.000050
      g-1     :     0.000903
      g+2     :     0.000599
      g-2     :     0.000169
      g+3     :     0.000073
      g-3     :     0.000686
      g+4     :     0.000978
      g-4     :     0.001297
      h0      :     0.000026  h :     0.000362
      h+1     :     0.000006
      h-1     :     0.000033
      h+2     :     0.000065
      h-2     :     0.000000
      h+3     :     0.000021
      h-3     :     0.000028
      h+4     :     0.000038
      h-4     :     0.000009
      h+5     :     0.000091
      h-5     :     0.000047

  1 O s       :     3.068860  s :     3.068860
      pz      :     1.474660  p :     3.807403
      px      :     1.392793
      py      :     0.939951
      dz2     :     0.027773  d :     0.302217
      dxz     :     0.013121
      dyz     :     0.085534
      dx2y2   :     0.091973
      dxy     :     0.083817
      f0      :     0.010807  f :     0.090795
      f+1     :     0.002317
      f-1     :     0.010662
      f+2     :     0.021067
      f-2     :     0.000526
      f+3     :     0.028006
      f-3     :     0.017410
      g0      :     0.000294  g :     0.005049
      g+1     :     0.000050
      g-1     :     0.000903
      g+2     :     0.000599
      g-2     :     0.000169
      g+3     :     0.000073
      g-3     :     0.000686
      g+4     :     0.000978
      g-4     :     0.001297
      h0      :     0.000026  h :     0.000362
      h+1     :     0.000006
      h-1     :     0.000033
      h+2     :     0.000065
      h-2     :     0.000000
      h+3     :     0.000021
      h-3     :     0.000028
      h+4     :     0.000038
      h-4     :     0.000009
      h+5     :     0.000091
      h-5     :     0.000047

  2 H s       :     0.681273  s :     0.681273
      pz      :     0.210484  p :     0.583928
      px      :     0.250996
      py      :     0.122448
      dz2     :     0.079426  d :     0.374001
      dxz     :     0.100766
      dyz     :     0.030037
      dx2y2   :     0.091316
      dxy     :     0.072457
      f0      :     0.004255  f :     0.084272
      f+1     :     0.032966
      f-1     :     0.000717
      f+2     :     0.011572
      f-2     :     0.010976
      f+3     :     0.012764
      f-3     :     0.011022
      g0      :     0.000208  g :     0.001840
      g+1     :     0.000309
      g-1     :     0.000016
      g+2     :     0.000457
      g-2     :     0.000041
      g+3     :     0.000228
      g-3     :     0.000248
      g+4     :     0.000177
      g-4     :     0.000155

  3 H s       :     0.681273  s :     0.681273
      pz      :     0.210484  p :     0.583928
      px      :     0.250996
      py      :     0.122448
      dz2     :     0.079426  d :     0.374001
      dxz     :     0.100766
      dyz     :     0.030037
      dx2y2   :     0.091316
      dxy     :     0.072457
      f0      :     0.004255  f :     0.084272
      f+1     :     0.032966
      f-1     :     0.000717
      f+2     :     0.011572
      f-2     :     0.010976
      f+3     :     0.012764
      f-3     :     0.011022
      g0      :     0.000208  g :     0.001840
      g+1     :     0.000309
      g-1     :     0.000016
      g+2     :     0.000457
      g-2     :     0.000041
      g+3     :     0.000228
      g-3     :     0.000248
      g+4     :     0.000177
      g-4     :     0.000155



                      *****************************
                      * MAYER POPULATION ANALYSIS *
                      *****************************

  NA   - Mulliken gross atomic population
  ZA   - Total nuclear charge
  QA   - Mulliken gross atomic charge
  VA   - Mayer's total valence
  BVA  - Mayer's bonded valence
  FA   - Mayer's free valence

  ATOM       NA         ZA         QA         VA         BVA        FA
  0 O      8.2915     8.0000    -0.2915     1.9216     1.9216    -0.0000
  1 O      8.2915     8.0000    -0.2915     1.9216     1.9216    -0.0000
  2 H      0.7085     1.0000     0.2915     1.0213     1.0213    -0.0000
  3 H      0.7085     1.0000     0.2915     1.0213     1.0213    -0.0000

  Mayer bond orders larger than 0.100000
B(  0-O ,  1-O ) :   0.9005 B(  0-O ,  2-H ) :   0.9876 B(  1-O ,  3-H ) :   0.9876 


-------
TIMINGS
-------

Total SCF time: 0 days 0 hours 0 min 38 sec 

Total time                  ....      38.086 sec
Sum of individual times     ....      35.914 sec  ( 94.3%)

SCF preparation             ....       0.145 sec  (  0.4%)
Fock matrix formation       ....      35.281 sec  ( 92.6%)
  Startup                   ....       0.014 sec  (  0.0% of F)
  Coulomb formation         ....      36.768 sec  (104.2% of F)
  XC integration            ....       0.494 sec  (  1.4% of F)
    XC Preparation          ....       0.000 sec  (  0.0% of XC)
    Basis function eval.    ....       0.036 sec  (  7.2% of XC)
    Density eval.           ....       0.087 sec  ( 17.6% of XC)
    XC-Functional eval.     ....       0.005 sec  (  1.1% of XC)
    XC-Potential eval.      ....       0.158 sec  ( 32.0% of XC)
Diagonalization             ....       0.000 sec  (  0.0%)
Density matrix formation    ....       0.061 sec  (  0.2%)
Total Energy calculation    ....       0.024 sec  (  0.1%)
Population analysis         ....       0.022 sec  (  0.1%)
Orbital Transformation      ....       0.045 sec  (  0.1%)
Orbital Orthonormalization  ....       0.000 sec  (  0.0%)
DIIS solution               ....       0.227 sec  (  0.6%)
SOSCF solution              ....       0.110 sec  (  0.3%)
Finished LeanSCF after  38.1 sec

Maximum memory used throughout the entire LEANSCF-calculation: 61.1 MB


           ************************************************************
           *        Program running with 8 parallel MPI-processes     *
           *              working on a common directory               *
           ************************************************************

------------------------------------------------------------------------------
                         ORCA PROPERTY INTEGRAL CALCULATIONS
------------------------------------------------------------------------------

GBWName                                   ... /cluster/projects/nn14654k/ylvaos/basis_set_n_funcs/functionals/lda_x/H2O2/inp/H2O2_lda_x_pc4.gbw
Number of atoms                           ...      4
Number of basis functions                 ...    344
Max core memory                           ...   4096 MB

Dipole integrals                          ... YES
Quadrupole integrals                      ... YES
Linear momentum integrals                 ...  NO
Angular momentum integrals                ...  NO
Higher moments length integrals           ...  NO
Higher moments velocity integrals         ...  NO
Kinetic energy integrals                  ...  NO
GIAO right hand sides                     ...  NO
GIAO dipole derivative integrals          ...  NO
SOC integrals                             ...  NO
EPR diamagnetic integrals (GIAO)          ...  NO
EPR gauge integrals                       ...  NO
Field gradient integrals                  ...  NO (   0 nuclei)
Spin-dipole/Fermi contact integrals       ...  NO (   0 nuclei)
Contact density integrals                 ...  NO (   0 nuclei)
Nucleus-orbit integrals                   ...  NO (   0 nuclei)
Geometric perturbations                   ...  NO (   4 nuclei)

Choice of electric origin   ... Center of mass
Position of electric origin ... (  0.0000,  0.0000, -0.0466) 
Choice of magnetic origin   ... GIAO
Position of magnetic origin ... (  0.0000,  0.0000,  0.0000) 

Calculating integrals                     ... Electric Dipole (Length)     done (  0.0 sec)
Calculating integrals                     ... Electric Quadrupole (Length) done (  0.0 sec)

Property integrals calculated in   0.0 sec

Maximum memory used throughout the entire PROPINT-calculation: 26.7 MB
------------------------------------------------------------------------------
                           ORCA ORBITAL LOCALIZATION
------------------------------------------------------------------------------

Input orbitals are from                  ... /cluster/projects/nn14654k/ylvaos/basis_set_n_funcs/functionals/lda_x/H2O2/inp/H2O2_lda_x_pc4.gbw
Output orbitals are to                   ... /cluster/projects/nn14654k/ylvaos/basis_set_n_funcs/functionals/lda_x/H2O2/inp/H2O2_lda_x_pc4.loc
Max. number of iterations                ... 128
Localizations seeded randomly            ... on
Convergence tolerance                    ... 1.000e-06
Threshold for strong local MOs           ... 9.500e-01
Threshold for bond MOs                   ... 8.500e-01
Operator                                 ... 0
Orbital range for localization           ... 2 to 8
Localization criterion                   ... NEW-BOYS
Doing the dipole integrals               ... o.k.
Initial value of the localization sum :    12.738536
ITERATION   0 : L=   16.7958382623 DL=  4.06e+00 (AVERGE_DL)=    0.4395507486 
ITERATION   1 : L=   17.1235895274 DL=  3.28e-01 (AVERGE_DL)=    0.1249287921 
ITERATION   2 : L=   17.1610184653 DL=  3.74e-02 (AVERGE_DL)=    0.0422176548 
ITERATION   3 : L=   17.1645307399 DL=  3.51e-03 (AVERGE_DL)=    0.0129325624 
ITERATION   4 : L=   17.1648705097 DL=  3.40e-04 (AVERGE_DL)=    0.0040223769 
ITERATION   5 : L=   17.1649034802 DL=  3.30e-05 (AVERGE_DL)=    0.0012530050 
ITERATION   6 : L=   17.1649067145 DL=  3.23e-06 (AVERGE_DL)=    0.0003924496 
ITERATION   7 : L=   17.1649070325 DL=  3.18e-07 (AVERGE_DL)=    0.0001230617 
LOCALIZATION SUM CONVERGED


--------------------------------------------------------------------------------
                    LOCALIZED MOLECULAR ORBITAL COMPOSITIONS
--------------------------------------------------------------------------------

The Mulliken populations for each LMO on each atom are computed
The LMO`s will be ordered according to atom index and type
  (A) Strongly localized MO`s have populations of >=0.950 on one atom
  (B) Two center bond orbitals have populations of >=0.850 on two atoms
  (C) Other MO`s are considered to be `delocalized`

FOUND  -   4 strongly local MO`s
       -   3 two center bond MO`s
       -   0 significantly delocalized MO`s

Rather strongly localized orbitals:
MO   5:   1O  -   0.993985
MO   4:   1O  -   1.000864
MO   3:   0O  -   0.993985
MO   2:   0O  -   1.000864
Bond-like localized orbitals:
MO   8:   3H  -   0.330854  and   1O  -   0.677290
MO   7:   2H  -   0.330849  and   0O  -   0.677296
MO   6:   1O  -   0.501721  and   0O  -   0.501721
Localized MO's were stored in: /cluster/projects/nn14654k/ylvaos/basis_set_n_funcs/functionals/lda_x/H2O2/inp/H2O2_lda_x_pc4.loc

-------------------------   --------------------
FINAL SINGLE POINT ENERGY      -149.329137177348
-------------------------   --------------------



           ************************************************************
           *        Program running with 8 parallel MPI-processes     *
           *              working on a common directory               *
           ************************************************************

------------------------------------------------------------------------------
                              ORCA PROPERTY CALCULATIONS
------------------------------------------------------------------------------

GBWName                                 ... /cluster/projects/nn14654k/ylvaos/basis_set_n_funcs/functionals/lda_x/H2O2/inp/H2O2_lda_x_pc4.gbw
Number of atoms                         ...      4
Number of basis functions               ...    344
Max core memory                         ...   4096 MB

Electric properties:
Dipole moment                           ... YES
Quadrupole moment                       ... YES
Static polarizability (Dipole/Dipole)   ...  NO
Static polarizability (Dipole/Quad.)    ...  NO
Static polarizability (Quad./Quad.)     ...  NO
Static polarizability (Velocity)        ...  NO
Static hyperpolarizability              ...  NO

Atomic electric properties:
Dipole moment                           ...  NO
Quadrupole moment                       ...  NO
Static polarizability                   ...  NO

Choice of electric origin               ... Center of mass
Position of electric origin             ...     0.000000     0.000000    -0.046598

General magnetic properties:
Magnetizability                         ...  NO

EPR properties:
g-Tensor (aka g-matrix)                 ...  NO
Zero-Field splitting spin-orbit         ...  NO
Zero-field splitting spin-spin          ...  NO
Hyperfine couplings                     ...  NO (   0 nuclei)
Quadrupole couplings                    ...  NO (   0 nuclei)
Contact density                         ...  NO (   0 nuclei)

NMR properties:
Chemical shifts                         ...  NO (   0 nuclei)
Spin-rotation constants                 ...  NO (   0 nuclei)
Spin-spin couplings                     ...  NO (   0 nuclei,    0 pairs)

Choice of magnetic origin               ... GIAO
Position of magnetic origin             ...     0.000000     0.000000     0.000000

Properties with geometric perturbations:
SCF Hessian                             ...  NO
IR spectrum                             ...  NO
VCD spectrum                            ...  NO
X-ray spectroscopy properties:
SCF XES/XAS/RIXS spectra                ...  NO

SCF SOC stabilization energy            ...  NO
Diagonal Born-Oppenheimer correction    ...  NO

-------------
DIPOLE MOMENT
-------------

Method             : SCF
Type of density    : Electron Density
Multiplicity       :   1
Irrep              :   0
Energy             :  -149.3291371773483434 Eh
Basis              : AO
                                X                 Y                 Z
Electronic contribution:      0.000000002       0.000000007      -0.226149672
Nuclear contribution   :      0.000000000       0.000000000       0.837257014
                        -----------------------------------------
Total Dipole Moment    :      0.000000002       0.000000007       0.611107342
                        -----------------------------------------
Magnitude (a.u.)       :      0.611107342
Magnitude (Debye)      :      1.553311419



--------------------
Rotational spectrum 
--------------------
 
Rotational constants in cm-1:            10.059327             0.874309             0.838612 
Rotational constants in MHz :        301571.027575         26211.132260         25140.954138 

Dipole components along the rotational axes: 
x,y,z [a.u.] :    -0.000000    -0.000000     0.611107 
x,y,z [Debye]:    -0.000000    -0.000000     1.553311 

 

Dipole moment calculation done in   0.0 sec 

-----------------
QUADRUPOLE MOMENT
-----------------

Method             : SCF
Type of density    : Electron Density
Multiplicity       :   1
Irrep              :   0
Energy             :  -149.3291371773483434 Eh
Basis              : AO

                XX              YY              ZZ              XY              XZ              YZ
  NUC        4.790662075    35.844484981     1.470132228     4.778963266     0.000000000     0.000000000
  EL       -12.238880905   -45.106657830   -10.816467864    -2.762553868    -0.000000007    -0.000000006
  TOT       -7.448218830    -9.262172849    -9.346335636     2.016409398    -0.000000007    -0.000000006 (a.u.)
           -10.018109056   -12.457939248   -12.571141075     2.712139602    -0.000000009    -0.000000008 (Buckingham)

diagonalized tensor:
           -10.566194292    -9.346335636    -6.144197387 (a.u.)
           -14.211892687   -12.571141075    -8.264155617 (Buckingham)
            -7.588488681    -2.666233846    10.254722528 (traceless form in Buckingham)

            -0.543041661     0.000000003     0.839705754
             0.839705754     0.000000001     0.543041661
             0.000000001     1.000000000    -0.000000003
        
Isotropic quadrupole :    -8.685575772

Quadrupole moment calculation done in   0.0 sec (  0.0 sec for integrals)

Maximum memory used throughout the entire PROP-calculation: 20.3 MB

--------------------------------
SUGGESTED CITATIONS FOR THIS RUN
--------------------------------

Below you find a list of papers that are relevant to this ORCA run
We neither can nor want to force you to cite these papers, but we appreciate if you do
You receive ORCA, which is the product of decades of hard work by many enthusiastic individuals, for free
The only thing we kindly ask in return is that you cite our papers,
We deeply appreciate it, if you show your appreciation for ORCA by not just citing the generic ORCA reference.

Please note that relegating all ORCA citations to the supporting information does *not* help us.
SI sections are not indexed - citations you put there will not count into any citation statistics
But we need these citations in order to attract the funding resources that allow us to do what we are doing

Therefore, if you are a happy ORCA user, please consider citing a few of the papers listed below in the main body of your paper

In addition to the list printed below, the program has created the file /cluster/projects/nn14654k/ylvaos/basis_set_n_funcs/functionals/lda_x/H2O2/inp/H2O2_lda_x_pc4.bibtex that contains the list in bibtex format
You can import this file easily into all common literature databanks and citation aid programs

It goes without saying that in many instances, there are alternative algorithms to achieve similar
results as the ones you have gotten from ORCA. It is, of course, also the case that in some instances
ORCA just re-implements algorithms worked out by others. We are fully aware of that and we are also
fully appreciative of our colleagues work. Hence this citation list should not be read as indicating
that the listed papers, which are focused on our own work, are the only ones worth citing. It simply
meant to make it easier for users to cite ORCA specific papers. It is not a substitute for doing your
own literature research and citing the relevant literature in a scientifically appropriate manner.

List of essential papers. We consider these as the minimum necessary citations

  1. Neese, F.
     Software update: the ORCA program system, version 6.0
     WIRES Comput. Molec. Sci. 2025 15(1), e70019
     doi.org/10.1002/wcms.70019

List of papers to cite with high priority. The work reported in these papers was absolutely
necessary for this run to complete.
Our perspective: the developers of density functionals and basis sets usually get cited in chemistry papers
Good! But without the algorithms to do something with them, the functionals or basis sets would not do anything.
Hence, in our opinion, the algorithm design and method developments papers are equally worthy of getting cited

  1. Lehtola, S.; Steigemann, C.; Oliveira, M.; Marques, M.
     Recent developments in Libxc - A comprehensive library of functionals for density functional theory
     Software X 2018 7 , 
     doi.org/10.1016/j.softx.2017.11.002
  2. Neese, F.
     The SHARK Integral Generation and Digestion System
     J. Comp. Chem. 2022 44(3), 381
     doi.org/10.1002/jcc.26942

List of suggested additional citations. These are papers that are important in the 'surrounding' of 
of this run, or papers that preceded the highly important papers. If you like your results we are grateful for a citation.

  1. Neese, F.
     The ORCA program system
     WIRES Comput. Molec. Sci. 2012 2(1), 73-78
     doi.org/10.1002/wcms.81
  2. Neese, F.
     Software update: the ORCA program system, version 4.0
     WIRES Comput. Molec. Sci. 2018 8(1), 1-6
     doi.org/10.1002/wcms.1327
  3. Neese, F.; Wennmohs, F.; Becker, U.; Riplinger, C.
     The ORCA quantum chemistry program package
     J. Chem. Phys. 2020 152(22), 224108
     doi.org/10.1063/5.0004608
  4. Neese, F.
     Software update: The ORCA program system—Version 5.0
     WIRES Comput. Molec. Sci. 2022 12(1), e1606
     doi.org/10.1002/wcms.1606

List of optional additional citations

  1. Neese, F.
     Approximate second-order SCF convergence for spin unrestricted wavefunctions
     Chem. Phys. Lett. 2000 325(1-3), 93-98
     doi.org/10.1016/s0009-2614(00)00662-x

Timings for individual modules:

Sum of individual times          ...       40.023 sec (=   0.667 min)
Startup calculation              ...        0.615 sec (=   0.010 min)   1.5 %
SCF iterations                   ...       38.827 sec (=   0.647 min)  97.0 %
Property integrals               ...        0.289 sec (=   0.005 min)   0.7 %
Property calculations            ...        0.284 sec (=   0.005 min)   0.7 %
Orbital localization             ...        0.008 sec (=   0.000 min)   0.0 %
                             ****ORCA TERMINATED NORMALLY****
TOTAL RUN TIME: 0 days 0 hours 0 minutes 40 seconds 716 msec
