
                                 *****************
                                 * O   R   C   A *
                                 *****************

                                            #,                                       
                                            ###                                      
                                            ####                                     
                                            #####                                    
                                            ######                                   
                                           ########,                                 
                                     ,,################,,,,,                         
                               ,,#################################,,                 
                          ,,##########################################,,             
                       ,#########################################, ''#####,          
                    ,#############################################,,   '####,        
                  ,##################################################,,,,####,       
                ,###########''''           ''''###############################       
              ,#####''   ,,,,##########,,,,          '''####'''          '####       
            ,##' ,,,,###########################,,,                        '##       
           ' ,,###''''                  '''############,,,                           
         ,,##''                                '''############,,,,        ,,,,,,###''
      ,#''                                            '''#######################'''  
     '                                                          ''''####''''         
             ,#######,   #######,   ,#######,      ##                                
            ,#'     '#,  ##    ##  ,#'     '#,    #''#        ,####,    ,#,          
            ##       ##  ##   ,#'  ##            #'  '#       #'       ,# #          
            ##       ##  #######   ##           ,######,      #####,      #          
            '#,     ,#'  ##    ##  '#,     ,#' ,#      #,     #,   #      #          
             '#######'   ##     ##  '#######'  #'      '#     '####' #    #          



                #########################################################
                #                        -***-                          #
                #          Department of theory and spectroscopy        #
                #                                                       #
                #                      Frank Neese                      #
                #                                                       #
                #     Directorship, Architecture, Infrastructure        #
                #                    SHARK, DRIVERS                     #
                #        Core code/Algorithms in most modules           #
                #                                                       #
                #        Max Planck Institute fuer Kohlenforschung      #
                #                Kaiser Wilhelm Platz 1                 #
                #                 D-45470 Muelheim/Ruhr                 #
                #                      Germany                          #
                #                                                       #
                #                  All rights reserved                  #
                #                        -***-                          #
                #########################################################


                         Program Version 6.1.1  -  RELEASE   -
                                (GIT: $487d211c$)
                          ($2025-11-21 10:33:24 +0100$)


 With contributions from (in alphabetic order):
[Max-Planck-Institut fuer Kohlenforschung]                               
  Daniel Aravena         : Magnetic Suceptibility                        
  Michael Atanasov       : Ab Initio Ligand Field Theory (pilot matlab implementation)
  Alexander A. Auer      : GIAO ZORA, VPT2 properties, NMR spectrum      
  Ute Becker             : All parallelization in ORCA, NUMFREQ, NUMCALC 
  Giovanni Bistoni       : ED, misc. LED, open-shell LED, HFLD           
  Dmytro Bykov           : pre 5.0 version of the SCF Hessian            
  Marcos Casanova-Páez   : Triplet and SCS-CIS(D). UHF-(DLPNO)-IP/EA/STEOM-CCSD. UHF-CVS-IP/STEOM-CCSD   
  Vijay G. Chilkuri      : MRCI spin determinant printing, contributions to CSF-ICE 
  Pauline Colinet        : FMM embedding                                 
  Dipayan Datta          : RHF DLPNO-CCSD density                        
  Achintya Kumar Dutta   : EOM-CC, STEOM-CC                              
  Nicolas Foglia         : Exact transition moments, OPA infrastructure, MCD improvements    
  Dmitry Ganyushin       : Spin-Orbit,Spin-Spin,Magnetic field MRCI      
  Miquel Garcia-Rates    : C-PCM and meta-GGA Hessian, CCSD/C-PCM, Gaussian charge scheme 
  Tiago L. C. Gouveia    : GS-ROHF, GS-ROCIS                             
  Yang Guo               : DLPNO-NEVPT2, F12-NEVPT2, CIM, IAO-localization        
  Andreas Hansen         : Spin unrestricted coupled pair/coupled cluster methods 
  Ingolf Harden          : AUTO-CI MPn and infrastructure                
  Benjamin Helmich-Paris : MC-RPA, TRAH-(SCF,CASSCF), AVAS, COSX integrals, SCF dyn. polar., MC-PDFT, srDFT 
  Lee Huntington         : MR-EOM, pCC                                   
  Robert Izsak           : Overlap fitted RIJCOSX, COSX-SCS-MP3, EOM     
  Riya Kayal             : Wick's Theorem for AUTO-CI, AUTO-CI UHF-CCSDT 
  Emily Kempfer          : AUTO-CI RHF CISDT and CCSDT, approximate NEVPT4
  Christian Kollmar      : KDIIS, OOCD, Brueckner-CCSD(T), CCSD density, CASPT2, CASPT2-K, improved NEVPT2 
  Axel Koslowski         : Symmetry handling                             
  Simone Kossmann        : meta-GGA functionals, TD-DFT gradient, OOMP2, (MP2 Hessian; deprecated post 5.0) 
  Lucas Lang             : DCDCAS, Hyperfine gauge corrections, ICE-SOC+SSC
  Marvin Lechner         : AUTO-CI (C++ implementation), FIC-MRCC        
  Spencer Leger          : CASSCF response                               
  Dagmar Lenk            : GEPOL surface, SMD, ORCA-2-JSON               
  Dimitrios Liakos       : Extrapolation schemes; Compound Job, Property file
  Dimitrios Manganas     : Further ROCIS development; embedding schemes. LFT, Crystal Embedding 
  Dimitrios Pantazis     : SARC Basis sets                               
  Anastasios Papadopoulos: AUTO-CI, single reference methods and gradients 
  Taras Petrenko         : pre 6.0 DFT Hessian and TD-DFT gradient,  ECA, NRVS 
  Petra Pikulova         : Analytic Raman intensities                    
  Peter Pinski           : DLPNO-MP2, DLPNO-MP2 Gradient                 
  Shashank Vittal Rao    : ES-AILFT, MagRelax                            
  Christoph Reimann      : Effective Core Potentials                     
  Marius Retegan         : Local ZFS, SOC                                
  Christoph Riplinger    : Optimizer, TS searches, QM/MM, DLPNO-CCSD(T), (RO)-DLPNO pert. Triples 
  Michael Roemelt        : Original ROCIS implementation, recursive CI coupling coefficients
  Masaaki Saitow         : Open-shell DLPNO-CCSD energy and density      
  Barbara Sandhoefer     : DKH picture change effects                    
  Yorick L. A. Schmerwitz: GMF and freeze-and-release deltaSCF, NEB S-IDPP initial path                    
  Kantharuban Sivalingam : CASSCF convergence/infrastructure, NEVPT2, NEVPT3, NEVPT4(SD), FIC-MRCI and CEPA variants
  Bernardo de Souza      : ESD, SOC TD-DFT                               
  Georgi L. Stoychev     : AutoAux, RI-MP2 NMR, DLPNO-MP2 response, X2C  
  Van Anh Tran           : RI-MP2 g-tensors                              
  Willem Van den Heuvel  : Paramagnetic NMR                              
  Zikuan Wang            : NOTCH, Electric field optimization            
  Frank Wennmohs         : Technical directorship and infrastructure     
  Hang Xu                : AUTO-CI-Response properties                   
                                                                         
[FACCTs GmbH]                                                            
  Markus Bursch, Nicolas Foglia, Miquel Garcia-Rates, Ingolf Harden, Hagen Neugebauer, Anastasios Papadopoulos, 
  Christoph Riplinger, Bernardo de Souza, Georgi L. Stoychev                                                    
                                                                 
  APM, various basis sets, CI-OPT, improved COSX, DLPNO-Multilevel,           
  DOCKER, DRACO, updates on ESD, Fragmentator, GOAT, IRC, LR-CPCM, L-BFGS, MBIS, meta-GGA TD-DFT gradient, ML-optimized integration grids, 
  MM, NACMEs, nearIR, NEB, NEB-TS, NL-DFT gradient (VV10), 2- and 3-layer-ONIOM, interface openCOSMO-RS, QMMM,   
  Crystal-QMMM, RESP, rigid body optimization, SF, symmetry and pop. for TD-DFT, various functionals, SOLVATOR                                   
                                                                         
[Other institutions]                                                     
  V. Asgeirsson          : NEB                                           
  Christoph Bannwarth    : sTDA-DFT, sTD-DFT, PBEh-3c, B97-3c, D3        
  Giovanni Bistoni       : ETS/NOCV, ADLD/ADEX, COVALED                  
  Martin Brehm           : Molecular dynamics                            
  Ronald Cardenas        : ETS/NOCV                                      
  Martina Colucci        : COVALED                                       
  Sebastian Ehlert       : rSCAN, r2SCAN, r2SCAN-3c, D4, dhf basis sets  
  Marvin Friede          : D4 for Fr, Ra, Ac-Lr                          
  Lars Goerigk           : TD-DFT with DH, B97 family of functionals     
  Stefan Grimme          : VdW corrections, initial TS optimization, DFT functionals, gCP, sTDA/sTD-DF 
  Waldemar Hujo          : DFT-NL                                        
  H. Jonsson             : NEB                                           
  Holger Kruse           : gCP                                           
  Marcel Mueller         : wB97X-3c, vDZP basis set                      
  Hagen Neugebauer       : wr2SCAN, Native XTB                           
  Gianluca Regni         : ADLD/ADEX                                     
  Tobias Risthaus        : pre 6.0 range-separated hybrid DFT and stability analysis
  Lukas Wittmann         : regularized MP2, r2SCAN double-hybrids, wr2SCAN        
                                                                         
We gratefully acknowledge several colleagues who have allowed us to      
interface, adapt or use parts of their codes:                            
  Ed Valeev, F. Pavosevic, A. Kumar             : LibInt (2-el integral package), F12 methods 
  Garnet Chan, S. Sharma, J. Yang, R. Olivares  : DMRG                   
  Ulf Ekstrom                                   : XCFun DFT Library      
  Mihaly Kallay                                 : mrcc  (arbitrary order and MRCC methods)
  Frank Weinhold                                : gennbo (NPA and NBO analysis)           
  Simon Mueller                                 : openCOSMO-RS                            
  Christopher J. Cramer and Donald G. Truhlar   : smd solvation model                     
  S Lehtola, MJT Oliveira, MAL Marques          : LibXC Library                           
  Liviu Ungur et al                             : ANISO software                          


 Your calculation uses the libint2 library for the computation of 2-el integrals
 For citations please refer to: http://libint.valeyev.net

 Your ORCA version has been built with support for libXC version: 7.0.0
 For citations please refer to: https://libxc.gitlab.io

 This ORCA versions uses:
   CBLAS   interface :  Fast vector & matrix operations
   LAPACKE interface :  Fast linear algebra routines
   SCALAPACK package :  Parallel linear algebra routines
   Shared memory     :  Shared parallel matrices
   BLAS/LAPACK       :  OpenBLAS 0.3.29  USE64BITINT DYNAMIC_ARCH NO_AFFINITY Cooperlake SINGLE_THREADED
        Core in use  :  Cooperlake
   Copyright (c) 2011-2014, The OpenBLAS Project


  ***********************************
  * Starting time: Wed May 20 12:33:44 2026
  * Host name:     c1-44
  * Process ID:    2318237
  * Working dir.:  /cluster/projects/nn14654k/ylvaos/basis_set_n_funcs/functionals/N12/CH3COOH/out
  ***********************************

Using LibXC functional ID  82 : Minnesota N12 exchange functional
[ 1]  R. Peverati and D. G. Truhlar.,  J. Chem. Theory Comput. 8, 2310 (2012)
Using LibXC functional ID  80 : Minnesota N12 correlation functional
[ 1]  R. Peverati and D. G. Truhlar.,  J. Chem. Theory Comput. 8, 2310 (2012)
Using LibXC functional ID  82 : Minnesota N12 exchange functional
[ 1]  R. Peverati and D. G. Truhlar.,  J. Chem. Theory Comput. 8, 2310 (2012)
Using LibXC functional ID  80 : Minnesota N12 correlation functional
[ 1]  R. Peverati and D. G. Truhlar.,  J. Chem. Theory Comput. 8, 2310 (2012)
Your calculation utilizes LibXC
by S. Lehtola, C. Steigemann, M. J. T. Oliveira & M. A. L. Marques
Please cite in your paper:
Lehtola, S.; Steigemann, C.; Oliveira, M.J.T.; Marques, M. A. L. Software X, 7, (2018), 1.
   

================================================================================

----- Orbital basis set information -----
Your calculation utilizes the basis: pc-4
   H, C-F              : F. Jensen, J. Chem. Phys. 115, 9113 (2001).
                         F. Jensen, J. Chem. Phys. 116, 7372 (2002).
                         F. Jensen, J. Chem. Phys. 117, 9234 (2002).
   Si-Cl               : F. Jensen, T. Helgaker, J. Chem. Phys. 121, 3463 (2004).
   He-B, Ne-Mg, Al, Ar : F. Jensen, J. Phys. Chem. A 111, 11198 (2007).
   K, Ca, Ga-Kr        : F. Jensen, J. Chem. Phys. 136, 094110 (2012).
   Sc-Zn               : F. Jensen, J. Chem. Phys. 138, 014107 (2013).

================================================================================
                                        WARNINGS
                       Please study these warnings very carefully!
================================================================================


WARNING: The basis set has functions with high angular momentum (Lmax>4).
         We might need to increase small grids for safety reasons and
         in general, DEFGRID3 is recommend for such cases.
  ===> : GRIDX1, TD-DFT and the CP-SCF AngGrids will be increased to at least 2


================================================================================
                                       INPUT FILE
================================================================================
NAME = /cluster/projects/nn14654k/ylvaos/basis_set_n_funcs/functionals/N12/CH3COOH/inp/CH3COOH_N12_pc4.inp
|  1> ! dft pc-4 TightSCF
|  2> %pal nprocs 8 end
|  3> 
|  4> %loc
|  5>   LocMet NewBoys
|  6>   Occ true
|  7> end
|  8> 
|  9> %method
| 10>   exchange gga_x_N12
| 11>   correlation gga_c_N12
| 12> end
| 13> 
| 14> %elprop
| 15>   Dipole true
| 16>   Quadrupole true
| 17> end
| 18> 
| 19> * xyz 0 1
| 20> C    0.000000000000   0.154560000000   0.000000000000
| 21> C    1.073776000000  -0.892748000000   0.000000000000
| 22> O    0.166384000000   1.360084000000   0.000000000000
| 23> O   -1.236449000000  -0.415036000000   0.000000000000
| 24> H   -1.867646000000   0.333582000000   0.000000000000
| 25> H    2.048189000000  -0.408135000000   0.000000000000
| 26> H    0.968661000000  -1.528353000000   0.881747000000
| 27> H    0.968661000000  -1.528353000000  -0.881747000000
| 28> *
| 29> 
| 30> 
| 31>                          ****END OF INPUT****
================================================================================

                       ****************************
                       * Single Point Calculation *
                       ****************************

---------------------------------
CARTESIAN COORDINATES (ANGSTROEM)
---------------------------------
  C      0.000000    0.154560    0.000000
  C      1.073776   -0.892748    0.000000
  O      0.166384    1.360084    0.000000
  O     -1.236449   -0.415036    0.000000
  H     -1.867646    0.333582    0.000000
  H      2.048189   -0.408135    0.000000
  H      0.968661   -1.528353    0.881747
  H      0.968661   -1.528353   -0.881747

----------------------------
CARTESIAN COORDINATES (A.U.)
----------------------------
  NO LB      ZA    FRAG     MASS         X           Y           Z
   0 C     6.0000    0    12.011    0.000000    0.292076    0.000000
   1 C     6.0000    0    12.011    2.029143   -1.687049    0.000000
   2 O     8.0000    0    15.999    0.314420    2.570186    0.000000
   3 O     8.0000    0    15.999   -2.336550   -0.784304    0.000000
   4 H     1.0000    0     1.008   -3.529339    0.630379    0.000000
   5 H     1.0000    0     1.008    3.870516   -0.771263    0.000000
   6 H     1.0000    0     1.008    1.830504   -2.888169    1.666260
   7 H     1.0000    0     1.008    1.830504   -2.888169   -1.666260

--------------------------------
INTERNAL COORDINATES (ANGSTROEM)
--------------------------------
 C      0   0   0     0.000000000000     0.00000000     0.00000000
 C      1   0   0     1.499949647502     0.00000000     0.00000000
 O      1   2   0     1.216951827326   126.42686784     0.00000000
 O      1   2   3     1.361339683113   110.98078396   180.00000000
 H      4   1   2     0.979203024267   105.40175469   180.00000085
 H      2   1   3     1.088269476893   109.27200725     0.00000000
 H      2   1   3     1.092025938913   109.72406365   120.93315147
 H      2   1   3     1.092025938913   109.72406365   239.06684853

---------------------------
INTERNAL COORDINATES (A.U.)
---------------------------
 C      0   0   0     0.000000000000     0.00000000     0.00000000
 C      1   0   0     2.834494048450     0.00000000     0.00000000
 O      1   2   0     2.299705671821   126.42686784     0.00000000
 O      1   2   3     2.572559176322   110.98078396   180.00000000
 H      4   1   2     1.850425545371   105.40175469   180.00000085
 H      2   1   3     2.056531271234   109.27200725     0.00000000
 H      2   1   3     2.063629955684   109.72406365   120.93315147
 H      2   1   3     2.063629955684   109.72406365   239.06684853

---------------------
BASIS SET INFORMATION
---------------------
There are 3 groups of distinct atoms

 Group   1 Type C   : 27s11p6d3f2g1h contracted to 8s7p6d3f2g1h pattern {1110111111/5111111/111111/111/11/1}
 Group   2 Type O   : 26s11p6d3f2g1h contracted to 8s7p6d3f2g1h pattern {119111111/5111111/111111/111/11/1}
 Group   3 Type H   : 11s6p3d2f1g contracted to 7s6p3d2f1g pattern {5111111/111111/111/11/1}

Atom   0C    basis set group =>   1
Atom   1C    basis set group =>   1
Atom   2O    basis set group =>   2
Atom   3O    basis set group =>   2
Atom   4H    basis set group =>   3
Atom   5H    basis set group =>   3
Atom   6H    basis set group =>   3
Atom   7H    basis set group =>   3


           ************************************************************
           *        Program running with 8 parallel MPI-processes     *
           *              working on a common directory               *
           ************************************************************
------------------------------------------------------------------------------
                             ORCA STARTUP CALCULATIONS
------------------------------------------------------------------------------
------------------------------------------------------------------------------
                   ___                                                        
                  /   \      - P O W E R E D   B Y -                         
                 /     \                                                     
                 |  |  |   _    _      __       _____    __    __             
                 |  |  |  | |  | |    /  \     |  _  \  |  |  /  |          
                  \  \/   | |  | |   /    \    | | | |  |  | /  /          
                 / \  \   | |__| |  /  /\  \   | |_| |  |  |/  /          
                |  |  |   |  __  | /  /__\  \  |    /   |      \           
                |  |  |   | |  | | |   __   |  |    \   |  |\   \          
                \     /   | |  | | |  |  |  |  | |\  \  |  | \   \       
                 \___/    |_|  |_| |__|  |__|  |_| \__\ |__|  \__/        
                                                                              
                      - O R C A' S   B I G   F R I E N D -                    
                                      &                                       
                       - I N T E G R A L  F E E D E R -                       
                                                                              
 v1 FN, 2020, v2 2021, v3 2022-2024                                           
------------------------------------------------------------------------------


----------------------
SHARK INTEGRAL PACKAGE
----------------------

Number of atoms                             ...      8
Number of basis functions                   ...    688
Number of shells                            ...    184
Maximum angular momentum                    ...      5
Integral batch strategy                     ... SHARK/LIBINT Hybrid
RI-J (if used) integral strategy            ... SPLIT-RIJ (Revised 2003 algorithm where possible)
Printlevel                                  ...      1
Contraction scheme used                     ... SEGMENTED contraction
Prescreening option                         ... SCHWARTZ
   Thresh                                   ... 2.500e-11
   Tcut                                     ... 2.500e-12
   Tpresel                                  ... 2.500e-12 
Coulomb Range Separation                    ... NOT USED
Exchange Range Separation                   ... NOT USED
Multipole approximations                    ... NOT USED
Finite Nucleus Model                        ... NOT USED
CABS basis                                  ... NOT available
Auxiliary Coulomb fitting basis             ... NOT available
Auxiliary J/K fitting basis                 ... NOT available
Auxiliary Correlation fitting basis         ... NOT available
Auxiliary 'external' fitting basis          ... NOT available

Checking pre-screening integrals            ... done (  0.0 sec) Dimension = 184
   => SHARK Basis and OBASIS are compatible. Storing Pre-screening
Shell pair information
Shell pair cut-off parameter TPreSel        ...   2.5e-12
Total number of shell pairs                 ...     17020
Shell pairs after pre-screening             ...     15451
Total number of primitive shell pairs       ...     42657
Primitive shell pairs kept                  ...     30717
          la=0 lb=0:   1626 shell pairs
          la=1 lb=0:   2779 shell pairs
          la=1 lb=1:   1235 shell pairs
          la=2 lb=0:   1975 shell pairs
          la=2 lb=1:   1709 shell pairs
          la=2 lb=2:    628 shell pairs
          la=3 lb=0:   1102 shell pairs
          la=3 lb=1:    957 shell pairs
          la=3 lb=2:    683 shell pairs
          la=3 lb=3:    201 shell pairs
          la=4 lb=0:    627 shell pairs
          la=4 lb=1:    555 shell pairs
          la=4 lb=2:    392 shell pairs
          la=4 lb=3:    224 shell pairs
          la=4 lb=4:     71 shell pairs
          la=5 lb=0:    223 shell pairs
          la=5 lb=1:    190 shell pairs
          la=5 lb=2:    143 shell pairs
          la=5 lb=3:     77 shell pairs
          la=5 lb=4:     44 shell pairs
          la=5 lb=5:     10 shell pairs

Checking whether 4 symmetric matrices of dimension 688 fit in memory
:Max Core in MB      =   4096.00
 MB in use           =     26.53
 MB left             =   4069.47
 MB needed           =      7.23
 Data fit in memory  = YES
Calculating Nuclear repulsion               ... done (  0.0 sec) ENN=    120.693288504615 Eh

Diagonalization of the overlap matrix:
Smallest eigenvalue                        ... 1.464e-06
Time for diagonalization                   ...    0.038 sec
Threshold for overlap eigenvalues          ... 1.000e-07
Number of eigenvalues below threshold      ... 0
Time for construction of square roots      ...    0.022 sec
Total time needed                          ...    0.064 sec

-------------------
DFT GRID GENERATION
-------------------

General Integration Accuracy     IntAcc      ... 4.388
Radial Grid Type                 RadialGrid  ... OptM3 with GC (2021)
Angular Grid (max. ang.)         AngularGrid ... 4 (Lebedev-302)
Angular grid pruning method      GridPruning ... 4 (adaptive)
Weight generation scheme         WeightScheme... mBecke (2022)
Basis function cutoff            BFCut       ... 1.0000e-11
Integration weight cutoff        WCut        ... 1.0000e-14
Partially contracted basis set               ... off
Rotationally invariant grid construction     ... off
Angular grids for H and He will be reduced by one unit
Diffuse basis detected: some atoms will have their outermost
                        angular grid increased by 1.
Core-polarized basis detected: some atoms will have their core
                               angular grid increased.

Total number of grid points                  ...    46512
Total number of batches                      ...      731
Average number of points per batch           ...       63
Average number of grid points per atom       ...     5814
Grids setup in   0.2 sec
Initializing property integral containers    ... done (  0.0 sec)

SHARK setup successfully completed in   0.8 seconds

Maximum memory used throughout the entire STARTUP-calculation: 55.6 MB


           ************************************************************
           *        Program running with 8 parallel MPI-processes     *
           *              working on a common directory               *
           ************************************************************
-------------------------------------------------------------------------------
                                 ORCA GUESS
                   Start orbitals & Density for SCF / CASSCF
-------------------------------------------------------------------------------

------------
SCF SETTINGS
------------
Hamiltonian:
 Density Functional     Method          .... DFT(GTOs)
  Functional kind                       .... Exchange
  Functional name                       .... Minnesota N12 exchange functional
  Functional family                     .... GGA
  Functional refs                              
    [ 0] R. Peverati and D. G. Truhlar.,  J. Chem. Theory Comput. 8, 2310 (2012), doi: 10.1021/ct3002656
  Functional external parameters        .... 16
    Parameter  0 _CC00      =  1.000000e+00 : _CC00               
    Parameter  1 _CC01      =  5.078800e-01 : _CC01               
    Parameter  2 _CC02      =  1.682330e-01 : _CC02               
    Parameter  3 _CC03      =  1.288870e-01 : _CC03               
    Parameter  4 _CC10      =  8.602110e-02 : _CC10               
    Parameter  5 _CC11      = -1.710080e+01 : _CC11               
    Parameter  6 _CC12      =  6.508140e+01 : _CC12               
    Parameter  7 _CC13      = -7.017260e+01 : _CC13               
    Parameter  8 _CC20      = -3.907550e-01 : _CC20               
    Parameter  9 _CC21      =  5.133920e+01 : _CC21               
    Parameter 10 _CC22      = -1.662200e+02 : _CC22               
    Parameter 11 _CC23      =  1.427380e+02 : _CC23               
    Parameter 12 _CC30      =  4.036110e-01 : _CC30               
    Parameter 13 _CC31      = -3.446310e+01 : _CC31               
    Parameter 14 _CC32      =  7.616610e+01 : _CC32               
    Parameter 15 _CC33      = -2.418340e+00 : _CC33               
  Functional kind                       .... Correlation
  Functional name                       .... Minnesota N12 correlation functional
  Functional family                     .... GGA
  Functional refs                              
    [ 0] R. Peverati and D. G. Truhlar.,  J. Chem. Theory Comput. 8, 2310 (2012), doi: 10.1021/ct3002656
  Functional external parameters        .... 10
    Parameter  0 _css0      =  1.000000e+00 : u^0 coefficient for same-spin correlation
    Parameter  1 _css1      = -5.531700e+00 : u^1 coefficient for same-spin correlation
    Parameter  2 _css2      =  3.079580e+01 : u^2 coefficient for same-spin correlation
    Parameter  3 _css3      = -5.641960e+01 : u^3 coefficient for same-spin correlation
    Parameter  4 _css4      =  3.212500e+01 : u^4 coefficient for same-spin correlation
    Parameter  5 _cos0      =  1.000000e+00 : u^0 coefficient for opposite-spin correlation
    Parameter  6 _cos1      =  3.245110e+00 : u^1 coefficient for opposite-spin correlation
    Parameter  7 _cos2      = -2.528930e+01 : u^2 coefficient for opposite-spin correlation
    Parameter  8 _cos3      =  1.444070e+01 : u^3 coefficient for opposite-spin correlation
    Parameter  9 _cos4      =  1.968700e+01 : u^4 coefficient for opposite-spin correlation
 Gradients option       PostSCFGGA      .... off


General Settings:
 Integral files         IntName         .... /cluster/projects/nn14654k/ylvaos/basis_set_n_funcs/functionals/N12/CH3COOH/inp/CH3COOH_N12_pc4
 Hartree-Fock type      HFTyp           .... RHF
 Total Charge           Charge          ....    0
 Multiplicity           Mult            ....    1
 Number of Electrons    NEL             ....   32
 Basis Dimension        Dim             ....  688
 Nuclear Repulsion      ENuc            ....    120.6932885046 Eh

Convergence Acceleration:
 AO-DIIS                CNVDIIS         .... on
   Start iteration      DIISMaxIt       ....    12
   Startup error        DIISStart       ....  0.200000
   # of expansion vecs  DIISMaxEq       ....     5
   Bias factor          DIISBfac        ....   1.050
   Max. coefficient     DIISMaxC        ....  10.000
 MO-DIIS                CNVKDIIS        .... off
 Trust-Rad. Augm. Hess. CNVTRAH         .... auto
   Auto Start mean grad. ratio tolernc. ....  1.125000
   Auto Start start iteration           ....    50
   Auto Start num. interpolation iter.  ....    10
   Max. Number of Micro iterations      ....    24
   Max. Number of Macro iterations      .... Maxiter - #DIIS iter
   Number of Davidson start vectors     ....     2
   Converg. threshold    (grad. norm)   ....   1.000e-05
   Grad. Scal. Fac. for Micro threshold ....   0.100
   Minimum threshold for Micro iter.    ....   1.000e-02
   NR start threshold (gradient norm)   ....   1.000e-04
   Initial trust radius                 ....   0.400
   Minimum AH scaling param. (alpha)    ....   1.000
   Maximum AH scaling param. (alpha)    .... 1000.000
   Quad. conv. algorithm                .... NR
   White noise on init. David. guess    .... on
   Maximum white noise                  ....   0.010
   Pseudo random numbers                .... off
   Inactive MOs                         .... canonical
   Orbital update algorithm             .... Taylor
   Preconditioner                       .... Diag
   Full preconditioner red. dimension   ....   250
 SOSCF                 CNVSOSCF           .... on
   Start iteration     SOSCFMaxIt         ....   150
   Startup grad/error  SOSCFStart         ....  0.003300
   Hessian update      SOSCFHessUp        .... L-BFGS
   Autom. constraints  SOSCFAutoConstrain .... off
 Level Shifting         CNVShift        .... on
   Level shift para.    LevelShift      ....    0.2500
   Turn off err/grad.   ShiftErr        ....    0.0010
 Zerner damping         CNVZerner       .... off
 Static damping         CNVDamp         .... on
   Fraction old density DampFac         ....    0.7000
   Max. Damping (<1)    DampMax         ....    0.9800
   Min. Damping (>=0)   DampMin         ....    0.0000
   Turn off err/grad.   DampErr         ....    0.1000

SCF Procedure:
 Maximum # iterations   MaxIter         ....   125
 SCF integral mode      SCFMode         .... Direct
   Integral package                     .... SHARK and LIBINT hybrid scheme
 Reset frequency        DirectResetFreq ....    20
 Integral Threshold     Thresh          ....  2.500e-11 Eh
 Primitive CutOff       TCut            ....  2.500e-12 Eh

Convergence Tolerance:
 Convergence Check Mode ConvCheckMode   .... Total+1el-Energy
 Convergence forced     ConvForced      .... 0
 Energy Change          TolE            ....  1.000e-08 Eh
 1-El. energy change                    ....  1.000e-05 Eh
 Orbital Gradient       TolG            ....  1.000e-05
 Orbital Rotation angle TolX            ....  1.000e-05
 DIIS Error             TolErr          ....  5.000e-07

------------------------------
INITIAL GUESS: MODEL POTENTIAL
------------------------------
Loading Hartree-Fock densities                     ... done
Calculating cut-offs                               ... done
Initializing the effective Hamiltonian             ... done
Setting up the integral package (SHARK)            ... done
Starting the Coulomb interaction                   ... done (   0.1 sec)
Making the grid                                    ... done (   0.1 sec)
Mapping shells                                     ... done
Starting the XC term evaluation                    ... done (   0.1 sec)
  promolecular density results
     # of electrons  =     31.997033092
     EX              =    -27.201456812
     EC              =     -1.705805941
     EX+EC           =    -28.907262753
Transforming the Hamiltonian                       ... done (   0.0 sec)
Diagonalizing the Hamiltonian                      ... done (   0.0 sec)
Back transforming the eigenvectors                 ... done (   0.0 sec)
Now organizing SCF variables                       ... done
                      ------------------
                      INITIAL GUESS DONE (   0.3 sec)
                      ------------------
             **** ENERGY FILE WAS UPDATED (/cluster/projects/nn14654k/ylvaos/basis_set_n_funcs/functionals/N12/CH3COOH/inp/CH3COOH_N12_pc4.en.tmp) ****
Finished Guess after   0.6 sec
Maximum memory used throughout the entire GUESS-calculation: 54.1 MB


           ************************************************************
           *        Program running with 8 parallel MPI-processes     *
           *              working on a common directory               *
           ************************************************************

-------------------------------------------------------------------------------------------
                                      ORCA LEAN-SCF
                              memory conserving SCF solver
-------------------------------------------------------------------------------------------

----------------------------------------D-I-I-S--------------------------------------------
Iteration    Energy (Eh)           Delta-E    RMSDP     MaxDP     DIISErr   Damp  Time(sec)
-------------------------------------------------------------------------------------------
               ***  Starting incremental Fock matrix formation  ***
    1    -228.8847443680206197     0.00e+00  1.19e-03  3.29e-02  3.61e-01  0.700  40.3
    2    -229.0184514214963656    -1.34e-01  8.26e-04  1.87e-02  1.06e-01  0.700  38.5
                               ***Turning on AO-DIIS***
    3    -229.0527696442236447    -3.43e-02  4.85e-04  1.31e-02  3.39e-02  0.700  37.3
    4    -229.0781934665340600    -2.54e-02  9.17e-04  1.96e-02  2.50e-02  0.000  36.8
    5    -229.1395253063749919    -6.13e-02  2.97e-04  1.35e-02  1.55e-02  0.000  38.0
    6    -229.1402922101662512    -7.67e-04  1.63e-04  5.63e-03  5.28e-03  0.000  33.8
                              *** Initializing SOSCF ***
---------------------------------------S-O-S-C-F--------------------------------------
Iteration    Energy (Eh)           Delta-E    RMSDP     MaxDP     MaxGrad    Time(sec)
--------------------------------------------------------------------------------------
    7    -229.1403544077321044    -6.22e-05  8.69e-05  2.86e-03  2.42e-03    32.9
               *** Restarting incremental Fock matrix formation ***
    8    -229.1403708125865819    -1.64e-05  9.22e-05  3.39e-03  2.71e-04    40.2
    9    -229.1403717278729459    -9.15e-07  3.19e-05  1.18e-03  2.41e-04    30.1
   10    -229.1403719426277235    -2.15e-07  2.75e-05  9.88e-04  1.55e-04    28.2
   11    -229.1403721956025379    -2.53e-07  9.46e-06  3.33e-04  1.09e-04    26.7
   12    -229.1403721275596581     6.80e-08  1.11e-05  3.98e-04  1.13e-04    24.7
   13    -229.1403722712169611    -1.44e-07  3.00e-06  1.01e-04  1.96e-05    24.3
   14    -229.1403722656874038     5.53e-09  3.30e-06  1.16e-04  2.50e-05    22.2
                 **** Energy Check signals convergence ****

               *****************************************************
               *                     SUCCESS                       *
               *           SCF CONVERGED AFTER  14 CYCLES          *
               *****************************************************

             **** ENERGY FILE WAS UPDATED (/cluster/projects/nn14654k/ylvaos/basis_set_n_funcs/functionals/N12/CH3COOH/inp/CH3COOH_N12_pc4.en.tmp) ****

----------------
TOTAL SCF ENERGY
----------------

Total Energy       :       -229.14037228777170 Eh           -6235.22652 eV

Components:
Nuclear Repulsion  :        120.69328850461517 Eh            3284.23135 eV
Electronic Energy  :       -349.83366079238687 Eh           -9519.45787 eV
One Electron Energy:       -551.93493520555535 Eh          -15018.91313 eV
Two Electron Energy:        202.10127441316848 Eh            5499.45526 eV

Virial components:
Potential Energy   :       -456.48949528795299 Eh          -12421.71067 eV
Kinetic Energy     :        227.34912300018132 Eh            6186.48415 eV
Virial Ratio       :          2.00787884845982

DFT components:
N(Alpha)           :       15.999998282937 electrons
N(Beta)            :       15.999998282937 electrons
N(Total)           :       31.999996565874 electrons
E(X)               :      -27.771861715496 Eh       
E(C)               :       -1.732607963752 Eh       
E(XC)              :      -29.504469679249 Eh       

---------------
SCF CONVERGENCE
---------------

  Last Energy change         ...   -5.5296e-09  Tolerance :   1.0000e-08
  Last MAX-Density change    ...    1.1625e-04  Tolerance :   1.0000e-07
  Last RMS-Density change    ...    3.3020e-06  Tolerance :   5.0000e-09
  Last DIIS Error            ...    2.4204e-03  Tolerance :   5.0000e-07
  Last Orbital Gradient      ...    2.4966e-05  Tolerance :   1.0000e-05
  Last Orbital Rotation      ...    2.4029e-05  Tolerance :   1.0000e-05


----------------
ORBITAL ENERGIES
----------------

  NO   OCC          E(Eh)            E(eV) 
   0   2.0000     -18.797727      -511.5122 
   1   2.0000     -18.738540      -509.9016 
   2   2.0000     -10.089801      -274.5574 
   3   2.0000      -9.964374      -271.1444 
   4   2.0000      -1.010977       -27.5101 
   5   2.0000      -0.923536       -25.1307 
   6   2.0000      -0.693466       -18.8702 
   7   2.0000      -0.555927       -15.1276 
   8   2.0000      -0.440274       -11.9805 
   9   2.0000      -0.426873       -11.6158 
  10   2.0000      -0.423779       -11.5316 
  11   2.0000      -0.369903       -10.0656 
  12   2.0000      -0.352682        -9.5970 
  13   2.0000      -0.352031        -9.5792 
  14   2.0000      -0.287861        -7.8331 
  15   2.0000      -0.241382        -6.5683 
  16   0.0000      -0.042120        -1.1461 
  17   0.0000      -0.037612        -1.0235 
  18   0.0000      -0.017489        -0.4759 
  19   0.0000       0.009044         0.2461 
  20   0.0000       0.010756         0.2927 
  21   0.0000       0.018731         0.5097 
  22   0.0000       0.037513         1.0208 
  23   0.0000       0.042237         1.1493 
  24   0.0000       0.047246         1.2856 
  25   0.0000       0.049087         1.3357 
  26   0.0000       0.082789         2.2528 
*Only the first 10 virtual orbitals were printed.

                    ********************************
                    * MULLIKEN POPULATION ANALYSIS *
                    ********************************

-----------------------
MULLIKEN ATOMIC CHARGES
-----------------------
   0 C :    0.560356
   1 C :    0.166673
   2 O :   -0.477530
   3 O :   -0.524459
   4 H :    0.319247
   5 H :   -0.022681
   6 H :   -0.010784
   7 H :   -0.010823
Sum of atomic charges:   -0.0000000

--------------------------------
MULLIKEN REDUCED ORBITAL CHARGES
--------------------------------
  0 C s       :     2.906880  s :     2.906880
      pz      :     0.732247  p :     2.205402
      px      :     0.737353
      py      :     0.735802
      dz2     :     0.016612  d :     0.296515
      dxz     :     0.032279
      dyz     :     0.063455
      dx2y2   :     0.057810
      dxy     :     0.126358
      f0      :     0.002092  f :     0.028699
      f+1     :     0.001169
      f-1     :     0.000581
      f+2     :     0.004015
      f-2     :     0.003077
      f+3     :     0.013165
      f-3     :     0.004599
      g0      :     0.000007  g :     0.002037
      g+1     :     0.000239
      g-1     :     0.000273
      g+2     :     0.000054
      g-2     :     0.000074
      g+3     :     0.000129
      g-3     :     0.000471
      g+4     :     0.000355
      g-4     :     0.000436
      h0      :     0.000001  h :     0.000111
      h+1     :     0.000004
      h-1     :     0.000011
      h+2     :     0.000003
      h-2     :     0.000003
      h+3     :     0.000004
      h-3     :     0.000008
      h+4     :     0.000005
      h-4     :     0.000006
      h+5     :     0.000026
      h-5     :     0.000039

  1 C s       :     2.992882  s :     2.992882
      pz      :     0.893413  p :     2.780620
      px      :     0.903628
      py      :     0.983579
      dz2     :     0.008896  d :     0.053671
      dxz     :     0.004913
      dyz     :     0.006003
      dx2y2   :     0.014004
      dxy     :     0.019855
      f0      :     0.000974  f :     0.005392
      f+1     :     0.001363
      f-1     :    -0.000239
      f+2     :     0.000633
      f-2     :     0.000578
      f+3     :     0.001342
      f-3     :     0.000740
      g0      :     0.000068  g :     0.000710
      g+1     :     0.000021
      g-1     :     0.000187
      g+2     :     0.000010
      g-2     :     0.000080
      g+3     :     0.000027
      g-3     :     0.000051
      g+4     :     0.000095
      g-4     :     0.000171
      h0      :     0.000003  h :     0.000052
      h+1     :     0.000004
      h-1     :     0.000002
      h+2     :     0.000011
      h-2     :     0.000001
      h+3     :     0.000003
      h-3     :     0.000012
      h+4     :     0.000000
      h-4     :     0.000000
      h+5     :     0.000007
      h-5     :     0.000008

  2 O s       :     3.842275  s :     3.842275
      pz      :     1.409845  p :     4.584984
      px      :     1.800358
      py      :     1.374781
      dz2     :     0.004822  d :     0.043734
      dxz     :     0.000671
      dyz     :     0.015375
      dx2y2   :     0.011916
      dxy     :     0.010951
      f0      :     0.000693  f :     0.006019
      f+1     :     0.000187
      f-1     :     0.000723
      f+2     :     0.001066
      f-2     :     0.000193
      f+3     :     0.001850
      f-3     :     0.001307
      g0      :     0.000016  g :     0.000490
      g+1     :     0.000003
      g-1     :     0.000099
      g+2     :     0.000034
      g-2     :     0.000025
      g+3     :     0.000014
      g-3     :     0.000061
      g+4     :     0.000086
      g-4     :     0.000151
      h0      :     0.000002  h :     0.000029
      h+1     :     0.000000
      h-1     :     0.000002
      h+2     :     0.000004
      h-2     :     0.000000
      h+3     :     0.000002
      h-3     :     0.000002
      h+4     :     0.000002
      h-4     :     0.000001
      h+5     :     0.000008
      h-5     :     0.000005

  3 O s       :     3.805432  s :     3.805432
      pz      :     1.747413  p :     4.660174
      px      :     1.320195
      py      :     1.592565
      dz2     :     0.009220  d :     0.051865
      dxz     :     0.005695
      dyz     :     0.004453
      dx2y2   :     0.013435
      dxy     :     0.019061
      f0      :     0.000738  f :     0.006465
      f+1     :     0.000934
      f-1     :     0.000498
      f+2     :     0.000272
      f-2     :     0.000567
      f+3     :     0.002428
      f-3     :     0.001029
      g0      :     0.000032  g :     0.000497
      g+1     :     0.000030
      g-1     :     0.000018
      g+2     :     0.000027
      g-2     :     0.000061
      g+3     :     0.000009
      g-3     :     0.000036
      g+4     :     0.000159
      g-4     :     0.000124
      h0      :     0.000002  h :     0.000026
      h+1     :     0.000002
      h-1     :     0.000001
      h+2     :     0.000000
      h-2     :     0.000001
      h+3     :     0.000001
      h-3     :     0.000001
      h+4     :     0.000000
      h-4     :     0.000002
      h+5     :     0.000006
      h-5     :     0.000009

  4 H s       :     0.597413  s :     0.597413
      pz      :     0.031816  p :     0.072674
      px      :     0.017067
      py      :     0.023791
      dz2     :     0.000477  d :     0.010029
      dxz     :     0.001757
      dyz     :     0.003001
      dx2y2   :     0.003858
      dxy     :     0.000936
      f0      :     0.000112  f :     0.000622
      f+1     :     0.000017
      f-1     :    -0.000013
      f+2     :     0.000013
      f-2     :     0.000221
      f+3     :     0.000062
      f-3     :     0.000209
      g0      :     0.000000  g :     0.000016
      g+1     :     0.000002
      g-1     :     0.000003
      g+2     :     0.000001
      g-2     :    -0.000000
      g+3     :     0.000002
      g-3     :     0.000001
      g+4     :    -0.000000
      g-4     :     0.000006

  5 H s       :     0.966296  s :     0.966296
      pz      :     0.014263  p :     0.048304
      px      :     0.020737
      py      :     0.013305
      dz2     :     0.000342  d :     0.007593
      dxz     :     0.001777
      dyz     :     0.001008
      dx2y2   :     0.003025
      dxy     :     0.001439
      f0      :     0.000058  f :     0.000493
      f+1     :     0.000041
      f-1     :     0.000015
      f+2     :     0.000032
      f-2     :     0.000092
      f+3     :     0.000171
      f-3     :     0.000085
      g0      :    -0.000000  g :    -0.000006
      g+1     :    -0.000001
      g-1     :    -0.000000
      g+2     :    -0.000001
      g-2     :    -0.000000
      g+3     :     0.000000
      g-3     :    -0.000001
      g+4     :    -0.000001
      g-4     :    -0.000002

  6 H s       :     0.950283  s :     0.950283
      pz      :     0.015128  p :     0.052253
      px      :     0.017186
      py      :     0.019940
      dz2     :     0.001795  d :     0.007737
      dxz     :     0.001728
      dyz     :     0.001452
      dx2y2   :     0.001114
      dxy     :     0.001648
      f0      :     0.000103  f :     0.000516
      f+1     :     0.000055
      f-1     :     0.000102
      f+2     :     0.000088
      f-2     :     0.000116
      f+3     :     0.000025
      f-3     :     0.000028
      g0      :    -0.000001  g :    -0.000007
      g+1     :    -0.000000
      g-1     :    -0.000002
      g+2     :    -0.000002
      g-2     :    -0.000001
      g+3     :    -0.000000
      g-3     :    -0.000001
      g+4     :    -0.000000
      g-4     :    -0.000000

  7 H s       :     0.950323  s :     0.950323
      pz      :     0.015128  p :     0.052254
      px      :     0.017186
      py      :     0.019940
      dz2     :     0.001795  d :     0.007737
      dxz     :     0.001728
      dyz     :     0.001452
      dx2y2   :     0.001115
      dxy     :     0.001648
      f0      :     0.000103  f :     0.000516
      f+1     :     0.000055
      f-1     :     0.000102
      f+2     :     0.000088
      f-2     :     0.000116
      f+3     :     0.000025
      f-3     :     0.000028
      g0      :    -0.000001  g :    -0.000007
      g+1     :    -0.000000
      g-1     :    -0.000002
      g+2     :    -0.000002
      g-2     :    -0.000001
      g+3     :    -0.000000
      g-3     :    -0.000001
      g+4     :    -0.000000
      g-4     :    -0.000000



                     *******************************
                     * LOEWDIN POPULATION ANALYSIS *
                     *******************************

----------------------
LOEWDIN ATOMIC CHARGES
----------------------
   0 C :   -0.751934
   1 C :    0.571566
   2 O :    0.377291
   3 O :    0.873456
   4 H :   -0.569971
   5 H :   -0.170923
   6 H :   -0.164743
   7 H :   -0.164743

-------------------------------
LOEWDIN REDUCED ORBITAL CHARGES
-------------------------------
  0 C s       :     2.542717  s :     2.542717
      pz      :     0.604179  p :     2.379377
      px      :     0.800457
      py      :     0.974741
      dz2     :     0.111434  d :     1.351303
      dxz     :     0.148500
      dyz     :     0.239981
      dx2y2   :     0.388334
      dxy     :     0.463055
      f0      :     0.023196  f :     0.413542
      f+1     :     0.019857
      f-1     :     0.028142
      f+2     :     0.058371
      f-2     :     0.037261
      f+3     :     0.154235
      f-3     :     0.092481
      g0      :     0.001762  g :     0.060583
      g+1     :     0.005146
      g-1     :     0.010256
      g+2     :     0.004914
      g-2     :     0.005890
      g+3     :     0.000992
      g-3     :     0.005398
      g+4     :     0.012739
      g-4     :     0.013486
      h0      :     0.000158  h :     0.004411
      h+1     :     0.000096
      h-1     :     0.000183
      h+2     :     0.000539
      h-2     :     0.000148
      h+3     :     0.000277
      h-3     :     0.000233
      h+4     :     0.000253
      h-4     :     0.000255
      h+5     :     0.001193
      h-5     :     0.001077

  1 C s       :     2.467917  s :     2.467917
      pz      :     0.820326  p :     2.431769
      px      :     0.803581
      py      :     0.807862
      dz2     :     0.077083  d :     0.436780
      dxz     :     0.031643
      dyz     :     0.106635
      dx2y2   :     0.108779
      dxy     :     0.112640
      f0      :     0.006181  f :     0.085511
      f+1     :     0.009642
      f-1     :     0.013625
      f+2     :     0.008078
      f-2     :     0.010345
      f+3     :     0.017823
      f-3     :     0.019816
      g0      :     0.000310  g :     0.006246
      g+1     :     0.000467
      g-1     :     0.000651
      g+2     :     0.000682
      g-2     :     0.000533
      g+3     :     0.000435
      g-3     :     0.000455
      g+4     :     0.000974
      g-4     :     0.001740
      h0      :     0.000024  h :     0.000211
      h+1     :     0.000006
      h-1     :     0.000020
      h+2     :     0.000004
      h-2     :     0.000016
      h+3     :     0.000023
      h-3     :     0.000017
      h+4     :     0.000014
      h-4     :     0.000008
      h+5     :     0.000041
      h-5     :     0.000037

  2 O s       :     3.213879  s :     3.213879
      pz      :     1.226104  p :     4.169140
      px      :     1.478641
      py      :     1.464395
      dz2     :     0.022130  d :     0.181251
      dxz     :     0.003273
      dyz     :     0.033679
      dx2y2   :     0.055140
      dxy     :     0.067030
      f0      :     0.004949  f :     0.053932
      f+1     :     0.001983
      f-1     :     0.006187
      f+2     :     0.007700
      f-2     :     0.001753
      f+3     :     0.019053
      f-3     :     0.012308
      g0      :     0.000175  g :     0.004146
      g+1     :     0.000016
      g-1     :     0.000600
      g+2     :     0.000363
      g-2     :     0.000267
      g+3     :     0.000099
      g-3     :     0.000381
      g+4     :     0.000908
      g-4     :     0.001339
      h0      :     0.000022  h :     0.000362
      h+1     :     0.000004
      h-1     :     0.000025
      h+2     :     0.000035
      h-2     :     0.000003
      h+3     :     0.000034
      h-3     :     0.000028
      h+4     :     0.000017
      h-4     :     0.000007
      h+5     :     0.000107
      h-5     :     0.000080

  3 O s       :     2.969026  s :     2.969026
      pz      :     1.337263  p :     3.873050
      px      :     1.175554
      py      :     1.360232
      dz2     :     0.028463  d :     0.227445
      dxz     :     0.033993
      dyz     :     0.012074
      dx2y2   :     0.066665
      dxy     :     0.086250
      f0      :     0.004799  f :     0.054433
      f+1     :     0.005537
      f-1     :     0.002608
      f+2     :     0.002367
      f-2     :     0.006550
      f+3     :     0.023038
      f-3     :     0.009535
      g0      :     0.000109  g :     0.002397
      g+1     :     0.000318
      g-1     :     0.000094
      g+2     :     0.000179
      g-2     :     0.000275
      g+3     :     0.000026
      g-3     :     0.000310
      g+4     :     0.000895
      g-4     :     0.000190
      h0      :     0.000018  h :     0.000193
      h+1     :     0.000006
      h-1     :     0.000005
      h+2     :     0.000011
      h-2     :     0.000018
      h+3     :     0.000023
      h-3     :     0.000016
      h+4     :     0.000004
      h-4     :     0.000011
      h+5     :     0.000053
      h-5     :     0.000029

  4 H s       :     0.634644  s :     0.634644
      pz      :     0.130300  p :     0.492821
      px      :     0.147674
      py      :     0.214847
      dz2     :     0.032683  d :     0.356484
      dxz     :     0.048661
      dyz     :     0.066707
      dx2y2   :     0.121866
      dxy     :     0.086568
      f0      :     0.012500  f :     0.084333
      f+1     :     0.004044
      f-1     :     0.004453
      f+2     :     0.000658
      f-2     :     0.021220
      f+3     :     0.018605
      f-3     :     0.022852
      g0      :     0.000060  g :     0.001690
      g+1     :     0.000158
      g-1     :     0.000219
      g+2     :     0.000075
      g-2     :     0.000136
      g+3     :     0.000216
      g-3     :     0.000080
      g+4     :     0.000267
      g-4     :     0.000480

  5 H s       :     0.708477  s :     0.708477
      pz      :     0.074061  p :     0.261311
      px      :     0.109046
      py      :     0.078205
      dz2     :     0.011460  d :     0.173778
      dxz     :     0.046411
      dyz     :     0.020264
      dx2y2   :     0.048209
      dxy     :     0.047434
      f0      :     0.003618  f :     0.027159
      f+1     :     0.002801
      f-1     :     0.000809
      f+2     :     0.001418
      f-2     :     0.004745
      f+3     :     0.008390
      f-3     :     0.005377
      g0      :     0.000006  g :     0.000198
      g+1     :     0.000036
      g-1     :     0.000011
      g+2     :     0.000013
      g-2     :     0.000010
      g+3     :     0.000000
      g-3     :     0.000035
      g+4     :     0.000065
      g-4     :     0.000022

  6 H s       :     0.700019  s :     0.700019
      pz      :     0.105841  p :     0.265589
      px      :     0.070006
      py      :     0.089742
      dz2     :     0.058878  d :     0.172032
      dxz     :     0.032799
      dyz     :     0.034730
      dx2y2   :     0.015562
      dxy     :     0.030063
      f0      :     0.007799  f :     0.026908
      f+1     :     0.001899
      f-1     :     0.005162
      f+2     :     0.003922
      f-2     :     0.005773
      f+3     :     0.001564
      f-3     :     0.000788
      g0      :     0.000036  g :     0.000194
      g+1     :     0.000005
      g-1     :     0.000046
      g+2     :     0.000022
      g-2     :     0.000038
      g+3     :     0.000026
      g-3     :     0.000016
      g+4     :     0.000002
      g-4     :     0.000003

  7 H s       :     0.700020  s :     0.700020
      pz      :     0.105841  p :     0.265589
      px      :     0.070006
      py      :     0.089742
      dz2     :     0.058878  d :     0.172032
      dxz     :     0.032799
      dyz     :     0.034730
      dx2y2   :     0.015562
      dxy     :     0.030063
      f0      :     0.007799  f :     0.026908
      f+1     :     0.001899
      f-1     :     0.005162
      f+2     :     0.003922
      f-2     :     0.005773
      f+3     :     0.001564
      f-3     :     0.000788
      g0      :     0.000036  g :     0.000194
      g+1     :     0.000005
      g-1     :     0.000046
      g+2     :     0.000022
      g-2     :     0.000038
      g+3     :     0.000026
      g-3     :     0.000016
      g+4     :     0.000002
      g-4     :     0.000003



                      *****************************
                      * MAYER POPULATION ANALYSIS *
                      *****************************

  NA   - Mulliken gross atomic population
  ZA   - Total nuclear charge
  QA   - Mulliken gross atomic charge
  VA   - Mayer's total valence
  BVA  - Mayer's bonded valence
  FA   - Mayer's free valence

  ATOM       NA         ZA         QA         VA         BVA        FA
  0 C      5.4396     6.0000     0.5604     4.3150     4.3150    -0.0000
  1 C      5.8333     6.0000     0.1667     4.0598     4.0598     0.0000
  2 O      8.4775     8.0000    -0.4775     2.0403     2.0403    -0.0000
  3 O      8.5245     8.0000    -0.5245     2.2302     2.2302     0.0000
  4 H      0.6808     1.0000     0.3192     0.9836     0.9836     0.0000
  5 H      1.0227     1.0000    -0.0227     1.0061     1.0061     0.0000
  6 H      1.0108     1.0000    -0.0108     1.0152     1.0152    -0.0000
  7 H      1.0108     1.0000    -0.0108     1.0152     1.0152    -0.0000

  Mayer bond orders larger than 0.100000
B(  0-C ,  1-C ) :   1.1010 B(  0-C ,  2-O ) :   1.8633 B(  0-C ,  3-O ) :   1.1777 
B(  1-C ,  5-H ) :   1.0126 B(  1-C ,  6-H ) :   0.9421 B(  1-C ,  7-H ) :   0.9420 
B(  2-O ,  3-O ) :   0.1073 B(  3-O ,  4-H ) :   0.9072 

-------
TIMINGS
-------

Total SCF time: 0 days 0 hours 7 min 56 sec 

Total time                  ....     476.083 sec
Sum of individual times     ....     454.611 sec  ( 95.5%)

SCF preparation             ....       0.346 sec  (  0.1%)
Fock matrix formation       ....     451.724 sec  ( 94.9%)
  Startup                   ....       0.034 sec  (  0.0% of F)
  Coulomb formation         ....     467.594 sec  (103.5% of F)
  XC integration            ....       4.844 sec  (  1.1% of F)
    XC Preparation          ....       0.000 sec  (  0.0% of XC)
    Basis function eval.    ....       0.410 sec  (  8.5% of XC)
    Density eval.           ....       1.005 sec  ( 20.8% of XC)
    XC-Functional eval.     ....       0.083 sec  (  1.7% of XC)
    XC-Potential eval.      ....       2.254 sec  ( 46.5% of XC)
Diagonalization             ....       0.000 sec  (  0.0%)
Density matrix formation    ....       0.379 sec  (  0.1%)
Total Energy calculation    ....       0.086 sec  (  0.0%)
Population analysis         ....       0.107 sec  (  0.0%)
Orbital Transformation      ....       0.353 sec  (  0.1%)
Orbital Orthonormalization  ....       0.000 sec  (  0.0%)
DIIS solution               ....       1.009 sec  (  0.2%)
SOSCF solution              ....       0.608 sec  (  0.1%)
Finished LeanSCF after 476.2 sec

Maximum memory used throughout the entire LEANSCF-calculation: 91.8 MB


           ************************************************************
           *        Program running with 8 parallel MPI-processes     *
           *              working on a common directory               *
           ************************************************************

------------------------------------------------------------------------------
                         ORCA PROPERTY INTEGRAL CALCULATIONS
------------------------------------------------------------------------------

GBWName                                   ... /cluster/projects/nn14654k/ylvaos/basis_set_n_funcs/functionals/N12/CH3COOH/inp/CH3COOH_N12_pc4.gbw
Number of atoms                           ...      8
Number of basis functions                 ...    688
Max core memory                           ...   4096 MB

Dipole integrals                          ... YES
Quadrupole integrals                      ... YES
Linear momentum integrals                 ...  NO
Angular momentum integrals                ...  NO
Higher moments length integrals           ...  NO
Higher moments velocity integrals         ...  NO
Kinetic energy integrals                  ...  NO
GIAO right hand sides                     ...  NO
GIAO dipole derivative integrals          ...  NO
SOC integrals                             ...  NO
EPR diamagnetic integrals (GIAO)          ...  NO
EPR gauge integrals                       ...  NO
Field gradient integrals                  ...  NO (   0 nuclei)
Spin-dipole/Fermi contact integrals       ...  NO (   0 nuclei)
Contact density integrals                 ...  NO (   0 nuclei)
Nucleus-orbit integrals                   ...  NO (   0 nuclei)
Geometric perturbations                   ...  NO (   8 nuclei)

Choice of electric origin   ... Center of mass
Position of electric origin ... ( -0.0657,  0.0975,  0.0000) 
Choice of magnetic origin   ... GIAO
Position of magnetic origin ... (  0.0000,  0.0000,  0.0000) 

Calculating integrals                     ... Electric Dipole (Length)     done (  0.0 sec)
Calculating integrals                     ... Electric Quadrupole (Length) done (  0.0 sec)

Property integrals calculated in   0.1 sec

Maximum memory used throughout the entire PROPINT-calculation: 62.8 MB
------------------------------------------------------------------------------
                           ORCA ORBITAL LOCALIZATION
------------------------------------------------------------------------------

Input orbitals are from                  ... /cluster/projects/nn14654k/ylvaos/basis_set_n_funcs/functionals/N12/CH3COOH/inp/CH3COOH_N12_pc4.gbw
Output orbitals are to                   ... /cluster/projects/nn14654k/ylvaos/basis_set_n_funcs/functionals/N12/CH3COOH/inp/CH3COOH_N12_pc4.loc
Max. number of iterations                ... 128
Localizations seeded randomly            ... on
Convergence tolerance                    ... 1.000e-06
Threshold for strong local MOs           ... 9.500e-01
Threshold for bond MOs                   ... 8.500e-01
Operator                                 ... 0
Orbital range for localization           ... 4 to 15
Localization criterion                   ... NEW-BOYS
Doing the dipole integrals               ... o.k.
Initial value of the localization sum :    58.717881
ITERATION   0 : L=   78.4849405940 DL=  1.98e+01 (AVERGE_DL)=    0.5472667505 
ITERATION   1 : L=   80.8235255299 DL=  2.34e+00 (AVERGE_DL)=    0.1882368324 
ITERATION   2 : L=   80.9777403614 DL=  1.54e-01 (AVERGE_DL)=    0.0483382701 
ITERATION   3 : L=   80.9993751464 DL=  2.16e-02 (AVERGE_DL)=    0.0181052416 
ITERATION   4 : L=   81.0050503161 DL=  5.68e-03 (AVERGE_DL)=    0.0092729402 
ITERATION   5 : L=   81.0067553315 DL=  1.71e-03 (AVERGE_DL)=    0.0050826732 
ITERATION   6 : L=   81.0077193106 DL=  9.64e-04 (AVERGE_DL)=    0.0038217461 
ITERATION   7 : L=   81.0085400570 DL=  8.21e-04 (AVERGE_DL)=    0.0035264078 
ITERATION   8 : L=   81.0092785951 DL=  7.39e-04 (AVERGE_DL)=    0.0033451415 
ITERATION   9 : L=   81.0099125188 DL=  6.34e-04 (AVERGE_DL)=    0.0030991780 
ITERATION  10 : L=   81.0104254389 DL=  5.13e-04 (AVERGE_DL)=    0.0027877438 
ITERATION  11 : L=   81.0108189277 DL=  3.93e-04 (AVERGE_DL)=    0.0024417108 
ITERATION  12 : L=   81.0111076672 DL=  2.89e-04 (AVERGE_DL)=    0.0020916123 
ITERATION  13 : L=   81.0113120839 DL=  2.04e-04 (AVERGE_DL)=    0.0017598928 
ITERATION  14 : L=   81.0114527672 DL=  1.41e-04 (AVERGE_DL)=    0.0014599880 
ITERATION  15 : L=   81.0115474766 DL=  9.47e-05 (AVERGE_DL)=    0.0011979106 
ITERATION  16 : L=   81.0116101587 DL=  6.27e-05 (AVERGE_DL)=    0.0009745407 
ITERATION  17 : L=   81.0116511025 DL=  4.09e-05 (AVERGE_DL)=    0.0007876292 
ITERATION  18 : L=   81.0116775784 DL=  2.65e-05 (AVERGE_DL)=    0.0006333641 
ITERATION  19 : L=   81.0116945662 DL=  1.70e-05 (AVERGE_DL)=    0.0005073380 
ITERATION  20 : L=   81.0117054007 DL=  1.08e-05 (AVERGE_DL)=    0.0004051653 
ITERATION  21 : L=   81.0117122788 DL=  6.88e-06 (AVERGE_DL)=    0.0003228222 
ITERATION  22 : L=   81.0117166294 DL=  4.35e-06 (AVERGE_DL)=    0.0002567446 
ITERATION  23 : L=   81.0117193737 DL=  2.74e-06 (AVERGE_DL)=    0.0002039126 
ITERATION  24 : L=   81.0117211012 DL=  1.73e-06 (AVERGE_DL)=    0.0001617811 
ITERATION  25 : L=   81.0117221862 DL=  1.09e-06 (AVERGE_DL)=    0.0001282184 
ITERATION  26 : L=   81.0117228673 DL=  6.81e-07 (AVERGE_DL)=    0.0001015858 
LOCALIZATION SUM CONVERGED


--------------------------------------------------------------------------------
                    LOCALIZED MOLECULAR ORBITAL COMPOSITIONS
--------------------------------------------------------------------------------

The Mulliken populations for each LMO on each atom are computed
The LMO`s will be ordered according to atom index and type
  (A) Strongly localized MO`s have populations of >=0.950 on one atom
  (B) Two center bond orbitals have populations of >=0.850 on two atoms
  (C) Other MO`s are considered to be `delocalized`

FOUND  -   2 strongly local MO`s
       -  10 two center bond MO`s
       -   0 significantly delocalized MO`s

Rather strongly localized orbitals:
MO   5:   3O  -   0.961394
MO   4:   2O  -   0.952367
Bond-like localized orbitals:
MO  15:   7H  -   0.521624  and   1C  -   0.464419
MO  14:   6H  -   0.521595  and   1C  -   0.464507
MO  13:   5H  -   0.530828  and   1C  -   0.501570
MO  12:   4H  -   0.315388  and   3O  -   0.690425
MO  11:   3O  -   0.714078  and   0C  -   0.292879
MO  10:   3O  -   0.892001  and   0C  -   0.095420
MO   9:   2O  -   0.677774  and   0C  -   0.320700
MO   8:   2O  -   0.678293  and   0C  -   0.319850
MO   7:   2O  -   0.947813  and   0C  -   0.049683
MO   6:   1C  -   0.483970  and   0C  -   0.513988
Localized MO's were stored in: /cluster/projects/nn14654k/ylvaos/basis_set_n_funcs/functionals/N12/CH3COOH/inp/CH3COOH_N12_pc4.loc

-------------------------   --------------------
FINAL SINGLE POINT ENERGY      -229.140372287772
-------------------------   --------------------



           ************************************************************
           *        Program running with 8 parallel MPI-processes     *
           *              working on a common directory               *
           ************************************************************

------------------------------------------------------------------------------
                              ORCA PROPERTY CALCULATIONS
------------------------------------------------------------------------------

GBWName                                 ... /cluster/projects/nn14654k/ylvaos/basis_set_n_funcs/functionals/N12/CH3COOH/inp/CH3COOH_N12_pc4.gbw
Number of atoms                         ...      8
Number of basis functions               ...    688
Max core memory                         ...   4096 MB

Electric properties:
Dipole moment                           ... YES
Quadrupole moment                       ... YES
Static polarizability (Dipole/Dipole)   ...  NO
Static polarizability (Dipole/Quad.)    ...  NO
Static polarizability (Quad./Quad.)     ...  NO
Static polarizability (Velocity)        ...  NO
Static hyperpolarizability              ...  NO

Atomic electric properties:
Dipole moment                           ...  NO
Quadrupole moment                       ...  NO
Static polarizability                   ...  NO

Choice of electric origin               ... Center of mass
Position of electric origin             ...    -0.065707     0.097461     0.000000

General magnetic properties:
Magnetizability                         ...  NO

EPR properties:
g-Tensor (aka g-matrix)                 ...  NO
Zero-Field splitting spin-orbit         ...  NO
Zero-field splitting spin-spin          ...  NO
Hyperfine couplings                     ...  NO (   0 nuclei)
Quadrupole couplings                    ...  NO (   0 nuclei)
Contact density                         ...  NO (   0 nuclei)

NMR properties:
Chemical shifts                         ...  NO (   0 nuclei)
Spin-rotation constants                 ...  NO (   0 nuclei)
Spin-spin couplings                     ...  NO (   0 nuclei,    0 pairs)

Choice of magnetic origin               ... GIAO
Position of magnetic origin             ...     0.000000     0.000000     0.000000

Properties with geometric perturbations:
SCF Hessian                             ...  NO
IR spectrum                             ...  NO
VCD spectrum                            ...  NO
X-ray spectroscopy properties:
SCF XES/XAS/RIXS spectra                ...  NO

SCF SOC stabilization energy            ...  NO
Diagonal Born-Oppenheimer correction    ...  NO

-------------
DIPOLE MOMENT
-------------

Method             : SCF
Type of density    : Electron Density
Multiplicity       :   1
Irrep              :   0
Energy             :  -229.1403722877716973 Eh
Basis              : AO
                                X                 Y                 Z
Electronic contribution:     -2.189407113       2.408459494       0.000000012
Nuclear contribution   :      2.102617427      -3.118765285       0.000000000
                        -----------------------------------------
Total Dipole Moment    :     -0.086789686      -0.710305791       0.000000012
                        -----------------------------------------
Magnitude (a.u.)       :      0.715588405
Magnitude (Debye)      :      1.818881178



--------------------
Rotational spectrum 
--------------------
 
Rotational constants in cm-1:             0.373252             0.316126             0.176788 
Rotational constants in MHz :         11189.819630          9477.229268          5299.974115 

Dipole components along the rotational axes: 
x,y,z [a.u.] :    -0.395407    -0.596422     0.000000 
x,y,z [Debye]:    -1.005046    -1.515985     0.000000 

 

Dipole moment calculation done in   0.0 sec 

-----------------
QUADRUPOLE MOMENT
-----------------

Method             : SCF
Type of density    : Electron Density
Multiplicity       :   1
Irrep              :   0
Energy             :  -229.1403722877716973 Eh
Basis              : AO

                XX              YY              ZZ              XY              XZ              YZ
  NUC      103.447904006    93.335807526     5.552847104   -15.402641721     0.000000000     0.000000000
  EL      -118.361500626  -113.620012666   -22.693177118    12.666111426     0.000000014    -0.000000076
  TOT      -14.913596620   -20.284205140   -17.140330014    -2.736530295     0.000000014    -0.000000076 (a.u.)
           -20.059297499   -27.282949633   -23.054330068    -3.680726835     0.000000019    -0.000000102 (Buckingham)

diagonalized tensor:
           -21.432887972   -17.140330014   -13.764913788 (a.u.)
           -28.827967327   -23.054330068   -18.514279805 (Buckingham)
           -16.087324781     1.233586996    14.853737785 (traceless form in Buckingham)

             0.387043469     0.000000018     0.922061469
             0.922061469     0.000000009    -0.387043469
             0.000000015    -1.000000000     0.000000013
        
Isotropic quadrupole :   -17.446043925

Quadrupole moment calculation done in   0.0 sec (  0.0 sec for integrals)

Maximum memory used throughout the entire PROP-calculation: 60.4 MB

--------------------------------
SUGGESTED CITATIONS FOR THIS RUN
--------------------------------

Below you find a list of papers that are relevant to this ORCA run
We neither can nor want to force you to cite these papers, but we appreciate if you do
You receive ORCA, which is the product of decades of hard work by many enthusiastic individuals, for free
The only thing we kindly ask in return is that you cite our papers,
We deeply appreciate it, if you show your appreciation for ORCA by not just citing the generic ORCA reference.

Please note that relegating all ORCA citations to the supporting information does *not* help us.
SI sections are not indexed - citations you put there will not count into any citation statistics
But we need these citations in order to attract the funding resources that allow us to do what we are doing

Therefore, if you are a happy ORCA user, please consider citing a few of the papers listed below in the main body of your paper

In addition to the list printed below, the program has created the file /cluster/projects/nn14654k/ylvaos/basis_set_n_funcs/functionals/N12/CH3COOH/inp/CH3COOH_N12_pc4.bibtex that contains the list in bibtex format
You can import this file easily into all common literature databanks and citation aid programs

It goes without saying that in many instances, there are alternative algorithms to achieve similar
results as the ones you have gotten from ORCA. It is, of course, also the case that in some instances
ORCA just re-implements algorithms worked out by others. We are fully aware of that and we are also
fully appreciative of our colleagues work. Hence this citation list should not be read as indicating
that the listed papers, which are focused on our own work, are the only ones worth citing. It simply
meant to make it easier for users to cite ORCA specific papers. It is not a substitute for doing your
own literature research and citing the relevant literature in a scientifically appropriate manner.

List of essential papers. We consider these as the minimum necessary citations

  1. Neese, F.
     Software update: the ORCA program system, version 6.0
     WIRES Comput. Molec. Sci. 2025 15(1), e70019
     doi.org/10.1002/wcms.70019

List of papers to cite with high priority. The work reported in these papers was absolutely
necessary for this run to complete.
Our perspective: the developers of density functionals and basis sets usually get cited in chemistry papers
Good! But without the algorithms to do something with them, the functionals or basis sets would not do anything.
Hence, in our opinion, the algorithm design and method developments papers are equally worthy of getting cited

  1. Lehtola, S.; Steigemann, C.; Oliveira, M.; Marques, M.
     Recent developments in Libxc - A comprehensive library of functionals for density functional theory
     Software X 2018 7 , 
     doi.org/10.1016/j.softx.2017.11.002
  2. Neese, F.
     The SHARK Integral Generation and Digestion System
     J. Comp. Chem. 2022 44(3), 381
     doi.org/10.1002/jcc.26942

List of suggested additional citations. These are papers that are important in the 'surrounding' of 
of this run, or papers that preceded the highly important papers. If you like your results we are grateful for a citation.

  1. Neese, F.
     The ORCA program system
     WIRES Comput. Molec. Sci. 2012 2(1), 73-78
     doi.org/10.1002/wcms.81
  2. Neese, F.
     Software update: the ORCA program system, version 4.0
     WIRES Comput. Molec. Sci. 2018 8(1), 1-6
     doi.org/10.1002/wcms.1327
  3. Neese, F.; Wennmohs, F.; Becker, U.; Riplinger, C.
     The ORCA quantum chemistry program package
     J. Chem. Phys. 2020 152(22), 224108
     doi.org/10.1063/5.0004608
  4. Neese, F.
     Software update: The ORCA program system—Version 5.0
     WIRES Comput. Molec. Sci. 2022 12(1), e1606
     doi.org/10.1002/wcms.1606

List of optional additional citations

  1. Neese, F.
     Approximate second-order SCF convergence for spin unrestricted wavefunctions
     Chem. Phys. Lett. 2000 325(1-3), 93-98
     doi.org/10.1016/s0009-2614(00)00662-x

Timings for individual modules:

Sum of individual times          ...      478.989 sec (=   7.983 min)
Startup calculation              ...        1.029 sec (=   0.017 min)   0.2 %
SCF iterations                   ...      477.119 sec (=   7.952 min)  99.6 %
Property integrals               ...        0.439 sec (=   0.007 min)   0.1 %
Property calculations            ...        0.350 sec (=   0.006 min)   0.1 %
Orbital localization             ...        0.052 sec (=   0.001 min)   0.0 %
                             ****ORCA TERMINATED NORMALLY****
TOTAL RUN TIME: 0 days 0 hours 7 minutes 59 seconds 748 msec
