
                                 *****************
                                 * O   R   C   A *
                                 *****************

                                            #,                                       
                                            ###                                      
                                            ####                                     
                                            #####                                    
                                            ######                                   
                                           ########,                                 
                                     ,,################,,,,,                         
                               ,,#################################,,                 
                          ,,##########################################,,             
                       ,#########################################, ''#####,          
                    ,#############################################,,   '####,        
                  ,##################################################,,,,####,       
                ,###########''''           ''''###############################       
              ,#####''   ,,,,##########,,,,          '''####'''          '####       
            ,##' ,,,,###########################,,,                        '##       
           ' ,,###''''                  '''############,,,                           
         ,,##''                                '''############,,,,        ,,,,,,###''
      ,#''                                            '''#######################'''  
     '                                                          ''''####''''         
             ,#######,   #######,   ,#######,      ##                                
            ,#'     '#,  ##    ##  ,#'     '#,    #''#        ,####,    ,#,          
            ##       ##  ##   ,#'  ##            #'  '#       #'       ,# #          
            ##       ##  #######   ##           ,######,      #####,      #          
            '#,     ,#'  ##    ##  '#,     ,#' ,#      #,     #,   #      #          
             '#######'   ##     ##  '#######'  #'      '#     '####' #    #          



                #########################################################
                #                        -***-                          #
                #          Department of theory and spectroscopy        #
                #                                                       #
                #                      Frank Neese                      #
                #                                                       #
                #     Directorship, Architecture, Infrastructure        #
                #                    SHARK, DRIVERS                     #
                #        Core code/Algorithms in most modules           #
                #                                                       #
                #        Max Planck Institute fuer Kohlenforschung      #
                #                Kaiser Wilhelm Platz 1                 #
                #                 D-45470 Muelheim/Ruhr                 #
                #                      Germany                          #
                #                                                       #
                #                  All rights reserved                  #
                #                        -***-                          #
                #########################################################


                         Program Version 6.1.1  -  RELEASE   -
                                (GIT: $487d211c$)
                          ($2025-11-21 10:33:24 +0100$)


 With contributions from (in alphabetic order):
[Max-Planck-Institut fuer Kohlenforschung]                               
  Daniel Aravena         : Magnetic Suceptibility                        
  Michael Atanasov       : Ab Initio Ligand Field Theory (pilot matlab implementation)
  Alexander A. Auer      : GIAO ZORA, VPT2 properties, NMR spectrum      
  Ute Becker             : All parallelization in ORCA, NUMFREQ, NUMCALC 
  Giovanni Bistoni       : ED, misc. LED, open-shell LED, HFLD           
  Dmytro Bykov           : pre 5.0 version of the SCF Hessian            
  Marcos Casanova-Páez   : Triplet and SCS-CIS(D). UHF-(DLPNO)-IP/EA/STEOM-CCSD. UHF-CVS-IP/STEOM-CCSD   
  Vijay G. Chilkuri      : MRCI spin determinant printing, contributions to CSF-ICE 
  Pauline Colinet        : FMM embedding                                 
  Dipayan Datta          : RHF DLPNO-CCSD density                        
  Achintya Kumar Dutta   : EOM-CC, STEOM-CC                              
  Nicolas Foglia         : Exact transition moments, OPA infrastructure, MCD improvements    
  Dmitry Ganyushin       : Spin-Orbit,Spin-Spin,Magnetic field MRCI      
  Miquel Garcia-Rates    : C-PCM and meta-GGA Hessian, CCSD/C-PCM, Gaussian charge scheme 
  Tiago L. C. Gouveia    : GS-ROHF, GS-ROCIS                             
  Yang Guo               : DLPNO-NEVPT2, F12-NEVPT2, CIM, IAO-localization        
  Andreas Hansen         : Spin unrestricted coupled pair/coupled cluster methods 
  Ingolf Harden          : AUTO-CI MPn and infrastructure                
  Benjamin Helmich-Paris : MC-RPA, TRAH-(SCF,CASSCF), AVAS, COSX integrals, SCF dyn. polar., MC-PDFT, srDFT 
  Lee Huntington         : MR-EOM, pCC                                   
  Robert Izsak           : Overlap fitted RIJCOSX, COSX-SCS-MP3, EOM     
  Riya Kayal             : Wick's Theorem for AUTO-CI, AUTO-CI UHF-CCSDT 
  Emily Kempfer          : AUTO-CI RHF CISDT and CCSDT, approximate NEVPT4
  Christian Kollmar      : KDIIS, OOCD, Brueckner-CCSD(T), CCSD density, CASPT2, CASPT2-K, improved NEVPT2 
  Axel Koslowski         : Symmetry handling                             
  Simone Kossmann        : meta-GGA functionals, TD-DFT gradient, OOMP2, (MP2 Hessian; deprecated post 5.0) 
  Lucas Lang             : DCDCAS, Hyperfine gauge corrections, ICE-SOC+SSC
  Marvin Lechner         : AUTO-CI (C++ implementation), FIC-MRCC        
  Spencer Leger          : CASSCF response                               
  Dagmar Lenk            : GEPOL surface, SMD, ORCA-2-JSON               
  Dimitrios Liakos       : Extrapolation schemes; Compound Job, Property file
  Dimitrios Manganas     : Further ROCIS development; embedding schemes. LFT, Crystal Embedding 
  Dimitrios Pantazis     : SARC Basis sets                               
  Anastasios Papadopoulos: AUTO-CI, single reference methods and gradients 
  Taras Petrenko         : pre 6.0 DFT Hessian and TD-DFT gradient,  ECA, NRVS 
  Petra Pikulova         : Analytic Raman intensities                    
  Peter Pinski           : DLPNO-MP2, DLPNO-MP2 Gradient                 
  Shashank Vittal Rao    : ES-AILFT, MagRelax                            
  Christoph Reimann      : Effective Core Potentials                     
  Marius Retegan         : Local ZFS, SOC                                
  Christoph Riplinger    : Optimizer, TS searches, QM/MM, DLPNO-CCSD(T), (RO)-DLPNO pert. Triples 
  Michael Roemelt        : Original ROCIS implementation, recursive CI coupling coefficients
  Masaaki Saitow         : Open-shell DLPNO-CCSD energy and density      
  Barbara Sandhoefer     : DKH picture change effects                    
  Yorick L. A. Schmerwitz: GMF and freeze-and-release deltaSCF, NEB S-IDPP initial path                    
  Kantharuban Sivalingam : CASSCF convergence/infrastructure, NEVPT2, NEVPT3, NEVPT4(SD), FIC-MRCI and CEPA variants
  Bernardo de Souza      : ESD, SOC TD-DFT                               
  Georgi L. Stoychev     : AutoAux, RI-MP2 NMR, DLPNO-MP2 response, X2C  
  Van Anh Tran           : RI-MP2 g-tensors                              
  Willem Van den Heuvel  : Paramagnetic NMR                              
  Zikuan Wang            : NOTCH, Electric field optimization            
  Frank Wennmohs         : Technical directorship and infrastructure     
  Hang Xu                : AUTO-CI-Response properties                   
                                                                         
[FACCTs GmbH]                                                            
  Markus Bursch, Nicolas Foglia, Miquel Garcia-Rates, Ingolf Harden, Hagen Neugebauer, Anastasios Papadopoulos, 
  Christoph Riplinger, Bernardo de Souza, Georgi L. Stoychev                                                    
                                                                 
  APM, various basis sets, CI-OPT, improved COSX, DLPNO-Multilevel,           
  DOCKER, DRACO, updates on ESD, Fragmentator, GOAT, IRC, LR-CPCM, L-BFGS, MBIS, meta-GGA TD-DFT gradient, ML-optimized integration grids, 
  MM, NACMEs, nearIR, NEB, NEB-TS, NL-DFT gradient (VV10), 2- and 3-layer-ONIOM, interface openCOSMO-RS, QMMM,   
  Crystal-QMMM, RESP, rigid body optimization, SF, symmetry and pop. for TD-DFT, various functionals, SOLVATOR                                   
                                                                         
[Other institutions]                                                     
  V. Asgeirsson          : NEB                                           
  Christoph Bannwarth    : sTDA-DFT, sTD-DFT, PBEh-3c, B97-3c, D3        
  Giovanni Bistoni       : ETS/NOCV, ADLD/ADEX, COVALED                  
  Martin Brehm           : Molecular dynamics                            
  Ronald Cardenas        : ETS/NOCV                                      
  Martina Colucci        : COVALED                                       
  Sebastian Ehlert       : rSCAN, r2SCAN, r2SCAN-3c, D4, dhf basis sets  
  Marvin Friede          : D4 for Fr, Ra, Ac-Lr                          
  Lars Goerigk           : TD-DFT with DH, B97 family of functionals     
  Stefan Grimme          : VdW corrections, initial TS optimization, DFT functionals, gCP, sTDA/sTD-DF 
  Waldemar Hujo          : DFT-NL                                        
  H. Jonsson             : NEB                                           
  Holger Kruse           : gCP                                           
  Marcel Mueller         : wB97X-3c, vDZP basis set                      
  Hagen Neugebauer       : wr2SCAN, Native XTB                           
  Gianluca Regni         : ADLD/ADEX                                     
  Tobias Risthaus        : pre 6.0 range-separated hybrid DFT and stability analysis
  Lukas Wittmann         : regularized MP2, r2SCAN double-hybrids, wr2SCAN        
                                                                         
We gratefully acknowledge several colleagues who have allowed us to      
interface, adapt or use parts of their codes:                            
  Ed Valeev, F. Pavosevic, A. Kumar             : LibInt (2-el integral package), F12 methods 
  Garnet Chan, S. Sharma, J. Yang, R. Olivares  : DMRG                   
  Ulf Ekstrom                                   : XCFun DFT Library      
  Mihaly Kallay                                 : mrcc  (arbitrary order and MRCC methods)
  Frank Weinhold                                : gennbo (NPA and NBO analysis)           
  Simon Mueller                                 : openCOSMO-RS                            
  Christopher J. Cramer and Donald G. Truhlar   : smd solvation model                     
  S Lehtola, MJT Oliveira, MAL Marques          : LibXC Library                           
  Liviu Ungur et al                             : ANISO software                          


 Your calculation uses the libint2 library for the computation of 2-el integrals
 For citations please refer to: http://libint.valeyev.net

 Your ORCA version has been built with support for libXC version: 7.0.0
 For citations please refer to: https://libxc.gitlab.io

 This ORCA versions uses:
   CBLAS   interface :  Fast vector & matrix operations
   LAPACKE interface :  Fast linear algebra routines
   SCALAPACK package :  Parallel linear algebra routines
   Shared memory     :  Shared parallel matrices
   BLAS/LAPACK       :  OpenBLAS 0.3.29  USE64BITINT DYNAMIC_ARCH NO_AFFINITY Cooperlake SINGLE_THREADED
        Core in use  :  Cooperlake
   Copyright (c) 2011-2014, The OpenBLAS Project


  ***********************************
  * Starting time: Wed May 20 12:33:44 2026
  * Host name:     c1-41
  * Process ID:    3993173
  * Working dir.:  /cluster/projects/nn14654k/ylvaos/basis_set_n_funcs/functionals/N12/CH3COOH/out
  ***********************************

Using LibXC functional ID  82 : Minnesota N12 exchange functional
[ 1]  R. Peverati and D. G. Truhlar.,  J. Chem. Theory Comput. 8, 2310 (2012)
Using LibXC functional ID  80 : Minnesota N12 correlation functional
[ 1]  R. Peverati and D. G. Truhlar.,  J. Chem. Theory Comput. 8, 2310 (2012)
Using LibXC functional ID  82 : Minnesota N12 exchange functional
[ 1]  R. Peverati and D. G. Truhlar.,  J. Chem. Theory Comput. 8, 2310 (2012)
Using LibXC functional ID  80 : Minnesota N12 correlation functional
[ 1]  R. Peverati and D. G. Truhlar.,  J. Chem. Theory Comput. 8, 2310 (2012)
Your calculation utilizes LibXC
by S. Lehtola, C. Steigemann, M. J. T. Oliveira & M. A. L. Marques
Please cite in your paper:
Lehtola, S.; Steigemann, C.; Oliveira, M.J.T.; Marques, M. A. L. Software X, 7, (2018), 1.
   

================================================================================

----- Orbital basis set information -----
Your calculation utilizes the basis: def2-TZVP
   F. Weigend and R. Ahlrichs, Phys. Chem. Chem. Phys. 7, 3297 (2005).

================================================================================
                                        WARNINGS
                       Please study these warnings very carefully!
================================================================================


================================================================================
                                       INPUT FILE
================================================================================
NAME = /cluster/projects/nn14654k/ylvaos/basis_set_n_funcs/functionals/N12/CH3COOH/inp/CH3COOH_N12_def2tzvp.inp
|  1> ! dft def2-TZVP TightSCF
|  2> %pal nprocs 8 end
|  3> 
|  4> %loc
|  5>   LocMet NewBoys
|  6>   Occ true
|  7> end
|  8> 
|  9> %method
| 10>   exchange gga_x_N12
| 11>   correlation gga_c_N12
| 12> end
| 13> 
| 14> %elprop
| 15>   Dipole true
| 16>   Quadrupole true
| 17> end
| 18> 
| 19> * xyz 0 1
| 20> C    0.000000000000   0.154560000000   0.000000000000
| 21> C    1.073776000000  -0.892748000000   0.000000000000
| 22> O    0.166384000000   1.360084000000   0.000000000000
| 23> O   -1.236449000000  -0.415036000000   0.000000000000
| 24> H   -1.867646000000   0.333582000000   0.000000000000
| 25> H    2.048189000000  -0.408135000000   0.000000000000
| 26> H    0.968661000000  -1.528353000000   0.881747000000
| 27> H    0.968661000000  -1.528353000000  -0.881747000000
| 28> *
| 29> 
| 30> 
| 31>                          ****END OF INPUT****
================================================================================

                       ****************************
                       * Single Point Calculation *
                       ****************************

---------------------------------
CARTESIAN COORDINATES (ANGSTROEM)
---------------------------------
  C      0.000000    0.154560    0.000000
  C      1.073776   -0.892748    0.000000
  O      0.166384    1.360084    0.000000
  O     -1.236449   -0.415036    0.000000
  H     -1.867646    0.333582    0.000000
  H      2.048189   -0.408135    0.000000
  H      0.968661   -1.528353    0.881747
  H      0.968661   -1.528353   -0.881747

----------------------------
CARTESIAN COORDINATES (A.U.)
----------------------------
  NO LB      ZA    FRAG     MASS         X           Y           Z
   0 C     6.0000    0    12.011    0.000000    0.292076    0.000000
   1 C     6.0000    0    12.011    2.029143   -1.687049    0.000000
   2 O     8.0000    0    15.999    0.314420    2.570186    0.000000
   3 O     8.0000    0    15.999   -2.336550   -0.784304    0.000000
   4 H     1.0000    0     1.008   -3.529339    0.630379    0.000000
   5 H     1.0000    0     1.008    3.870516   -0.771263    0.000000
   6 H     1.0000    0     1.008    1.830504   -2.888169    1.666260
   7 H     1.0000    0     1.008    1.830504   -2.888169   -1.666260

--------------------------------
INTERNAL COORDINATES (ANGSTROEM)
--------------------------------
 C      0   0   0     0.000000000000     0.00000000     0.00000000
 C      1   0   0     1.499949647502     0.00000000     0.00000000
 O      1   2   0     1.216951827326   126.42686784     0.00000000
 O      1   2   3     1.361339683113   110.98078396   180.00000000
 H      4   1   2     0.979203024267   105.40175469   180.00000085
 H      2   1   3     1.088269476893   109.27200725     0.00000000
 H      2   1   3     1.092025938913   109.72406365   120.93315147
 H      2   1   3     1.092025938913   109.72406365   239.06684853

---------------------------
INTERNAL COORDINATES (A.U.)
---------------------------
 C      0   0   0     0.000000000000     0.00000000     0.00000000
 C      1   0   0     2.834494048450     0.00000000     0.00000000
 O      1   2   0     2.299705671821   126.42686784     0.00000000
 O      1   2   3     2.572559176322   110.98078396   180.00000000
 H      4   1   2     1.850425545371   105.40175469   180.00000085
 H      2   1   3     2.056531271234   109.27200725     0.00000000
 H      2   1   3     2.063629955684   109.72406365   120.93315147
 H      2   1   3     2.063629955684   109.72406365   239.06684853

---------------------
BASIS SET INFORMATION
---------------------
There are 3 groups of distinct atoms

 Group   1 Type C   : 11s6p2d1f contracted to 5s3p2d1f pattern {62111/411/11/1}
 Group   2 Type O   : 11s6p2d1f contracted to 5s3p2d1f pattern {62111/411/11/1}
 Group   3 Type H   : 5s1p contracted to 3s1p pattern {311/1}

Atom   0C    basis set group =>   1
Atom   1C    basis set group =>   1
Atom   2O    basis set group =>   2
Atom   3O    basis set group =>   2
Atom   4H    basis set group =>   3
Atom   5H    basis set group =>   3
Atom   6H    basis set group =>   3
Atom   7H    basis set group =>   3


           ************************************************************
           *        Program running with 8 parallel MPI-processes     *
           *              working on a common directory               *
           ************************************************************
------------------------------------------------------------------------------
                             ORCA STARTUP CALCULATIONS
------------------------------------------------------------------------------
------------------------------------------------------------------------------
                   ___                                                        
                  /   \      - P O W E R E D   B Y -                         
                 /     \                                                     
                 |  |  |   _    _      __       _____    __    __             
                 |  |  |  | |  | |    /  \     |  _  \  |  |  /  |          
                  \  \/   | |  | |   /    \    | | | |  |  | /  /          
                 / \  \   | |__| |  /  /\  \   | |_| |  |  |/  /          
                |  |  |   |  __  | /  /__\  \  |    /   |      \           
                |  |  |   | |  | | |   __   |  |    \   |  |\   \          
                \     /   | |  | | |  |  |  |  | |\  \  |  | \   \       
                 \___/    |_|  |_| |__|  |__|  |_| \__\ |__|  \__/        
                                                                              
                      - O R C A' S   B I G   F R I E N D -                    
                                      &                                       
                       - I N T E G R A L  F E E D E R -                       
                                                                              
 v1 FN, 2020, v2 2021, v3 2022-2024                                           
------------------------------------------------------------------------------


----------------------
SHARK INTEGRAL PACKAGE
----------------------

Number of atoms                             ...      8
Number of basis functions                   ...    148
Number of shells                            ...     60
Maximum angular momentum                    ...      3
Integral batch strategy                     ... SHARK/LIBINT Hybrid
RI-J (if used) integral strategy            ... SPLIT-RIJ (Revised 2003 algorithm where possible)
Printlevel                                  ...      1
Contraction scheme used                     ... SEGMENTED contraction
Prescreening option                         ... SCHWARTZ
   Thresh                                   ... 2.500e-11
   Tcut                                     ... 2.500e-12
   Tpresel                                  ... 2.500e-12 
Coulomb Range Separation                    ... NOT USED
Exchange Range Separation                   ... NOT USED
Multipole approximations                    ... NOT USED
Finite Nucleus Model                        ... NOT USED
CABS basis                                  ... NOT available
Auxiliary Coulomb fitting basis             ... NOT available
Auxiliary J/K fitting basis                 ... NOT available
Auxiliary Correlation fitting basis         ... NOT available
Auxiliary 'external' fitting basis          ... NOT available

Checking pre-screening integrals            ... done (  0.0 sec) Dimension = 60
   => SHARK Basis and OBASIS are compatible. Storing Pre-screening
Shell pair information
Shell pair cut-off parameter TPreSel        ...   2.5e-12
Total number of shell pairs                 ...      1830
Shell pairs after pre-screening             ...      1796
Total number of primitive shell pairs       ...      5560
Primitive shell pairs kept                  ...      4469
          la=0 lb=0:    501 shell pairs
          la=1 lb=0:    510 shell pairs
          la=1 lb=1:    136 shell pairs
          la=2 lb=0:    251 shell pairs
          la=2 lb=1:    128 shell pairs
          la=2 lb=2:     36 shell pairs
          la=3 lb=0:    128 shell pairs
          la=3 lb=1:     64 shell pairs
          la=3 lb=2:     32 shell pairs
          la=3 lb=3:     10 shell pairs

Checking whether 4 symmetric matrices of dimension 148 fit in memory
:Max Core in MB      =   4096.00
 MB in use           =      4.19
 MB left             =   4091.81
 MB needed           =      0.34
 Data fit in memory  = YES
Calculating Nuclear repulsion               ... done (  0.0 sec) ENN=    120.693288504615 Eh

Diagonalization of the overlap matrix:
Smallest eigenvalue                        ... 4.255e-04
Time for diagonalization                   ...    0.002 sec
Threshold for overlap eigenvalues          ... 1.000e-07
Number of eigenvalues below threshold      ... 0
Time for construction of square roots      ...    0.002 sec
Total time needed                          ...    0.007 sec

-------------------
DFT GRID GENERATION
-------------------

General Integration Accuracy     IntAcc      ... 4.388
Radial Grid Type                 RadialGrid  ... OptM3 with GC (2021)
Angular Grid (max. ang.)         AngularGrid ... 4 (Lebedev-302)
Angular grid pruning method      GridPruning ... 4 (adaptive)
Weight generation scheme         WeightScheme... mBecke (2022)
Basis function cutoff            BFCut       ... 1.0000e-11
Integration weight cutoff        WCut        ... 1.0000e-14
Partially contracted basis set               ... off
Rotationally invariant grid construction     ... off
Angular grids for H and He will be reduced by one unit

Total number of grid points                  ...    37392
Total number of batches                      ...      588
Average number of points per batch           ...       63
Average number of grid points per atom       ...     4674
Grids setup in   0.1 sec
Initializing property integral containers    ... done (  0.0 sec)

SHARK setup successfully completed in   0.2 seconds

Maximum memory used throughout the entire STARTUP-calculation: 12.6 MB


           ************************************************************
           *        Program running with 8 parallel MPI-processes     *
           *              working on a common directory               *
           ************************************************************
-------------------------------------------------------------------------------
                                 ORCA GUESS
                   Start orbitals & Density for SCF / CASSCF
-------------------------------------------------------------------------------

------------
SCF SETTINGS
------------
Hamiltonian:
 Density Functional     Method          .... DFT(GTOs)
  Functional kind                       .... Exchange
  Functional name                       .... Minnesota N12 exchange functional
  Functional family                     .... GGA
  Functional refs                              
    [ 0] R. Peverati and D. G. Truhlar.,  J. Chem. Theory Comput. 8, 2310 (2012), doi: 10.1021/ct3002656
  Functional external parameters        .... 16
    Parameter  0 _CC00      =  1.000000e+00 : _CC00               
    Parameter  1 _CC01      =  5.078800e-01 : _CC01               
    Parameter  2 _CC02      =  1.682330e-01 : _CC02               
    Parameter  3 _CC03      =  1.288870e-01 : _CC03               
    Parameter  4 _CC10      =  8.602110e-02 : _CC10               
    Parameter  5 _CC11      = -1.710080e+01 : _CC11               
    Parameter  6 _CC12      =  6.508140e+01 : _CC12               
    Parameter  7 _CC13      = -7.017260e+01 : _CC13               
    Parameter  8 _CC20      = -3.907550e-01 : _CC20               
    Parameter  9 _CC21      =  5.133920e+01 : _CC21               
    Parameter 10 _CC22      = -1.662200e+02 : _CC22               
    Parameter 11 _CC23      =  1.427380e+02 : _CC23               
    Parameter 12 _CC30      =  4.036110e-01 : _CC30               
    Parameter 13 _CC31      = -3.446310e+01 : _CC31               
    Parameter 14 _CC32      =  7.616610e+01 : _CC32               
    Parameter 15 _CC33      = -2.418340e+00 : _CC33               
  Functional kind                       .... Correlation
  Functional name                       .... Minnesota N12 correlation functional
  Functional family                     .... GGA
  Functional refs                              
    [ 0] R. Peverati and D. G. Truhlar.,  J. Chem. Theory Comput. 8, 2310 (2012), doi: 10.1021/ct3002656
  Functional external parameters        .... 10
    Parameter  0 _css0      =  1.000000e+00 : u^0 coefficient for same-spin correlation
    Parameter  1 _css1      = -5.531700e+00 : u^1 coefficient for same-spin correlation
    Parameter  2 _css2      =  3.079580e+01 : u^2 coefficient for same-spin correlation
    Parameter  3 _css3      = -5.641960e+01 : u^3 coefficient for same-spin correlation
    Parameter  4 _css4      =  3.212500e+01 : u^4 coefficient for same-spin correlation
    Parameter  5 _cos0      =  1.000000e+00 : u^0 coefficient for opposite-spin correlation
    Parameter  6 _cos1      =  3.245110e+00 : u^1 coefficient for opposite-spin correlation
    Parameter  7 _cos2      = -2.528930e+01 : u^2 coefficient for opposite-spin correlation
    Parameter  8 _cos3      =  1.444070e+01 : u^3 coefficient for opposite-spin correlation
    Parameter  9 _cos4      =  1.968700e+01 : u^4 coefficient for opposite-spin correlation
 Gradients option       PostSCFGGA      .... off


General Settings:
 Integral files         IntName         .... /cluster/projects/nn14654k/ylvaos/basis_set_n_funcs/functionals/N12/CH3COOH/inp/CH3COOH_N12_def2tzvp
 Hartree-Fock type      HFTyp           .... RHF
 Total Charge           Charge          ....    0
 Multiplicity           Mult            ....    1
 Number of Electrons    NEL             ....   32
 Basis Dimension        Dim             ....  148
 Nuclear Repulsion      ENuc            ....    120.6932885046 Eh

Convergence Acceleration:
 AO-DIIS                CNVDIIS         .... on
   Start iteration      DIISMaxIt       ....    12
   Startup error        DIISStart       ....  0.200000
   # of expansion vecs  DIISMaxEq       ....     5
   Bias factor          DIISBfac        ....   1.050
   Max. coefficient     DIISMaxC        ....  10.000
 MO-DIIS                CNVKDIIS        .... off
 Trust-Rad. Augm. Hess. CNVTRAH         .... auto
   Auto Start mean grad. ratio tolernc. ....  1.125000
   Auto Start start iteration           ....    50
   Auto Start num. interpolation iter.  ....    10
   Max. Number of Micro iterations      ....    24
   Max. Number of Macro iterations      .... Maxiter - #DIIS iter
   Number of Davidson start vectors     ....     2
   Converg. threshold    (grad. norm)   ....   1.000e-05
   Grad. Scal. Fac. for Micro threshold ....   0.100
   Minimum threshold for Micro iter.    ....   1.000e-02
   NR start threshold (gradient norm)   ....   1.000e-04
   Initial trust radius                 ....   0.400
   Minimum AH scaling param. (alpha)    ....   1.000
   Maximum AH scaling param. (alpha)    .... 1000.000
   Quad. conv. algorithm                .... NR
   White noise on init. David. guess    .... on
   Maximum white noise                  ....   0.010
   Pseudo random numbers                .... off
   Inactive MOs                         .... canonical
   Orbital update algorithm             .... Taylor
   Preconditioner                       .... Diag
   Full preconditioner red. dimension   ....   250
 SOSCF                 CNVSOSCF           .... on
   Start iteration     SOSCFMaxIt         ....   150
   Startup grad/error  SOSCFStart         ....  0.003300
   Hessian update      SOSCFHessUp        .... L-BFGS
   Autom. constraints  SOSCFAutoConstrain .... off
 Level Shifting         CNVShift        .... on
   Level shift para.    LevelShift      ....    0.2500
   Turn off err/grad.   ShiftErr        ....    0.0010
 Zerner damping         CNVZerner       .... off
 Static damping         CNVDamp         .... on
   Fraction old density DampFac         ....    0.7000
   Max. Damping (<1)    DampMax         ....    0.9800
   Min. Damping (>=0)   DampMin         ....    0.0000
   Turn off err/grad.   DampErr         ....    0.1000

SCF Procedure:
 Maximum # iterations   MaxIter         ....   125
 SCF integral mode      SCFMode         .... Direct
   Integral package                     .... SHARK and LIBINT hybrid scheme
 Reset frequency        DirectResetFreq ....    20
 Integral Threshold     Thresh          ....  2.500e-11 Eh
 Primitive CutOff       TCut            ....  2.500e-12 Eh

Convergence Tolerance:
 Convergence Check Mode ConvCheckMode   .... Total+1el-Energy
 Convergence forced     ConvForced      .... 0
 Energy Change          TolE            ....  1.000e-08 Eh
 1-El. energy change                    ....  1.000e-05 Eh
 Orbital Gradient       TolG            ....  1.000e-05
 Orbital Rotation angle TolX            ....  1.000e-05
 DIIS Error             TolErr          ....  5.000e-07

------------------------------
INITIAL GUESS: MODEL POTENTIAL
------------------------------
Loading Hartree-Fock densities                     ... done
Calculating cut-offs                               ... done
Initializing the effective Hamiltonian             ... done
Setting up the integral package (SHARK)            ... done
Starting the Coulomb interaction                   ... done (   0.0 sec)
Making the grid                                    ... done (   0.0 sec)
Mapping shells                                     ... done
Starting the XC term evaluation                    ... done (   0.0 sec)
  promolecular density results
     # of electrons  =     31.997224895
     EX              =    -27.201420021
     EC              =     -1.705860962
     EX+EC           =    -28.907280983
Transforming the Hamiltonian                       ... done (   0.0 sec)
Diagonalizing the Hamiltonian                      ... done (   0.0 sec)
Back transforming the eigenvectors                 ... done (   0.0 sec)
Now organizing SCF variables                       ... done
                      ------------------
                      INITIAL GUESS DONE (   0.1 sec)
                      ------------------
             **** ENERGY FILE WAS UPDATED (/cluster/projects/nn14654k/ylvaos/basis_set_n_funcs/functionals/N12/CH3COOH/inp/CH3COOH_N12_def2tzvp.en.tmp) ****
Finished Guess after   0.1 sec
Maximum memory used throughout the entire GUESS-calculation: 8.3 MB


           ************************************************************
           *        Program running with 8 parallel MPI-processes     *
           *              working on a common directory               *
           ************************************************************

-------------------------------------------------------------------------------------------
                                      ORCA LEAN-SCF
                              memory conserving SCF solver
-------------------------------------------------------------------------------------------

----------------------------------------D-I-I-S--------------------------------------------
Iteration    Energy (Eh)           Delta-E    RMSDP     MaxDP     DIISErr   Damp  Time(sec)
-------------------------------------------------------------------------------------------
               ***  Starting incremental Fock matrix formation  ***
    1    -228.8643442695110934     0.00e+00  1.13e-02  1.27e-01  3.51e-01  0.700   0.3
    2    -228.9970432725605178    -1.33e-01  7.18e-03  8.67e-02  1.09e-01  0.700   0.3
                               ***Turning on AO-DIIS***
    3    -229.0315826305155156    -3.45e-02  2.10e-03  2.48e-02  3.41e-02  0.700   0.3
    4    -229.0568294446214850    -2.52e-02  3.52e-03  6.05e-02  2.65e-02  0.000   0.4
    5    -229.1178423342975066    -6.10e-02  1.82e-03  2.51e-02  1.59e-02  0.000   0.3
    6    -229.1186109108032269    -7.69e-04  5.62e-04  6.23e-03  5.22e-03  0.000   0.4
                              *** Initializing SOSCF ***
---------------------------------------S-O-S-C-F--------------------------------------
Iteration    Energy (Eh)           Delta-E    RMSDP     MaxDP     MaxGrad    Time(sec)
--------------------------------------------------------------------------------------
    7    -229.1186674790531015    -5.66e-05  2.09e-04  2.27e-03  2.05e-03     0.2
               *** Restarting incremental Fock matrix formation ***
    8    -229.1186800833497728    -1.26e-05  1.14e-04  1.25e-03  1.75e-04     0.3
    9    -229.1186805119049268    -4.29e-07  3.47e-05  3.23e-04  2.09e-04     0.3
   10    -229.1186807451782670    -2.33e-07  4.68e-05  4.43e-04  1.17e-04     0.3
   11    -229.1186808609393211    -1.16e-07  1.72e-05  1.54e-04  8.09e-05     0.2
   12    -229.1186808403093096     2.06e-08  1.59e-05  1.56e-04  8.84e-05     0.2
   13    -229.1186808996785089    -5.94e-08  8.27e-06  8.64e-05  2.35e-05     0.2
   14    -229.1186809008598857    -1.18e-09  4.89e-06  4.41e-05  2.01e-05     0.2
                 **** Energy Check signals convergence ****

               *****************************************************
               *                     SUCCESS                       *
               *           SCF CONVERGED AFTER  14 CYCLES          *
               *****************************************************

             **** ENERGY FILE WAS UPDATED (/cluster/projects/nn14654k/ylvaos/basis_set_n_funcs/functionals/N12/CH3COOH/inp/CH3COOH_N12_def2tzvp.en.tmp) ****

----------------
TOTAL SCF ENERGY
----------------

Total Energy       :       -229.11868091143378 Eh           -6234.63627 eV

Components:
Nuclear Repulsion  :        120.69328850461517 Eh            3284.23135 eV
Electronic Energy  :       -349.81196941604895 Eh           -9518.86762 eV
One Electron Energy:       -551.95470188828790 Eh          -15019.45101 eV
Two Electron Energy:        202.14273247223895 Eh            5500.58339 eV

Virial components:
Potential Energy   :       -456.36409374553205 Eh          -12418.29832 eV
Kinetic Energy     :        227.24541283409823 Eh            6183.66205 eV
Virial Ratio       :          2.00824337025761

DFT components:
N(Alpha)           :       15.999988742836 electrons
N(Beta)            :       15.999988742836 electrons
N(Total)           :       31.999977485671 electrons
E(X)               :      -27.766955171743 Eh       
E(C)               :       -1.732330390730 Eh       
E(XC)              :      -29.499285562474 Eh       

---------------
SCF CONVERGENCE
---------------

  Last Energy change         ...    1.1814e-09  Tolerance :   1.0000e-08
  Last MAX-Density change    ...    4.4139e-05  Tolerance :   1.0000e-07
  Last RMS-Density change    ...    4.8916e-06  Tolerance :   5.0000e-09
  Last DIIS Error            ...    2.0542e-03  Tolerance :   5.0000e-07
  Last Orbital Gradient      ...    2.0062e-05  Tolerance :   1.0000e-05
  Last Orbital Rotation      ...    1.8676e-05  Tolerance :   1.0000e-05


----------------
ORBITAL ENERGIES
----------------

  NO   OCC          E(Eh)            E(eV) 
   0   2.0000     -18.799991      -511.5738 
   1   2.0000     -18.740222      -509.9474 
   2   2.0000     -10.086740      -274.4741 
   3   2.0000      -9.963577      -271.1227 
   4   2.0000      -1.008563       -27.4444 
   5   2.0000      -0.920897       -25.0589 
   6   2.0000      -0.691434       -18.8149 
   7   2.0000      -0.553659       -15.0658 
   8   2.0000      -0.437566       -11.9068 
   9   2.0000      -0.423717       -11.5299 
  10   2.0000      -0.421220       -11.4620 
  11   2.0000      -0.367808       -10.0086 
  12   2.0000      -0.349490        -9.5101 
  13   2.0000      -0.349449        -9.5090 
  14   2.0000      -0.284347        -7.7375 
  15   2.0000      -0.237940        -6.4747 
  16   0.0000      -0.036136        -0.9833 
  17   0.0000       0.004939         0.1344 
  18   0.0000       0.034613         0.9419 
  19   0.0000       0.085092         2.3155 
  20   0.0000       0.092245         2.5101 
  21   0.0000       0.118018         3.2114 
  22   0.0000       0.139402         3.7933 
  23   0.0000       0.175567         4.7774 
  24   0.0000       0.192720         5.2442 
  25   0.0000       0.212749         5.7892 
  26   0.0000       0.228423         6.2157 
*Only the first 10 virtual orbitals were printed.

                    ********************************
                    * MULLIKEN POPULATION ANALYSIS *
                    ********************************

-----------------------
MULLIKEN ATOMIC CHARGES
-----------------------
   0 C :    0.240269
   1 C :   -0.296948
   2 O :   -0.297765
   3 O :   -0.341451
   4 H :    0.310545
   5 H :    0.130117
   6 H :    0.127617
   7 H :    0.127617
Sum of atomic charges:    0.0000000

--------------------------------
MULLIKEN REDUCED ORBITAL CHARGES
--------------------------------
  0 C s       :     3.100993  s :     3.100993
      pz      :     0.766336  p :     2.378972
      px      :     0.783816
      py      :     0.828819
      dz2     :     0.008452  d :     0.255658
      dxz     :     0.032924
      dyz     :     0.053907
      dx2y2   :     0.055486
      dxy     :     0.104889
      f0      :     0.002876  f :     0.024108
      f+1     :     0.001075
      f-1     :     0.001480
      f+2     :     0.003309
      f-2     :     0.001848
      f+3     :     0.008781
      f-3     :     0.004739

  1 C s       :     3.193534  s :     3.193534
      pz      :     1.056233  p :     3.062323
      px      :     0.995771
      py      :     1.010319
      dz2     :     0.004304  d :     0.038237
      dxz     :     0.004125
      dyz     :     0.011029
      dx2y2   :     0.010762
      dxy     :     0.008017
      f0      :     0.000243  f :     0.002854
      f+1     :     0.000009
      f-1     :     0.000860
      f+2     :    -0.000053
      f-2     :     0.000349
      f+3     :     0.000575
      f-3     :     0.000871

  2 O s       :     3.799526  s :     3.799526
      pz      :     1.394237  p :     4.467613
      px      :     1.750162
      py      :     1.323214
      dz2     :     0.002495  d :     0.028892
      dxz     :     0.000307
      dyz     :     0.010209
      dx2y2   :     0.007987
      dxy     :     0.007894
      f0      :     0.000189  f :     0.001734
      f+1     :     0.000030
      f-1     :     0.000149
      f+2     :     0.000401
      f-2     :     0.000043
      f+3     :     0.000506
      f-3     :     0.000417

  3 O s       :     3.764272  s :     3.764272
      pz      :     1.758484  p :     4.546289
      px      :     1.251846
      py      :     1.535959
      dz2     :     0.003976  d :     0.029324
      dxz     :     0.002829
      dyz     :     0.003218
      dx2y2   :     0.005563
      dxy     :     0.013737
      f0      :     0.000231  f :     0.001566
      f+1     :     0.000354
      f-1     :     0.000236
      f+2     :     0.000060
      f-2     :     0.000069
      f+3     :     0.000397
      f-3     :     0.000219

  4 H s       :     0.645064  s :     0.645064
      pz      :     0.013967  p :     0.044391
      px      :     0.014196
      py      :     0.016228

  5 H s       :     0.848111  s :     0.848111
      pz      :     0.004540  p :     0.021772
      px      :     0.011450
      py      :     0.005781

  6 H s       :     0.850473  s :     0.850473
      pz      :     0.009771  p :     0.021910
      px      :     0.004488
      py      :     0.007651

  7 H s       :     0.850473  s :     0.850473
      pz      :     0.009771  p :     0.021910
      px      :     0.004488
      py      :     0.007651



                     *******************************
                     * LOEWDIN POPULATION ANALYSIS *
                     *******************************

----------------------
LOEWDIN ATOMIC CHARGES
----------------------
   0 C :   -0.512043
   1 C :   -0.263659
   2 O :    0.080457
   3 O :    0.075299
   4 H :    0.200721
   5 H :    0.136904
   6 H :    0.141160
   7 H :    0.141160

-------------------------------
LOEWDIN REDUCED ORBITAL CHARGES
-------------------------------
  0 C s       :     2.775604  s :     2.775604
      pz      :     0.740291  p :     2.673451
      px      :     0.912191
      py      :     1.020970
      dz2     :     0.061356  d :     0.916136
      dxz     :     0.104663
      dyz     :     0.152246
      dx2y2   :     0.244796
      dxy     :     0.353075
      f0      :     0.008732  f :     0.146852
      f+1     :     0.007873
      f-1     :     0.011118
      f+2     :     0.023277
      f-2     :     0.010889
      f+3     :     0.054486
      f-3     :     0.030476

  1 C s       :     2.836488  s :     2.836488
      pz      :     1.073091  p :     3.185470
      px      :     1.055070
      py      :     1.057309
      dz2     :     0.034429  d :     0.217566
      dxz     :     0.013676
      dyz     :     0.059628
      dx2y2   :     0.051851
      dxy     :     0.057982
      f0      :     0.001531  f :     0.024134
      f+1     :     0.003127
      f-1     :     0.004221
      f+2     :     0.002493
      f-2     :     0.002579
      f+3     :     0.004073
      f-3     :     0.006112

  2 O s       :     3.414479  s :     3.414479
      pz      :     1.319772  p :     4.433106
      px      :     1.621653
      py      :     1.491681
      dz2     :     0.008241  d :     0.065982
      dxz     :     0.000478
      dyz     :     0.013523
      dx2y2   :     0.024776
      dxy     :     0.018965
      f0      :     0.000451  f :     0.005975
      f+1     :     0.000138
      f-1     :     0.000946
      f+2     :     0.000730
      f-2     :     0.000117
      f+3     :     0.001781
      f-3     :     0.001814

  3 O s       :     3.352716  s :     3.352716
      pz      :     1.653478  p :     4.499003
      px      :     1.303960
      py      :     1.541565
      dz2     :     0.009631  d :     0.068052
      dxz     :     0.007317
      dyz     :     0.002911
      dx2y2   :     0.014930
      dxy     :     0.033263
      f0      :     0.000294  f :     0.004929
      f+1     :     0.000820
      f-1     :     0.000377
      f+2     :     0.000138
      f-2     :     0.000317
      f+3     :     0.002000
      f-3     :     0.000983

  4 H s       :     0.656109  s :     0.656109
      pz      :     0.035848  p :     0.143170
      px      :     0.042415
      py      :     0.064907

  5 H s       :     0.800715  s :     0.800715
      pz      :     0.013215  p :     0.062381
      px      :     0.031455
      py      :     0.017710

  6 H s       :     0.796021  s :     0.796021
      pz      :     0.028708  p :     0.062819
      px      :     0.013192
      py      :     0.020919

  7 H s       :     0.796021  s :     0.796021
      pz      :     0.028708  p :     0.062819
      px      :     0.013192
      py      :     0.020919



                      *****************************
                      * MAYER POPULATION ANALYSIS *
                      *****************************

  NA   - Mulliken gross atomic population
  ZA   - Total nuclear charge
  QA   - Mulliken gross atomic charge
  VA   - Mayer's total valence
  BVA  - Mayer's bonded valence
  FA   - Mayer's free valence

  ATOM       NA         ZA         QA         VA         BVA        FA
  0 C      5.7597     6.0000     0.2403     4.3421     4.3421     0.0000
  1 C      6.2969     6.0000    -0.2969     3.8334     3.8334     0.0000
  2 O      8.2978     8.0000    -0.2978     2.1994     2.1994     0.0000
  3 O      8.3415     8.0000    -0.3415     2.0905     2.0905    -0.0000
  4 H      0.6895     1.0000     0.3105     0.9408     0.9408    -0.0000
  5 H      0.8699     1.0000     0.1301     0.9888     0.9888     0.0000
  6 H      0.8724     1.0000     0.1276     0.9779     0.9779     0.0000
  7 H      0.8724     1.0000     0.1276     0.9779     0.9779     0.0000

  Mayer bond orders larger than 0.100000
B(  0-C ,  1-C ) :   1.0100 B(  0-C ,  2-O ) :   2.0910 B(  0-C ,  3-O ) :   1.1995 
B(  1-C ,  5-H ) :   0.9726 B(  1-C ,  6-H ) :   0.9413 B(  1-C ,  7-H ) :   0.9413 
B(  3-O ,  4-H ) :   0.8642 

-------
TIMINGS
-------

Total SCF time: 0 days 0 hours 0 min 4 sec 

Total time                  ....       4.272 sec
Sum of individual times     ....       4.012 sec  ( 93.9%)

SCF preparation             ....       0.161 sec  (  3.8%)
Fock matrix formation       ....       3.234 sec  ( 75.7%)
  Startup                   ....       0.050 sec  (  1.5% of F)
  Coulomb formation         ....       2.121 sec  ( 65.6% of F)
  XC integration            ....       0.798 sec  ( 24.7% of F)
    XC Preparation          ....       0.000 sec  (  0.0% of XC)
    Basis function eval.    ....       0.088 sec  ( 11.0% of XC)
    Density eval.           ....       0.057 sec  (  7.1% of XC)
    XC-Functional eval.     ....       0.064 sec  (  8.1% of XC)
    XC-Potential eval.      ....       0.118 sec  ( 14.8% of XC)
Diagonalization             ....       0.000 sec  (  0.0%)
Density matrix formation    ....       0.181 sec  (  4.2%)
Total Energy calculation    ....       0.022 sec  (  0.5%)
Population analysis         ....       0.012 sec  (  0.3%)
Orbital Transformation      ....       0.018 sec  (  0.4%)
Orbital Orthonormalization  ....       0.000 sec  (  0.0%)
DIIS solution               ....       0.308 sec  (  7.2%)
SOSCF solution              ....       0.075 sec  (  1.8%)
Finished LeanSCF after   4.3 sec

Maximum memory used throughout the entire LEANSCF-calculation: 14.0 MB


           ************************************************************
           *        Program running with 8 parallel MPI-processes     *
           *              working on a common directory               *
           ************************************************************

------------------------------------------------------------------------------
                         ORCA PROPERTY INTEGRAL CALCULATIONS
------------------------------------------------------------------------------

GBWName                                   ... /cluster/projects/nn14654k/ylvaos/basis_set_n_funcs/functionals/N12/CH3COOH/inp/CH3COOH_N12_def2tzvp.gbw
Number of atoms                           ...      8
Number of basis functions                 ...    148
Max core memory                           ...   4096 MB

Dipole integrals                          ... YES
Quadrupole integrals                      ... YES
Linear momentum integrals                 ...  NO
Angular momentum integrals                ...  NO
Higher moments length integrals           ...  NO
Higher moments velocity integrals         ...  NO
Kinetic energy integrals                  ...  NO
GIAO right hand sides                     ...  NO
GIAO dipole derivative integrals          ...  NO
SOC integrals                             ...  NO
EPR diamagnetic integrals (GIAO)          ...  NO
EPR gauge integrals                       ...  NO
Field gradient integrals                  ...  NO (   0 nuclei)
Spin-dipole/Fermi contact integrals       ...  NO (   0 nuclei)
Contact density integrals                 ...  NO (   0 nuclei)
Nucleus-orbit integrals                   ...  NO (   0 nuclei)
Geometric perturbations                   ...  NO (   8 nuclei)

Choice of electric origin   ... Center of mass
Position of electric origin ... ( -0.0657,  0.0975,  0.0000) 
Choice of magnetic origin   ... GIAO
Position of magnetic origin ... (  0.0000,  0.0000,  0.0000) 

Calculating integrals                     ... Electric Dipole (Length)     done (  0.0 sec)
Calculating integrals                     ... Electric Quadrupole (Length) done (  0.0 sec)

Property integrals calculated in   0.0 sec

Maximum memory used throughout the entire PROPINT-calculation: 8.8 MB
------------------------------------------------------------------------------
                           ORCA ORBITAL LOCALIZATION
------------------------------------------------------------------------------

Input orbitals are from                  ... /cluster/projects/nn14654k/ylvaos/basis_set_n_funcs/functionals/N12/CH3COOH/inp/CH3COOH_N12_def2tzvp.gbw
Output orbitals are to                   ... /cluster/projects/nn14654k/ylvaos/basis_set_n_funcs/functionals/N12/CH3COOH/inp/CH3COOH_N12_def2tzvp.loc
Max. number of iterations                ... 128
Localizations seeded randomly            ... on
Convergence tolerance                    ... 1.000e-06
Threshold for strong local MOs           ... 9.500e-01
Threshold for bond MOs                   ... 8.500e-01
Operator                                 ... 0
Orbital range for localization           ... 4 to 15
Localization criterion                   ... NEW-BOYS
Doing the dipole integrals               ... o.k.
Initial value of the localization sum :    68.460532
ITERATION   0 : L=   80.3387700810 DL=  1.19e+01 (AVERGE_DL)=    0.4242326025 
ITERATION   1 : L=   80.9372039393 DL=  5.98e-01 (AVERGE_DL)=    0.0952217395 
ITERATION   2 : L=   80.9558040430 DL=  1.86e-02 (AVERGE_DL)=    0.0167874880 
ITERATION   3 : L=   80.9592411349 DL=  3.44e-03 (AVERGE_DL)=    0.0072164500 
ITERATION   4 : L=   80.9603853449 DL=  1.14e-03 (AVERGE_DL)=    0.0041637141 
ITERATION   5 : L=   80.9611134795 DL=  7.28e-04 (AVERGE_DL)=    0.0033214972 
ITERATION   6 : L=   80.9617106266 DL=  5.97e-04 (AVERGE_DL)=    0.0030079366 
ITERATION   7 : L=   80.9622107017 DL=  5.00e-04 (AVERGE_DL)=    0.0027526162 
ITERATION   8 : L=   80.9626167021 DL=  4.06e-04 (AVERGE_DL)=    0.0024802262 
ITERATION   9 : L=   80.9629342036 DL=  3.18e-04 (AVERGE_DL)=    0.0021933144 
ITERATION  10 : L=   80.9631743847 DL=  2.40e-04 (AVERGE_DL)=    0.0019076443 
ITERATION  11 : L=   80.9633511405 DL=  1.77e-04 (AVERGE_DL)=    0.0016364959 
ITERATION  12 : L=   80.9634783636 DL=  1.27e-04 (AVERGE_DL)=    0.0013883883 
ITERATION  13 : L=   80.9635683300 DL=  9.00e-05 (AVERGE_DL)=    0.0011675303 
ITERATION  14 : L=   80.9636310669 DL=  6.27e-05 (AVERGE_DL)=    0.0009749669 
ITERATION  15 : L=   80.9636743367 DL=  4.33e-05 (AVERGE_DL)=    0.0008096931 
ITERATION  16 : L=   80.9637039221 DL=  2.96e-05 (AVERGE_DL)=    0.0006695245 
ITERATION  17 : L=   80.9637240137 DL=  2.01e-05 (AVERGE_DL)=    0.0005517403 
ITERATION  18 : L=   80.9637375844 DL=  1.36e-05 (AVERGE_DL)=    0.0004534502 
ITERATION  19 : L=   80.9637467118 DL=  9.13e-06 (AVERGE_DL)=    0.0003718791 
ITERATION  20 : L=   80.9637528296 DL=  6.12e-06 (AVERGE_DL)=    0.0003044583 
ITERATION  21 : L=   80.9637569192 DL=  4.09e-06 (AVERGE_DL)=    0.0002489239 
ITERATION  22 : L=   80.9637596474 DL=  2.73e-06 (AVERGE_DL)=    0.0002033136 
ITERATION  23 : L=   80.9637614640 DL=  1.82e-06 (AVERGE_DL)=    0.0001659014 
ITERATION  24 : L=   80.9637626720 DL=  1.21e-06 (AVERGE_DL)=    0.0001352888 
ITERATION  25 : L=   80.9637634741 DL=  8.02e-07 (AVERGE_DL)=    0.0001102409 
LOCALIZATION SUM CONVERGED


--------------------------------------------------------------------------------
                    LOCALIZED MOLECULAR ORBITAL COMPOSITIONS
--------------------------------------------------------------------------------

The Mulliken populations for each LMO on each atom are computed
The LMO`s will be ordered according to atom index and type
  (A) Strongly localized MO`s have populations of >=0.950 on one atom
  (B) Two center bond orbitals have populations of >=0.850 on two atoms
  (C) Other MO`s are considered to be `delocalized`

FOUND  -   1 strongly local MO`s
       -  11 two center bond MO`s
       -   0 significantly delocalized MO`s

Rather strongly localized orbitals:
MO   4:   3O  -   0.968568
Bond-like localized orbitals:
MO  15:   7H  -   0.450000  and   1C  -   0.546620
MO  14:   6H  -   0.449993  and   1C  -   0.546636
MO  13:   5H  -   0.444791  and   1C  -   0.578148
MO  12:   4H  -   0.340665  and   3O  -   0.663013
MO  11:   3O  -   0.686860  and   0C  -   0.335876
MO  10:   3O  -   0.894936  and   0C  -   0.105118
MO   9:   2O  -   0.646510  and   0C  -   0.364484
MO   8:   2O  -   0.647009  and   0C  -   0.363747
MO   7:   2O  -   0.932871  and   0C  -   0.062125
MO   6:   2O  -   0.941313  and   0C  -   0.070760
MO   5:   1C  -   0.511216  and   0C  -   0.531818
Localized MO's were stored in: /cluster/projects/nn14654k/ylvaos/basis_set_n_funcs/functionals/N12/CH3COOH/inp/CH3COOH_N12_def2tzvp.loc

-------------------------   --------------------
FINAL SINGLE POINT ENERGY      -229.118680911434
-------------------------   --------------------



           ************************************************************
           *        Program running with 8 parallel MPI-processes     *
           *              working on a common directory               *
           ************************************************************

------------------------------------------------------------------------------
                              ORCA PROPERTY CALCULATIONS
------------------------------------------------------------------------------

GBWName                                 ... /cluster/projects/nn14654k/ylvaos/basis_set_n_funcs/functionals/N12/CH3COOH/inp/CH3COOH_N12_def2tzvp.gbw
Number of atoms                         ...      8
Number of basis functions               ...    148
Max core memory                         ...   4096 MB

Electric properties:
Dipole moment                           ... YES
Quadrupole moment                       ... YES
Static polarizability (Dipole/Dipole)   ...  NO
Static polarizability (Dipole/Quad.)    ...  NO
Static polarizability (Quad./Quad.)     ...  NO
Static polarizability (Velocity)        ...  NO
Static hyperpolarizability              ...  NO

Atomic electric properties:
Dipole moment                           ...  NO
Quadrupole moment                       ...  NO
Static polarizability                   ...  NO

Choice of electric origin               ... Center of mass
Position of electric origin             ...    -0.065707     0.097461     0.000000

General magnetic properties:
Magnetizability                         ...  NO

EPR properties:
g-Tensor (aka g-matrix)                 ...  NO
Zero-Field splitting spin-orbit         ...  NO
Zero-field splitting spin-spin          ...  NO
Hyperfine couplings                     ...  NO (   0 nuclei)
Quadrupole couplings                    ...  NO (   0 nuclei)
Contact density                         ...  NO (   0 nuclei)

NMR properties:
Chemical shifts                         ...  NO (   0 nuclei)
Spin-rotation constants                 ...  NO (   0 nuclei)
Spin-spin couplings                     ...  NO (   0 nuclei,    0 pairs)

Choice of magnetic origin               ... GIAO
Position of magnetic origin             ...     0.000000     0.000000     0.000000

Properties with geometric perturbations:
SCF Hessian                             ...  NO
IR spectrum                             ...  NO
VCD spectrum                            ...  NO
X-ray spectroscopy properties:
SCF XES/XAS/RIXS spectra                ...  NO

SCF SOC stabilization energy            ...  NO
Diagonal Born-Oppenheimer correction    ...  NO

-------------
DIPOLE MOMENT
-------------

Method             : SCF
Type of density    : Electron Density
Multiplicity       :   1
Irrep              :   0
Energy             :  -229.1186809114337848 Eh
Basis              : AO
                                X                 Y                 Z
Electronic contribution:     -2.217859563       2.438270772      -0.000000004
Nuclear contribution   :      2.102617427      -3.118765285       0.000000000
                        -----------------------------------------
Total Dipole Moment    :     -0.115242136      -0.680494512      -0.000000004
                        -----------------------------------------
Magnitude (a.u.)       :      0.690183694
Magnitude (Debye)      :      1.754307533



--------------------
Rotational spectrum 
--------------------
 
Rotational constants in cm-1:             0.373252             0.316126             0.176788 
Rotational constants in MHz :         11189.819630          9477.229268          5299.974115 

Dipole components along the rotational axes: 
x,y,z [a.u.] :    -0.354411    -0.592239    -0.000000 
x,y,z [Debye]:    -0.900840    -1.505351    -0.000000 

 

Dipole moment calculation done in   0.0 sec 

-----------------
QUADRUPOLE MOMENT
-----------------

Method             : SCF
Type of density    : Electron Density
Multiplicity       :   1
Irrep              :   0
Energy             :  -229.1186809114337848 Eh
Basis              : AO

                XX              YY              ZZ              XY              XZ              YZ
  NUC      103.447904006    93.335807526     5.552847104   -15.402641721     0.000000000     0.000000000
  EL      -118.179415285  -113.434522832   -22.571519441    12.681562460    -0.000000011    -0.000000015
  TOT      -14.731511279   -20.098715306   -17.018672337    -2.721079261    -0.000000011    -0.000000015 (a.u.)
           -19.814386488   -27.033459463   -22.890696331    -3.659944667    -0.000000014    -0.000000020 (Buckingham)

diagonalized tensor:
           -21.236891950   -17.018672337   -13.593334634 (a.u.)
           -28.564345975   -22.890696331   -18.283499975 (Buckingham)
           -15.954495643     1.066453287    14.888042356 (traceless form in Buckingham)

             0.385884266     0.000000000     0.922547198
             0.922547198     0.000000004    -0.385884266
             0.000000004    -1.000000000    -0.000000001
        
Isotropic quadrupole :   -17.282966307

Quadrupole moment calculation done in   0.0 sec (  0.0 sec for integrals)

Maximum memory used throughout the entire PROP-calculation: 5.5 MB

--------------------------------
SUGGESTED CITATIONS FOR THIS RUN
--------------------------------

Below you find a list of papers that are relevant to this ORCA run
We neither can nor want to force you to cite these papers, but we appreciate if you do
You receive ORCA, which is the product of decades of hard work by many enthusiastic individuals, for free
The only thing we kindly ask in return is that you cite our papers,
We deeply appreciate it, if you show your appreciation for ORCA by not just citing the generic ORCA reference.

Please note that relegating all ORCA citations to the supporting information does *not* help us.
SI sections are not indexed - citations you put there will not count into any citation statistics
But we need these citations in order to attract the funding resources that allow us to do what we are doing

Therefore, if you are a happy ORCA user, please consider citing a few of the papers listed below in the main body of your paper

In addition to the list printed below, the program has created the file /cluster/projects/nn14654k/ylvaos/basis_set_n_funcs/functionals/N12/CH3COOH/inp/CH3COOH_N12_def2tzvp.bibtex that contains the list in bibtex format
You can import this file easily into all common literature databanks and citation aid programs

It goes without saying that in many instances, there are alternative algorithms to achieve similar
results as the ones you have gotten from ORCA. It is, of course, also the case that in some instances
ORCA just re-implements algorithms worked out by others. We are fully aware of that and we are also
fully appreciative of our colleagues work. Hence this citation list should not be read as indicating
that the listed papers, which are focused on our own work, are the only ones worth citing. It simply
meant to make it easier for users to cite ORCA specific papers. It is not a substitute for doing your
own literature research and citing the relevant literature in a scientifically appropriate manner.

List of essential papers. We consider these as the minimum necessary citations

  1. Neese, F.
     Software update: the ORCA program system, version 6.0
     WIRES Comput. Molec. Sci. 2025 15(1), e70019
     doi.org/10.1002/wcms.70019

List of papers to cite with high priority. The work reported in these papers was absolutely
necessary for this run to complete.
Our perspective: the developers of density functionals and basis sets usually get cited in chemistry papers
Good! But without the algorithms to do something with them, the functionals or basis sets would not do anything.
Hence, in our opinion, the algorithm design and method developments papers are equally worthy of getting cited

  1. Lehtola, S.; Steigemann, C.; Oliveira, M.; Marques, M.
     Recent developments in Libxc - A comprehensive library of functionals for density functional theory
     Software X 2018 7 , 
     doi.org/10.1016/j.softx.2017.11.002
  2. Neese, F.
     The SHARK Integral Generation and Digestion System
     J. Comp. Chem. 2022 44(3), 381
     doi.org/10.1002/jcc.26942

List of suggested additional citations. These are papers that are important in the 'surrounding' of 
of this run, or papers that preceded the highly important papers. If you like your results we are grateful for a citation.

  1. Neese, F.
     The ORCA program system
     WIRES Comput. Molec. Sci. 2012 2(1), 73-78
     doi.org/10.1002/wcms.81
  2. Neese, F.
     Software update: the ORCA program system, version 4.0
     WIRES Comput. Molec. Sci. 2018 8(1), 1-6
     doi.org/10.1002/wcms.1327
  3. Neese, F.; Wennmohs, F.; Becker, U.; Riplinger, C.
     The ORCA quantum chemistry program package
     J. Chem. Phys. 2020 152(22), 224108
     doi.org/10.1063/5.0004608
  4. Neese, F.
     Software update: The ORCA program system—Version 5.0
     WIRES Comput. Molec. Sci. 2022 12(1), e1606
     doi.org/10.1002/wcms.1606

List of optional additional citations

  1. Neese, F.
     Approximate second-order SCF convergence for spin unrestricted wavefunctions
     Chem. Phys. Lett. 2000 325(1-3), 93-98
     doi.org/10.1016/s0009-2614(00)00662-x

Timings for individual modules:

Sum of individual times          ...        5.777 sec (=   0.096 min)
Startup calculation              ...        0.432 sec (=   0.007 min)   7.5 %
SCF iterations                   ...        4.820 sec (=   0.080 min)  83.4 %
Property integrals               ...        0.258 sec (=   0.004 min)   4.5 %
Property calculations            ...        0.263 sec (=   0.004 min)   4.6 %
Orbital localization             ...        0.004 sec (=   0.000 min)   0.1 %
                             ****ORCA TERMINATED NORMALLY****
TOTAL RUN TIME: 0 days 0 hours 0 minutes 6 seconds 778 msec
