
                                 *****************
                                 * O   R   C   A *
                                 *****************

                                            #,                                       
                                            ###                                      
                                            ####                                     
                                            #####                                    
                                            ######                                   
                                           ########,                                 
                                     ,,################,,,,,                         
                               ,,#################################,,                 
                          ,,##########################################,,             
                       ,#########################################, ''#####,          
                    ,#############################################,,   '####,        
                  ,##################################################,,,,####,       
                ,###########''''           ''''###############################       
              ,#####''   ,,,,##########,,,,          '''####'''          '####       
            ,##' ,,,,###########################,,,                        '##       
           ' ,,###''''                  '''############,,,                           
         ,,##''                                '''############,,,,        ,,,,,,###''
      ,#''                                            '''#######################'''  
     '                                                          ''''####''''         
             ,#######,   #######,   ,#######,      ##                                
            ,#'     '#,  ##    ##  ,#'     '#,    #''#        ,####,    ,#,          
            ##       ##  ##   ,#'  ##            #'  '#       #'       ,# #          
            ##       ##  #######   ##           ,######,      #####,      #          
            '#,     ,#'  ##    ##  '#,     ,#' ,#      #,     #,   #      #          
             '#######'   ##     ##  '#######'  #'      '#     '####' #    #          



                #########################################################
                #                        -***-                          #
                #          Department of theory and spectroscopy        #
                #                                                       #
                #                      Frank Neese                      #
                #                                                       #
                #     Directorship, Architecture, Infrastructure        #
                #                    SHARK, DRIVERS                     #
                #        Core code/Algorithms in most modules           #
                #                                                       #
                #        Max Planck Institute fuer Kohlenforschung      #
                #                Kaiser Wilhelm Platz 1                 #
                #                 D-45470 Muelheim/Ruhr                 #
                #                      Germany                          #
                #                                                       #
                #                  All rights reserved                  #
                #                        -***-                          #
                #########################################################


                         Program Version 6.1.1  -  RELEASE   -
                                (GIT: $487d211c$)
                          ($2025-11-21 10:33:24 +0100$)


 With contributions from (in alphabetic order):
[Max-Planck-Institut fuer Kohlenforschung]                               
  Daniel Aravena         : Magnetic Suceptibility                        
  Michael Atanasov       : Ab Initio Ligand Field Theory (pilot matlab implementation)
  Alexander A. Auer      : GIAO ZORA, VPT2 properties, NMR spectrum      
  Ute Becker             : All parallelization in ORCA, NUMFREQ, NUMCALC 
  Giovanni Bistoni       : ED, misc. LED, open-shell LED, HFLD           
  Dmytro Bykov           : pre 5.0 version of the SCF Hessian            
  Marcos Casanova-Páez   : Triplet and SCS-CIS(D). UHF-(DLPNO)-IP/EA/STEOM-CCSD. UHF-CVS-IP/STEOM-CCSD   
  Vijay G. Chilkuri      : MRCI spin determinant printing, contributions to CSF-ICE 
  Pauline Colinet        : FMM embedding                                 
  Dipayan Datta          : RHF DLPNO-CCSD density                        
  Achintya Kumar Dutta   : EOM-CC, STEOM-CC                              
  Nicolas Foglia         : Exact transition moments, OPA infrastructure, MCD improvements    
  Dmitry Ganyushin       : Spin-Orbit,Spin-Spin,Magnetic field MRCI      
  Miquel Garcia-Rates    : C-PCM and meta-GGA Hessian, CCSD/C-PCM, Gaussian charge scheme 
  Tiago L. C. Gouveia    : GS-ROHF, GS-ROCIS                             
  Yang Guo               : DLPNO-NEVPT2, F12-NEVPT2, CIM, IAO-localization        
  Andreas Hansen         : Spin unrestricted coupled pair/coupled cluster methods 
  Ingolf Harden          : AUTO-CI MPn and infrastructure                
  Benjamin Helmich-Paris : MC-RPA, TRAH-(SCF,CASSCF), AVAS, COSX integrals, SCF dyn. polar., MC-PDFT, srDFT 
  Lee Huntington         : MR-EOM, pCC                                   
  Robert Izsak           : Overlap fitted RIJCOSX, COSX-SCS-MP3, EOM     
  Riya Kayal             : Wick's Theorem for AUTO-CI, AUTO-CI UHF-CCSDT 
  Emily Kempfer          : AUTO-CI RHF CISDT and CCSDT, approximate NEVPT4
  Christian Kollmar      : KDIIS, OOCD, Brueckner-CCSD(T), CCSD density, CASPT2, CASPT2-K, improved NEVPT2 
  Axel Koslowski         : Symmetry handling                             
  Simone Kossmann        : meta-GGA functionals, TD-DFT gradient, OOMP2, (MP2 Hessian; deprecated post 5.0) 
  Lucas Lang             : DCDCAS, Hyperfine gauge corrections, ICE-SOC+SSC
  Marvin Lechner         : AUTO-CI (C++ implementation), FIC-MRCC        
  Spencer Leger          : CASSCF response                               
  Dagmar Lenk            : GEPOL surface, SMD, ORCA-2-JSON               
  Dimitrios Liakos       : Extrapolation schemes; Compound Job, Property file
  Dimitrios Manganas     : Further ROCIS development; embedding schemes. LFT, Crystal Embedding 
  Dimitrios Pantazis     : SARC Basis sets                               
  Anastasios Papadopoulos: AUTO-CI, single reference methods and gradients 
  Taras Petrenko         : pre 6.0 DFT Hessian and TD-DFT gradient,  ECA, NRVS 
  Petra Pikulova         : Analytic Raman intensities                    
  Peter Pinski           : DLPNO-MP2, DLPNO-MP2 Gradient                 
  Shashank Vittal Rao    : ES-AILFT, MagRelax                            
  Christoph Reimann      : Effective Core Potentials                     
  Marius Retegan         : Local ZFS, SOC                                
  Christoph Riplinger    : Optimizer, TS searches, QM/MM, DLPNO-CCSD(T), (RO)-DLPNO pert. Triples 
  Michael Roemelt        : Original ROCIS implementation, recursive CI coupling coefficients
  Masaaki Saitow         : Open-shell DLPNO-CCSD energy and density      
  Barbara Sandhoefer     : DKH picture change effects                    
  Yorick L. A. Schmerwitz: GMF and freeze-and-release deltaSCF, NEB S-IDPP initial path                    
  Kantharuban Sivalingam : CASSCF convergence/infrastructure, NEVPT2, NEVPT3, NEVPT4(SD), FIC-MRCI and CEPA variants
  Bernardo de Souza      : ESD, SOC TD-DFT                               
  Georgi L. Stoychev     : AutoAux, RI-MP2 NMR, DLPNO-MP2 response, X2C  
  Van Anh Tran           : RI-MP2 g-tensors                              
  Willem Van den Heuvel  : Paramagnetic NMR                              
  Zikuan Wang            : NOTCH, Electric field optimization            
  Frank Wennmohs         : Technical directorship and infrastructure     
  Hang Xu                : AUTO-CI-Response properties                   
                                                                         
[FACCTs GmbH]                                                            
  Markus Bursch, Nicolas Foglia, Miquel Garcia-Rates, Ingolf Harden, Hagen Neugebauer, Anastasios Papadopoulos, 
  Christoph Riplinger, Bernardo de Souza, Georgi L. Stoychev                                                    
                                                                 
  APM, various basis sets, CI-OPT, improved COSX, DLPNO-Multilevel,           
  DOCKER, DRACO, updates on ESD, Fragmentator, GOAT, IRC, LR-CPCM, L-BFGS, MBIS, meta-GGA TD-DFT gradient, ML-optimized integration grids, 
  MM, NACMEs, nearIR, NEB, NEB-TS, NL-DFT gradient (VV10), 2- and 3-layer-ONIOM, interface openCOSMO-RS, QMMM,   
  Crystal-QMMM, RESP, rigid body optimization, SF, symmetry and pop. for TD-DFT, various functionals, SOLVATOR                                   
                                                                         
[Other institutions]                                                     
  V. Asgeirsson          : NEB                                           
  Christoph Bannwarth    : sTDA-DFT, sTD-DFT, PBEh-3c, B97-3c, D3        
  Giovanni Bistoni       : ETS/NOCV, ADLD/ADEX, COVALED                  
  Martin Brehm           : Molecular dynamics                            
  Ronald Cardenas        : ETS/NOCV                                      
  Martina Colucci        : COVALED                                       
  Sebastian Ehlert       : rSCAN, r2SCAN, r2SCAN-3c, D4, dhf basis sets  
  Marvin Friede          : D4 for Fr, Ra, Ac-Lr                          
  Lars Goerigk           : TD-DFT with DH, B97 family of functionals     
  Stefan Grimme          : VdW corrections, initial TS optimization, DFT functionals, gCP, sTDA/sTD-DF 
  Waldemar Hujo          : DFT-NL                                        
  H. Jonsson             : NEB                                           
  Holger Kruse           : gCP                                           
  Marcel Mueller         : wB97X-3c, vDZP basis set                      
  Hagen Neugebauer       : wr2SCAN, Native XTB                           
  Gianluca Regni         : ADLD/ADEX                                     
  Tobias Risthaus        : pre 6.0 range-separated hybrid DFT and stability analysis
  Lukas Wittmann         : regularized MP2, r2SCAN double-hybrids, wr2SCAN        
                                                                         
We gratefully acknowledge several colleagues who have allowed us to      
interface, adapt or use parts of their codes:                            
  Ed Valeev, F. Pavosevic, A. Kumar             : LibInt (2-el integral package), F12 methods 
  Garnet Chan, S. Sharma, J. Yang, R. Olivares  : DMRG                   
  Ulf Ekstrom                                   : XCFun DFT Library      
  Mihaly Kallay                                 : mrcc  (arbitrary order and MRCC methods)
  Frank Weinhold                                : gennbo (NPA and NBO analysis)           
  Simon Mueller                                 : openCOSMO-RS                            
  Christopher J. Cramer and Donald G. Truhlar   : smd solvation model                     
  S Lehtola, MJT Oliveira, MAL Marques          : LibXC Library                           
  Liviu Ungur et al                             : ANISO software                          


 Your calculation uses the libint2 library for the computation of 2-el integrals
 For citations please refer to: http://libint.valeyev.net

 Your ORCA version has been built with support for libXC version: 7.0.0
 For citations please refer to: https://libxc.gitlab.io

 This ORCA versions uses:
   CBLAS   interface :  Fast vector & matrix operations
   LAPACKE interface :  Fast linear algebra routines
   SCALAPACK package :  Parallel linear algebra routines
   Shared memory     :  Shared parallel matrices
   BLAS/LAPACK       :  OpenBLAS 0.3.29  USE64BITINT DYNAMIC_ARCH NO_AFFINITY Cooperlake SINGLE_THREADED
        Core in use  :  Cooperlake
   Copyright (c) 2011-2014, The OpenBLAS Project


  ***********************************
  * Starting time: Wed May 20 12:33:44 2026
  * Host name:     c1-38
  * Process ID:    3638968
  * Working dir.:  /cluster/projects/nn14654k/ylvaos/basis_set_n_funcs/functionals/N12/CH3COOH/out
  ***********************************

Using LibXC functional ID  82 : Minnesota N12 exchange functional
[ 1]  R. Peverati and D. G. Truhlar.,  J. Chem. Theory Comput. 8, 2310 (2012)
Using LibXC functional ID  80 : Minnesota N12 correlation functional
[ 1]  R. Peverati and D. G. Truhlar.,  J. Chem. Theory Comput. 8, 2310 (2012)
Using LibXC functional ID  82 : Minnesota N12 exchange functional
[ 1]  R. Peverati and D. G. Truhlar.,  J. Chem. Theory Comput. 8, 2310 (2012)
Using LibXC functional ID  80 : Minnesota N12 correlation functional
[ 1]  R. Peverati and D. G. Truhlar.,  J. Chem. Theory Comput. 8, 2310 (2012)
Your calculation utilizes LibXC
by S. Lehtola, C. Steigemann, M. J. T. Oliveira & M. A. L. Marques
Please cite in your paper:
Lehtola, S.; Steigemann, C.; Oliveira, M.J.T.; Marques, M. A. L. Software X, 7, (2018), 1.
   

================================================================================

----- Orbital basis set information -----
Your calculation utilizes the basis: cc-pVTZ 
       H, B-Ne : Obtained from the ccRepo (grant-hill.group.shef.ac.uk/ccrepo) Feb. 2017
                 T. H. Dunning, Jr., J. Chem. Phys. 90, 1007 (1989)
            He : Obtained from the ccRepo (grant-hill.group.shef.ac.uk/ccrepo) Feb. 2017
                 D. E. Woon, T. H. Dunning, Jr., J. Chem. Phys. 100, 2975 (1994)
  Li-Be, Na-Mg : Obtained from the ccRepo (grant-hill.group.shef.ac.uk/ccrepo) Feb. 2017
                 B. P. Prascher, D. E. Woon, K. A. Peterson, T. H. Dunning, Jr., A. K. Wilson, Theor. Chem. Acc. 128, 69 (2011)
         Al-Ar : Obtained from the ccRepo (grant-hill.group.shef.ac.uk/ccrepo) Feb. 2017
                 D. E. Woon, T. H. Dunning, Jr., J. Chem. Phys. 98, 1358 (1993)
            Ca : Obtained from the Peterson Research Group Website (tyr0.chem.wsu.edu/~kipeters) Feb. 2017
                 J. Koput, K. A. Peterson, J. Phys. Chem. 106, 9595 (2002)
         Sc-Zn : Obtained from the ccRepo (grant-hill.group.shef.ac.uk/ccrepo) Feb. 2017
                 N. B. Balabanov, K. A. Peterson, J. Chem. Phys. 123, 064107 (2005)
                 N. B. Balabanov, K. A. Peterson, J. Chem. Phys. 125, 074110 (2006)
         Ga-Kr : Obtained from the ccRepo (grant-hill.group.shef.ac.uk/ccrepo) Feb. 2017
                 A. K. Wilson, D. E. Woon, K. A. Peterson, T. H. Dunning, Jr., J. Chem. Phys. 110, 7667 (1999)
             Y : Obtained from the ccRepo (grant-hill.group.shef.ac.uk/ccrepo) Feb. 2017
                 K. A. Peterson, D. Figgen, M. Dolg, H. Stoll, J. Chem. Phys. 126, 124101 (2007)
        Ag, Au : Obtained from the Peterson Research Group Website (tyr0.chem.wsu.edu/~kipeters) Feb. 2017
                 K. A. Peterson, C. Puzzarini, Theor. Chem. Acc. 114, 283 (2005)

================================================================================
                                        WARNINGS
                       Please study these warnings very carefully!
================================================================================


================================================================================
                                       INPUT FILE
================================================================================
NAME = /cluster/projects/nn14654k/ylvaos/basis_set_n_funcs/functionals/N12/CH3COOH/inp/CH3COOH_N12_ccpvtz.inp
|  1> ! dft cc-pVTZ TightSCF
|  2> %pal nprocs 8 end
|  3> 
|  4> %loc
|  5>   LocMet NewBoys
|  6>   Occ true
|  7> end
|  8> 
|  9> %method
| 10>   exchange gga_x_N12
| 11>   correlation gga_c_N12
| 12> end
| 13> 
| 14> %elprop
| 15>   Dipole true
| 16>   Quadrupole true
| 17> end
| 18> 
| 19> * xyz 0 1
| 20> C    0.000000000000   0.154560000000   0.000000000000
| 21> C    1.073776000000  -0.892748000000   0.000000000000
| 22> O    0.166384000000   1.360084000000   0.000000000000
| 23> O   -1.236449000000  -0.415036000000   0.000000000000
| 24> H   -1.867646000000   0.333582000000   0.000000000000
| 25> H    2.048189000000  -0.408135000000   0.000000000000
| 26> H    0.968661000000  -1.528353000000   0.881747000000
| 27> H    0.968661000000  -1.528353000000  -0.881747000000
| 28> *
| 29> 
| 30> 
| 31>                          ****END OF INPUT****
================================================================================

                       ****************************
                       * Single Point Calculation *
                       ****************************

---------------------------------
CARTESIAN COORDINATES (ANGSTROEM)
---------------------------------
  C      0.000000    0.154560    0.000000
  C      1.073776   -0.892748    0.000000
  O      0.166384    1.360084    0.000000
  O     -1.236449   -0.415036    0.000000
  H     -1.867646    0.333582    0.000000
  H      2.048189   -0.408135    0.000000
  H      0.968661   -1.528353    0.881747
  H      0.968661   -1.528353   -0.881747

----------------------------
CARTESIAN COORDINATES (A.U.)
----------------------------
  NO LB      ZA    FRAG     MASS         X           Y           Z
   0 C     6.0000    0    12.011    0.000000    0.292076    0.000000
   1 C     6.0000    0    12.011    2.029143   -1.687049    0.000000
   2 O     8.0000    0    15.999    0.314420    2.570186    0.000000
   3 O     8.0000    0    15.999   -2.336550   -0.784304    0.000000
   4 H     1.0000    0     1.008   -3.529339    0.630379    0.000000
   5 H     1.0000    0     1.008    3.870516   -0.771263    0.000000
   6 H     1.0000    0     1.008    1.830504   -2.888169    1.666260
   7 H     1.0000    0     1.008    1.830504   -2.888169   -1.666260

--------------------------------
INTERNAL COORDINATES (ANGSTROEM)
--------------------------------
 C      0   0   0     0.000000000000     0.00000000     0.00000000
 C      1   0   0     1.499949647502     0.00000000     0.00000000
 O      1   2   0     1.216951827326   126.42686784     0.00000000
 O      1   2   3     1.361339683113   110.98078396   180.00000000
 H      4   1   2     0.979203024267   105.40175469   180.00000085
 H      2   1   3     1.088269476893   109.27200725     0.00000000
 H      2   1   3     1.092025938913   109.72406365   120.93315147
 H      2   1   3     1.092025938913   109.72406365   239.06684853

---------------------------
INTERNAL COORDINATES (A.U.)
---------------------------
 C      0   0   0     0.000000000000     0.00000000     0.00000000
 C      1   0   0     2.834494048450     0.00000000     0.00000000
 O      1   2   0     2.299705671821   126.42686784     0.00000000
 O      1   2   3     2.572559176322   110.98078396   180.00000000
 H      4   1   2     1.850425545371   105.40175469   180.00000085
 H      2   1   3     2.056531271234   109.27200725     0.00000000
 H      2   1   3     2.063629955684   109.72406365   120.93315147
 H      2   1   3     2.063629955684   109.72406365   239.06684853

---------------------
BASIS SET INFORMATION
---------------------
There are 3 groups of distinct atoms

 Group   1 Type C   : 18s5p2d1f contracted to 4s3p2d1f pattern {8811/311/11/1}
 Group   2 Type O   : 18s5p2d1f contracted to 4s3p2d1f pattern {8811/311/11/1}
 Group   3 Type H   : 5s2p1d contracted to 3s2p1d pattern {311/11/1}

Atom   0C    basis set group =>   1
Atom   1C    basis set group =>   1
Atom   2O    basis set group =>   2
Atom   3O    basis set group =>   2
Atom   4H    basis set group =>   3
Atom   5H    basis set group =>   3
Atom   6H    basis set group =>   3
Atom   7H    basis set group =>   3


           ************************************************************
           *        Program running with 8 parallel MPI-processes     *
           *              working on a common directory               *
           ************************************************************
------------------------------------------------------------------------------
                             ORCA STARTUP CALCULATIONS
------------------------------------------------------------------------------
------------------------------------------------------------------------------
                   ___                                                        
                  /   \      - P O W E R E D   B Y -                         
                 /     \                                                     
                 |  |  |   _    _      __       _____    __    __             
                 |  |  |  | |  | |    /  \     |  _  \  |  |  /  |          
                  \  \/   | |  | |   /    \    | | | |  |  | /  /          
                 / \  \   | |__| |  /  /\  \   | |_| |  |  |/  /          
                |  |  |   |  __  | /  /__\  \  |    /   |      \           
                |  |  |   | |  | | |   __   |  |    \   |  |\   \          
                \     /   | |  | | |  |  |  |  | |\  \  |  | \   \       
                 \___/    |_|  |_| |__|  |__|  |_| \__\ |__|  \__/        
                                                                              
                      - O R C A' S   B I G   F R I E N D -                    
                                      &                                       
                       - I N T E G R A L  F E E D E R -                       
                                                                              
 v1 FN, 2020, v2 2021, v3 2022-2024                                           
------------------------------------------------------------------------------


----------------------
SHARK INTEGRAL PACKAGE
----------------------

Number of atoms                             ...      8
Number of basis functions                   ...    200
Number of shells                            ...     88
Maximum angular momentum                    ...      3
Integral batch strategy                     ... SHARK/LIBINT Hybrid
RI-J (if used) integral strategy            ... SPLIT-RIJ (Revised 2003 algorithm where possible)
Printlevel                                  ...      1
Contraction scheme used                     ... PARTIAL GENERAL contraction
Prescreening option                         ... SCHWARTZ
   Thresh                                   ... 2.500e-11
   Tcut                                     ... 2.500e-12
   Tpresel                                  ... 2.500e-12 
Coulomb Range Separation                    ... NOT USED
Exchange Range Separation                   ... NOT USED
Multipole approximations                    ... NOT USED
Finite Nucleus Model                        ... NOT USED
CABS basis                                  ... NOT available
Auxiliary Coulomb fitting basis             ... NOT available
Auxiliary J/K fitting basis                 ... NOT available
Auxiliary Correlation fitting basis         ... NOT available
Auxiliary 'external' fitting basis          ... NOT available

Checking pre-screening integrals            ... done (  0.0 sec) Dimension = 88
Save PGC pre-screening integrals            ... done (  0.0 sec) Dimension = 88
Calculate PGC overlap integrals             ... done (  0.0 sec) Dimension = 64
Calculating pre-screening integrals (ORCA)  ... done (  0.0 sec) Dimension = 64
Shell pair information
Shell pair cut-off parameter TPreSel        ...   2.5e-12
Total number of shell pairs                 ...      3916
Shell pairs after pre-screening             ...      3432
Total number of primitive shell pairs       ...      5484
Primitive shell pairs kept                  ...      4462
          la=0 lb=0:   1037 shell pairs
          la=1 lb=0:    962 shell pairs
          la=1 lb=1:    206 shell pairs
          la=2 lb=0:    568 shell pairs
          la=2 lb=1:    237 shell pairs
          la=2 lb=2:     78 shell pairs
          la=3 lb=0:    206 shell pairs
          la=3 lb=1:     80 shell pairs
          la=3 lb=2:     48 shell pairs
          la=3 lb=3:     10 shell pairs

Checking whether 4 symmetric matrices of dimension 200 fit in memory
:Max Core in MB      =   4096.00
 MB in use           =      5.78
 MB left             =   4090.22
 MB needed           =      0.61
 Data fit in memory  = YES
Calculating Nuclear repulsion               ... done (  0.0 sec) ENN=    120.693288504615 Eh

Diagonalization of the overlap matrix:
Smallest eigenvalue                        ... 8.493e-04
Time for diagonalization                   ...    0.002 sec
Threshold for overlap eigenvalues          ... 1.000e-07
Number of eigenvalues below threshold      ... 0
Time for construction of square roots      ...    0.002 sec
Total time needed                          ...    0.007 sec

-------------------
DFT GRID GENERATION
-------------------

General Integration Accuracy     IntAcc      ... 4.388
Radial Grid Type                 RadialGrid  ... OptM3 with GC (2021)
Angular Grid (max. ang.)         AngularGrid ... 4 (Lebedev-302)
Angular grid pruning method      GridPruning ... 4 (adaptive)
Weight generation scheme         WeightScheme... mBecke (2022)
Basis function cutoff            BFCut       ... 1.0000e-11
Integration weight cutoff        WCut        ... 1.0000e-14
Partially contracted basis set               ... off
Rotationally invariant grid construction     ... off
Angular grids for H and He will be reduced by one unit

Total number of grid points                  ...    37392
Total number of batches                      ...      588
Average number of points per batch           ...       63
Average number of grid points per atom       ...     4674

---------------------
SHARK GRID GENERATION
---------------------

General Integration Accuracy     IntAcc      ... 4.388
Radial Grid Type                 RadialGrid  ... OptM3 with GC (2021)
Angular Grid (max. ang.)         AngularGrid ... 4 (Lebedev-302)
Angular grid pruning method      GridPruning ... 4 (adaptive)
Weight generation scheme         WeightScheme... mBecke (2022)
Basis function cutoff            BFCut       ... 1.0000e-11
Integration weight cutoff        WCut        ... 1.0000e-14
Partially contracted basis set               ... off
Rotationally invariant grid construction     ... off
Angular grids for H and He will be reduced by one unit
Steep s-basis detected: some atoms will have their radial
                        grid points doubled.

Total number of grid points                  ...    62114
Total number of batches                      ...      975
Average number of points per batch           ...       63
Average number of grid points per atom       ...     7764
Grids setup in   0.4 sec
Initializing property integral containers    ... done (  0.0 sec)

SHARK setup successfully completed in   0.6 seconds

Maximum memory used throughout the entire STARTUP-calculation: 20.0 MB


           ************************************************************
           *        Program running with 8 parallel MPI-processes     *
           *              working on a common directory               *
           ************************************************************
-------------------------------------------------------------------------------
                                 ORCA GUESS
                   Start orbitals & Density for SCF / CASSCF
-------------------------------------------------------------------------------

------------
SCF SETTINGS
------------
Hamiltonian:
 Density Functional     Method          .... DFT(GTOs)
  Functional kind                       .... Exchange
  Functional name                       .... Minnesota N12 exchange functional
  Functional family                     .... GGA
  Functional refs                              
    [ 0] R. Peverati and D. G. Truhlar.,  J. Chem. Theory Comput. 8, 2310 (2012), doi: 10.1021/ct3002656
  Functional external parameters        .... 16
    Parameter  0 _CC00      =  1.000000e+00 : _CC00               
    Parameter  1 _CC01      =  5.078800e-01 : _CC01               
    Parameter  2 _CC02      =  1.682330e-01 : _CC02               
    Parameter  3 _CC03      =  1.288870e-01 : _CC03               
    Parameter  4 _CC10      =  8.602110e-02 : _CC10               
    Parameter  5 _CC11      = -1.710080e+01 : _CC11               
    Parameter  6 _CC12      =  6.508140e+01 : _CC12               
    Parameter  7 _CC13      = -7.017260e+01 : _CC13               
    Parameter  8 _CC20      = -3.907550e-01 : _CC20               
    Parameter  9 _CC21      =  5.133920e+01 : _CC21               
    Parameter 10 _CC22      = -1.662200e+02 : _CC22               
    Parameter 11 _CC23      =  1.427380e+02 : _CC23               
    Parameter 12 _CC30      =  4.036110e-01 : _CC30               
    Parameter 13 _CC31      = -3.446310e+01 : _CC31               
    Parameter 14 _CC32      =  7.616610e+01 : _CC32               
    Parameter 15 _CC33      = -2.418340e+00 : _CC33               
  Functional kind                       .... Correlation
  Functional name                       .... Minnesota N12 correlation functional
  Functional family                     .... GGA
  Functional refs                              
    [ 0] R. Peverati and D. G. Truhlar.,  J. Chem. Theory Comput. 8, 2310 (2012), doi: 10.1021/ct3002656
  Functional external parameters        .... 10
    Parameter  0 _css0      =  1.000000e+00 : u^0 coefficient for same-spin correlation
    Parameter  1 _css1      = -5.531700e+00 : u^1 coefficient for same-spin correlation
    Parameter  2 _css2      =  3.079580e+01 : u^2 coefficient for same-spin correlation
    Parameter  3 _css3      = -5.641960e+01 : u^3 coefficient for same-spin correlation
    Parameter  4 _css4      =  3.212500e+01 : u^4 coefficient for same-spin correlation
    Parameter  5 _cos0      =  1.000000e+00 : u^0 coefficient for opposite-spin correlation
    Parameter  6 _cos1      =  3.245110e+00 : u^1 coefficient for opposite-spin correlation
    Parameter  7 _cos2      = -2.528930e+01 : u^2 coefficient for opposite-spin correlation
    Parameter  8 _cos3      =  1.444070e+01 : u^3 coefficient for opposite-spin correlation
    Parameter  9 _cos4      =  1.968700e+01 : u^4 coefficient for opposite-spin correlation
 Gradients option       PostSCFGGA      .... off


General Settings:
 Integral files         IntName         .... /cluster/projects/nn14654k/ylvaos/basis_set_n_funcs/functionals/N12/CH3COOH/inp/CH3COOH_N12_ccpvtz
 Hartree-Fock type      HFTyp           .... RHF
 Total Charge           Charge          ....    0
 Multiplicity           Mult            ....    1
 Number of Electrons    NEL             ....   32
 Basis Dimension        Dim             ....  176
 Nuclear Repulsion      ENuc            ....    120.6932885046 Eh

Convergence Acceleration:
 AO-DIIS                CNVDIIS         .... on
   Start iteration      DIISMaxIt       ....    12
   Startup error        DIISStart       ....  0.200000
   # of expansion vecs  DIISMaxEq       ....     5
   Bias factor          DIISBfac        ....   1.050
   Max. coefficient     DIISMaxC        ....  10.000
 MO-DIIS                CNVKDIIS        .... off
 Trust-Rad. Augm. Hess. CNVTRAH         .... auto
   Auto Start mean grad. ratio tolernc. ....  1.125000
   Auto Start start iteration           ....    50
   Auto Start num. interpolation iter.  ....    10
   Max. Number of Micro iterations      ....    24
   Max. Number of Macro iterations      .... Maxiter - #DIIS iter
   Number of Davidson start vectors     ....     2
   Converg. threshold    (grad. norm)   ....   1.000e-05
   Grad. Scal. Fac. for Micro threshold ....   0.100
   Minimum threshold for Micro iter.    ....   1.000e-02
   NR start threshold (gradient norm)   ....   1.000e-04
   Initial trust radius                 ....   0.400
   Minimum AH scaling param. (alpha)    ....   1.000
   Maximum AH scaling param. (alpha)    .... 1000.000
   Quad. conv. algorithm                .... NR
   White noise on init. David. guess    .... on
   Maximum white noise                  ....   0.010
   Pseudo random numbers                .... off
   Inactive MOs                         .... canonical
   Orbital update algorithm             .... Taylor
   Preconditioner                       .... Diag
   Full preconditioner red. dimension   ....   250
 SOSCF                 CNVSOSCF           .... on
   Start iteration     SOSCFMaxIt         ....   150
   Startup grad/error  SOSCFStart         ....  0.003300
   Hessian update      SOSCFHessUp        .... L-BFGS
   Autom. constraints  SOSCFAutoConstrain .... off
 Level Shifting         CNVShift        .... on
   Level shift para.    LevelShift      ....    0.2500
   Turn off err/grad.   ShiftErr        ....    0.0010
 Zerner damping         CNVZerner       .... off
 Static damping         CNVDamp         .... on
   Fraction old density DampFac         ....    0.7000
   Max. Damping (<1)    DampMax         ....    0.9800
   Min. Damping (>=0)   DampMin         ....    0.0000
   Turn off err/grad.   DampErr         ....    0.1000

SCF Procedure:
 Maximum # iterations   MaxIter         ....   125
 SCF integral mode      SCFMode         .... Direct
   Integral package                     .... SHARK and LIBINT hybrid scheme
 Reset frequency        DirectResetFreq ....    20
 Integral Threshold     Thresh          ....  2.500e-11 Eh
 Primitive CutOff       TCut            ....  2.500e-12 Eh

Convergence Tolerance:
 Convergence Check Mode ConvCheckMode   .... Total+1el-Energy
 Convergence forced     ConvForced      .... 0
 Energy Change          TolE            ....  1.000e-08 Eh
 1-El. energy change                    ....  1.000e-05 Eh
 Orbital Gradient       TolG            ....  1.000e-05
 Orbital Rotation angle TolX            ....  1.000e-05
 DIIS Error             TolErr          ....  5.000e-07

------------------------------
INITIAL GUESS: MODEL POTENTIAL
------------------------------
Loading Hartree-Fock densities                     ... done
Calculating cut-offs                               ... done
Initializing the effective Hamiltonian             ... done
Setting up the integral package (SHARK)            ... done
Starting the Coulomb interaction                   ... done (   0.0 sec)
Making the grid                                    ... done (   0.0 sec)
Mapping shells                                     ... done
Starting the XC term evaluation                    ... done (   0.0 sec)
  promolecular density results
     # of electrons  =     31.997224895
     EX              =    -27.201420021
     EC              =     -1.705860962
     EX+EC           =    -28.907280983
Transforming the Hamiltonian                       ... done (   0.0 sec)
Diagonalizing the Hamiltonian                      ... done (   0.0 sec)
Back transforming the eigenvectors                 ... done (   0.0 sec)
Now organizing SCF variables                       ... done
                      ------------------
                      INITIAL GUESS DONE (   0.1 sec)
                      ------------------
             **** ENERGY FILE WAS UPDATED (/cluster/projects/nn14654k/ylvaos/basis_set_n_funcs/functionals/N12/CH3COOH/inp/CH3COOH_N12_ccpvtz.en.tmp) ****
Finished Guess after   0.2 sec
Maximum memory used throughout the entire GUESS-calculation: 10.1 MB


           ************************************************************
           *        Program running with 8 parallel MPI-processes     *
           *              working on a common directory               *
           ************************************************************

-------------------------------------------------------------------------------------------
                                      ORCA LEAN-SCF
                              memory conserving SCF solver
-------------------------------------------------------------------------------------------

----------------------------------------D-I-I-S--------------------------------------------
Iteration    Energy (Eh)           Delta-E    RMSDP     MaxDP     DIISErr   Damp  Time(sec)
-------------------------------------------------------------------------------------------
               ***  Starting incremental Fock matrix formation  ***
    1    -228.8599347269832833     0.00e+00  7.91e-03  7.15e-02  3.68e-01  0.700   0.4
    2    -228.9913339980216165    -1.31e-01  4.85e-03  4.53e-02  1.14e-01  0.700   0.5
                               ***Turning on AO-DIIS***
    3    -229.0260063706765550    -3.47e-02  1.56e-03  1.21e-02  3.34e-02  0.700   0.3
    4    -229.0512630126896170    -2.53e-02  2.12e-03  2.08e-02  2.38e-02  0.000   0.3
    5    -229.1116584590653247    -6.04e-02  1.03e-03  9.76e-03  1.56e-02  0.000   0.3
    6    -229.1123899888299889    -7.32e-04  3.45e-04  2.26e-03  4.99e-03  0.000   0.3
                              *** Initializing SOSCF ***
---------------------------------------S-O-S-C-F--------------------------------------
Iteration    Energy (Eh)           Delta-E    RMSDP     MaxDP     MaxGrad    Time(sec)
--------------------------------------------------------------------------------------
    7    -229.1124484351436763    -5.84e-05  1.33e-04  1.14e-03  2.03e-03     0.3
               *** Restarting incremental Fock matrix formation ***
    8    -229.1124601299714527    -1.17e-05  8.05e-05  1.02e-03  1.69e-04     0.3
    9    -229.1124604908879405    -3.61e-07  3.57e-05  4.03e-04  2.26e-04     0.3
   10    -229.1124606095165746    -1.19e-07  4.14e-05  4.92e-04  2.09e-04     0.3
   11    -229.1124608189722380    -2.09e-07  1.48e-05  1.08e-04  1.00e-04     0.3
   12    -229.1124608400009492    -2.10e-08  1.73e-05  2.06e-04  7.98e-05     0.4
   13    -229.1124609275893818    -8.76e-08  5.98e-06  5.11e-05  2.65e-05     0.3
   14    -229.1124609296015819    -2.01e-09  3.27e-06  2.89e-05  2.13e-05     0.2
                 **** Energy Check signals convergence ****

               *****************************************************
               *                     SUCCESS                       *
               *           SCF CONVERGED AFTER  14 CYCLES          *
               *****************************************************

             **** ENERGY FILE WAS UPDATED (/cluster/projects/nn14654k/ylvaos/basis_set_n_funcs/functionals/N12/CH3COOH/inp/CH3COOH_N12_ccpvtz.en.tmp) ****

----------------
TOTAL SCF ENERGY
----------------

Total Energy       :       -229.11246093757524 Eh           -6234.46702 eV

Components:
Nuclear Repulsion  :        120.69328850461517 Eh            3284.23135 eV
Electronic Energy  :       -349.80574944219040 Eh           -9518.69836 eV
One Electron Energy:       -552.03059339202491 Eh          -15021.51613 eV
Two Electron Energy:        202.22484394983451 Eh            5502.81776 eV

Virial components:
Potential Energy   :       -456.51107463604933 Eh          -12422.29788 eV
Kinetic Energy     :        227.39861369847409 Eh            6187.83086 eV
Virial Ratio       :          2.00753675324236

DFT components:
N(Alpha)           :       15.999986409022 electrons
N(Beta)            :       15.999986409022 electrons
N(Total)           :       31.999972818045 electrons
E(X)               :      -27.774381204862 Eh       
E(C)               :       -1.733468155296 Eh       
E(XC)              :      -29.507849360157 Eh       

---------------
SCF CONVERGENCE
---------------

  Last Energy change         ...    2.0122e-09  Tolerance :   1.0000e-08
  Last MAX-Density change    ...    2.8852e-05  Tolerance :   1.0000e-07
  Last RMS-Density change    ...    3.2702e-06  Tolerance :   5.0000e-09
  Last DIIS Error            ...    2.0252e-03  Tolerance :   5.0000e-07
  Last Orbital Gradient      ...    2.1276e-05  Tolerance :   1.0000e-05
  Last Orbital Rotation      ...    2.0145e-05  Tolerance :   1.0000e-05


----------------
ORBITAL ENERGIES
----------------

  NO   OCC          E(Eh)            E(eV) 
   0   2.0000     -18.793587      -511.3995 
   1   2.0000     -18.734164      -509.7825 
   2   2.0000     -10.084259      -274.4066 
   3   2.0000      -9.962661      -271.0978 
   4   2.0000      -1.005750       -27.3679 
   5   2.0000      -0.918235       -24.9864 
   6   2.0000      -0.689773       -18.7697 
   7   2.0000      -0.550996       -14.9934 
   8   2.0000      -0.435375       -11.8471 
   9   2.0000      -0.420860       -11.4522 
  10   2.0000      -0.418959       -11.4004 
  11   2.0000      -0.366203        -9.9649 
  12   2.0000      -0.347203        -9.4479 
  13   2.0000      -0.346529        -9.4295 
  14   2.0000      -0.280898        -7.6436 
  15   2.0000      -0.234604        -6.3839 
  16   0.0000      -0.032952        -0.8967 
  17   0.0000       0.008062         0.2194 
  18   0.0000       0.036420         0.9910 
  19   0.0000       0.082917         2.2563 
  20   0.0000       0.089168         2.4264 
  21   0.0000       0.140744         3.8298 
  22   0.0000       0.174396         4.7456 
  23   0.0000       0.214117         5.8264 
  24   0.0000       0.239073         6.5055 
  25   0.0000       0.255505         6.9526 
  26   0.0000       0.298166         8.1135 
*Only the first 10 virtual orbitals were printed.

                    ********************************
                    * MULLIKEN POPULATION ANALYSIS *
                    ********************************

-----------------------
MULLIKEN ATOMIC CHARGES
-----------------------
   0 C :    0.241092
   1 C :   -0.258892
   2 O :   -0.288543
   3 O :   -0.234469
   4 H :    0.207102
   5 H :    0.112497
   6 H :    0.110607
   7 H :    0.110607
Sum of atomic charges:    0.0000000

--------------------------------
MULLIKEN REDUCED ORBITAL CHARGES
--------------------------------
  0 C s       :     3.101235  s :     3.101235
      pz      :     0.780068  p :     2.398919
      px      :     0.790423
      py      :     0.828428
      dz2     :     0.013542  d :     0.236570
      dxz     :     0.030299
      dyz     :     0.050909
      dx2y2   :     0.053213
      dxy     :     0.088607
      f0      :     0.002942  f :     0.022184
      f+1     :     0.001143
      f-1     :     0.001239
      f+2     :     0.002844
      f-2     :     0.001492
      f+3     :     0.007752
      f-3     :     0.004772

  1 C s       :     3.223468  s :     3.223468
      pz      :     1.029763  p :     2.993713
      px      :     0.974468
      py      :     0.989482
      dz2     :     0.006415  d :     0.038603
      dxz     :     0.003293
      dyz     :     0.012547
      dx2y2   :     0.005351
      dxy     :     0.010997
      f0      :     0.000191  f :     0.003107
      f+1     :     0.000294
      f-1     :     0.000674
      f+2     :    -0.000017
      f-2     :     0.000296
      f+3     :     0.000698
      f-3     :     0.000972

  2 O s       :     3.718548  s :     3.718548
      pz      :     1.392483  p :     4.535120
      px      :     1.762891
      py      :     1.379747
      dz2     :     0.003343  d :     0.032651
      dxz     :     0.000315
      dyz     :     0.010153
      dx2y2   :     0.010607
      dxy     :     0.008233
      f0      :     0.000205  f :     0.002224
      f+1     :     0.000035
      f-1     :     0.000288
      f+2     :     0.000430
      f-2     :     0.000043
      f+3     :     0.000605
      f-3     :     0.000619

  3 O s       :     3.709379  s :     3.709379
      pz      :     1.736579  p :     4.497284
      px      :     1.223240
      py      :     1.537465
      dz2     :     0.003838  d :     0.026368
      dxz     :     0.003037
      dyz     :     0.002721
      dx2y2   :     0.005852
      dxy     :     0.010920
      f0      :     0.000203  f :     0.001439
      f+1     :     0.000343
      f-1     :     0.000170
      f+2     :     0.000067
      f-2     :     0.000079
      f+3     :     0.000267
      f-3     :     0.000308

  4 H s       :     0.710400  s :     0.710400
      pz      :     0.028525  p :     0.074631
      px      :     0.020946
      py      :     0.025159
      dz2     :     0.000704  d :     0.007868
      dxz     :     0.001203
      dyz     :     0.001717
      dx2y2   :     0.001928
      dxy     :     0.002316

  5 H s       :     0.853696  s :     0.853696
      pz      :     0.010749  p :     0.030989
      px      :     0.010120
      py      :     0.010121
      dz2     :     0.000187  d :     0.002819
      dxz     :     0.000702
      dyz     :     0.000219
      dx2y2   :     0.000890
      dxy     :     0.000821

  6 H s       :     0.851269  s :     0.851269
      pz      :     0.011641  p :     0.035314
      px      :     0.011120
      py      :     0.012553
      dz2     :     0.000829  d :     0.002810
      dxz     :     0.000593
      dyz     :     0.000674
      dx2y2   :     0.000301
      dxy     :     0.000413

  7 H s       :     0.851269  s :     0.851269
      pz      :     0.011641  p :     0.035314
      px      :     0.011120
      py      :     0.012553
      dz2     :     0.000829  d :     0.002810
      dxz     :     0.000593
      dyz     :     0.000674
      dx2y2   :     0.000301
      dxy     :     0.000413



                     *******************************
                     * LOEWDIN POPULATION ANALYSIS *
                     *******************************

----------------------
LOEWDIN ATOMIC CHARGES
----------------------
   0 C :   -0.487559
   1 C :    0.099134
   2 O :    0.151388
   3 O :    0.409088
   4 H :   -0.142632
   5 H :   -0.012039
   6 H :   -0.008691
   7 H :   -0.008691

-------------------------------
LOEWDIN REDUCED ORBITAL CHARGES
-------------------------------
  0 C s       :     2.767082  s :     2.767082
      pz      :     0.744306  p :     2.646821
      px      :     0.884188
      py      :     1.018327
      dz2     :     0.062489  d :     0.925248
      dxz     :     0.103799
      dyz     :     0.158586
      dx2y2   :     0.249546
      dxy     :     0.350828
      f0      :     0.008236  f :     0.148408
      f+1     :     0.007227
      f-1     :     0.011490
      f+2     :     0.023418
      f-2     :     0.010813
      f+3     :     0.055106
      f-3     :     0.032116

  1 C s       :     2.671772  s :     2.671772
      pz      :     0.994869  p :     2.942558
      px      :     0.972263
      py      :     0.975426
      dz2     :     0.046673  d :     0.257281
      dxz     :     0.015858
      dyz     :     0.068923
      dx2y2   :     0.051492
      dxy     :     0.074335
      f0      :     0.001522  f :     0.029255
      f+1     :     0.004545
      f-1     :     0.005462
      f+2     :     0.003707
      f-2     :     0.002540
      f+3     :     0.004841
      f-3     :     0.006637

  2 O s       :     3.385360  s :     3.385360
      pz      :     1.306441  p :     4.392212
      px      :     1.608497
      py      :     1.477275
      dz2     :     0.008244  d :     0.065589
      dxz     :     0.000465
      dyz     :     0.013206
      dx2y2   :     0.025184
      dxy     :     0.018490
      f0      :     0.000429  f :     0.005450
      f+1     :     0.000130
      f-1     :     0.000770
      f+2     :     0.000692
      f-2     :     0.000116
      f+3     :     0.001723
      f-3     :     0.001590

  3 O s       :     3.205333  s :     3.205333
      pz      :     1.563131  p :     4.310059
      px      :     1.241022
      py      :     1.505906
      dz2     :     0.009453  d :     0.070354
      dxz     :     0.008203
      dyz     :     0.002469
      dx2y2   :     0.018213
      dxy     :     0.032016
      f0      :     0.000344  f :     0.005165
      f+1     :     0.000594
      f-1     :     0.000261
      f+2     :     0.000157
      f-2     :     0.000497
      f+3     :     0.001655
      f-3     :     0.001658

  4 H s       :     0.715866  s :     0.715866
      pz      :     0.090439  p :     0.331653
      px      :     0.095469
      py      :     0.145745
      dz2     :     0.008459  d :     0.095114
      dxz     :     0.013433
      dyz     :     0.018151
      dx2y2   :     0.028970
      dxy     :     0.026100

  5 H s       :     0.827625  s :     0.827625
      pz      :     0.041241  p :     0.154210
      px      :     0.067781
      py      :     0.045188
      dz2     :     0.002634  d :     0.030204
      dxz     :     0.007499
      dyz     :     0.002313
      dx2y2   :     0.009208
      dxy     :     0.008550

  6 H s       :     0.820664  s :     0.820664
      pz      :     0.062844  p :     0.158041
      px      :     0.040740
      py      :     0.054457
      dz2     :     0.009309  d :     0.029986
      dxz     :     0.005758
      dyz     :     0.008146
      dx2y2   :     0.003022
      dxy     :     0.003752

  7 H s       :     0.820664  s :     0.820664
      pz      :     0.062844  p :     0.158041
      px      :     0.040740
      py      :     0.054457
      dz2     :     0.009309  d :     0.029986
      dxz     :     0.005758
      dyz     :     0.008146
      dx2y2   :     0.003022
      dxy     :     0.003752



                      *****************************
                      * MAYER POPULATION ANALYSIS *
                      *****************************

  NA   - Mulliken gross atomic population
  ZA   - Total nuclear charge
  QA   - Mulliken gross atomic charge
  VA   - Mayer's total valence
  BVA  - Mayer's bonded valence
  FA   - Mayer's free valence

  ATOM       NA         ZA         QA         VA         BVA        FA
  0 C      5.7589     6.0000     0.2411     4.3954     4.3954    -0.0000
  1 C      6.2589     6.0000    -0.2589     3.8438     3.8438     0.0000
  2 O      8.2885     8.0000    -0.2885     2.3045     2.3045    -0.0000
  3 O      8.2345     8.0000    -0.2345     2.2825     2.2825    -0.0000
  4 H      0.7929     1.0000     0.2071     1.0544     1.0544    -0.0000
  5 H      0.8875     1.0000     0.1125     1.0046     1.0046     0.0000
  6 H      0.8894     1.0000     0.1106     1.0041     1.0041     0.0000
  7 H      0.8894     1.0000     0.1106     1.0041     1.0041     0.0000

  Mayer bond orders larger than 0.100000
B(  0-C ,  1-C ) :   0.9584 B(  0-C ,  2-O ) :   2.1391 B(  0-C ,  3-O ) :   1.2438 
B(  1-C ,  5-H ) :   0.9691 B(  1-C ,  6-H ) :   0.9528 B(  1-C ,  7-H ) :   0.9528 
B(  3-O ,  4-H ) :   0.9606 

-------
TIMINGS
-------

Total SCF time: 0 days 0 hours 0 min 4 sec 

Total time                  ....       4.904 sec
Sum of individual times     ....       4.630 sec  ( 94.4%)

SCF preparation             ....       0.080 sec  (  1.6%)
Fock matrix formation       ....       4.243 sec  ( 86.5%)
  Startup                   ....       0.011 sec  (  0.3% of F)
  Coulomb formation         ....       3.211 sec  ( 75.7% of F)
  XC integration            ....       0.832 sec  ( 19.6% of F)
    XC Preparation          ....       0.000 sec  (  0.0% of XC)
    Basis function eval.    ....       0.116 sec  ( 13.9% of XC)
    Density eval.           ....       0.075 sec  (  9.0% of XC)
    XC-Functional eval.     ....       0.065 sec  (  7.8% of XC)
    XC-Potential eval.      ....       0.151 sec  ( 18.1% of XC)
Diagonalization             ....       0.000 sec  (  0.0%)
Density matrix formation    ....       0.092 sec  (  1.9%)
Total Energy calculation    ....       0.019 sec  (  0.4%)
Population analysis         ....       0.012 sec  (  0.2%)
Orbital Transformation      ....       0.019 sec  (  0.4%)
Orbital Orthonormalization  ....       0.000 sec  (  0.0%)
DIIS solution               ....       0.078 sec  (  1.6%)
SOSCF solution              ....       0.089 sec  (  1.8%)
Finished LeanSCF after   4.9 sec

Maximum memory used throughout the entire LEANSCF-calculation: 14.3 MB


           ************************************************************
           *        Program running with 8 parallel MPI-processes     *
           *              working on a common directory               *
           ************************************************************

------------------------------------------------------------------------------
                         ORCA PROPERTY INTEGRAL CALCULATIONS
------------------------------------------------------------------------------

GBWName                                   ... /cluster/projects/nn14654k/ylvaos/basis_set_n_funcs/functionals/N12/CH3COOH/inp/CH3COOH_N12_ccpvtz.gbw
Number of atoms                           ...      8
Number of basis functions                 ...    200
Max core memory                           ...   4096 MB

Dipole integrals                          ... YES
Quadrupole integrals                      ... YES
Linear momentum integrals                 ...  NO
Angular momentum integrals                ...  NO
Higher moments length integrals           ...  NO
Higher moments velocity integrals         ...  NO
Kinetic energy integrals                  ...  NO
GIAO right hand sides                     ...  NO
GIAO dipole derivative integrals          ...  NO
SOC integrals                             ...  NO
EPR diamagnetic integrals (GIAO)          ...  NO
EPR gauge integrals                       ...  NO
Field gradient integrals                  ...  NO (   0 nuclei)
Spin-dipole/Fermi contact integrals       ...  NO (   0 nuclei)
Contact density integrals                 ...  NO (   0 nuclei)
Nucleus-orbit integrals                   ...  NO (   0 nuclei)
Geometric perturbations                   ...  NO (   8 nuclei)

Choice of electric origin   ... Center of mass
Position of electric origin ... ( -0.0657,  0.0975,  0.0000) 
Choice of magnetic origin   ... GIAO
Position of magnetic origin ... (  0.0000,  0.0000,  0.0000) 

Calculating integrals                     ... Electric Dipole (Length)     done (  0.0 sec)
Calculating integrals                     ... Electric Quadrupole (Length) done (  0.0 sec)

Property integrals calculated in   0.0 sec

Maximum memory used throughout the entire PROPINT-calculation: 10.8 MB
------------------------------------------------------------------------------
                           ORCA ORBITAL LOCALIZATION
------------------------------------------------------------------------------

Input orbitals are from                  ... /cluster/projects/nn14654k/ylvaos/basis_set_n_funcs/functionals/N12/CH3COOH/inp/CH3COOH_N12_ccpvtz.gbw
Output orbitals are to                   ... /cluster/projects/nn14654k/ylvaos/basis_set_n_funcs/functionals/N12/CH3COOH/inp/CH3COOH_N12_ccpvtz.loc
Max. number of iterations                ... 128
Localizations seeded randomly            ... on
Convergence tolerance                    ... 1.000e-06
Threshold for strong local MOs           ... 9.500e-01
Threshold for bond MOs                   ... 8.500e-01
Operator                                 ... 0
Orbital range for localization           ... 4 to 15
Localization criterion                   ... NEW-BOYS
Doing the dipole integrals               ... o.k.
Initial value of the localization sum :    58.905617
ITERATION   0 : L=   78.1764134506 DL=  1.93e+01 (AVERGE_DL)=    0.5403533738 
ITERATION   1 : L=   80.7198232704 DL=  2.54e+00 (AVERGE_DL)=    0.1963071889 
ITERATION   2 : L=   80.8647143005 DL=  1.45e-01 (AVERGE_DL)=    0.0468542275 
ITERATION   3 : L=   80.8817707394 DL=  1.71e-02 (AVERGE_DL)=    0.0160757859 
ITERATION   4 : L=   80.8869766455 DL=  5.21e-03 (AVERGE_DL)=    0.0088812930 
ITERATION   5 : L=   80.8893021028 DL=  2.33e-03 (AVERGE_DL)=    0.0059358404 
ITERATION   6 : L=   80.8908811042 DL=  1.58e-03 (AVERGE_DL)=    0.0048912436 
ITERATION   7 : L=   80.8920756336 DL=  1.19e-03 (AVERGE_DL)=    0.0042542838 
ITERATION   8 : L=   80.8929565628 DL=  8.81e-04 (AVERGE_DL)=    0.0036534110 
ITERATION   9 : L=   80.8935765088 DL=  6.20e-04 (AVERGE_DL)=    0.0030648201 
ITERATION  10 : L=   80.8939960143 DL=  4.20e-04 (AVERGE_DL)=    0.0025211393 
ITERATION  11 : L=   80.8942719195 DL=  2.76e-04 (AVERGE_DL)=    0.0020445981 
ITERATION  12 : L=   80.8944498562 DL=  1.78e-04 (AVERGE_DL)=    0.0016419536 
ITERATION  13 : L=   80.8945631071 DL=  1.13e-04 (AVERGE_DL)=    0.0013099323 
ITERATION  14 : L=   80.8946345561 DL=  7.14e-05 (AVERGE_DL)=    0.0010404612 
ITERATION  15 : L=   80.8946793705 DL=  4.48e-05 (AVERGE_DL)=    0.0008240187 
ITERATION  16 : L=   80.8947073708 DL=  2.80e-05 (AVERGE_DL)=    0.0006513426 
ITERATION  17 : L=   80.8947248192 DL=  1.74e-05 (AVERGE_DL)=    0.0005141686 
ITERATION  18 : L=   80.8947356742 DL=  1.09e-05 (AVERGE_DL)=    0.0004055489 
ITERATION  19 : L=   80.8947424187 DL=  6.74e-06 (AVERGE_DL)=    0.0003196708 
ITERATION  20 : L=   80.8947466065 DL=  4.19e-06 (AVERGE_DL)=    0.0002518949 
ITERATION  21 : L=   80.8947492046 DL=  2.60e-06 (AVERGE_DL)=    0.0001984085 
ITERATION  22 : L=   80.8947508160 DL=  1.61e-06 (AVERGE_DL)=    0.0001562492 
ITERATION  23 : L=   80.8947518155 DL=  1.00e-06 (AVERGE_DL)=    0.0001230615 
LOCALIZATION SUM CONVERGED


--------------------------------------------------------------------------------
                    LOCALIZED MOLECULAR ORBITAL COMPOSITIONS
--------------------------------------------------------------------------------

The Mulliken populations for each LMO on each atom are computed
The LMO`s will be ordered according to atom index and type
  (A) Strongly localized MO`s have populations of >=0.950 on one atom
  (B) Two center bond orbitals have populations of >=0.850 on two atoms
  (C) Other MO`s are considered to be `delocalized`

FOUND  -   1 strongly local MO`s
       -  11 two center bond MO`s
       -   0 significantly delocalized MO`s

Rather strongly localized orbitals:
MO   4:   3O  -   0.958993
Bond-like localized orbitals:
MO  15:   7H  -   0.453980  and   1C  -   0.544217
MO  14:   6H  -   0.453972  and   1C  -   0.544228
MO  13:   5H  -   0.452515  and   1C  -   0.565316
MO  12:   4H  -   0.376448  and   3O  -   0.631286
MO  11:   3O  -   0.685728  and   0C  -   0.339152
MO  10:   3O  -   0.870348  and   0C  -   0.122592
MO   9:   2O  -   0.656995  and   0C  -   0.355136
MO   8:   2O  -   0.918886  and   0C  -   0.073684
MO   7:   2O  -   0.657386  and   0C  -   0.354538
MO   6:   2O  -   0.925168  and   0C  -   0.078352
MO   5:   1C  -   0.511743  and   0C  -   0.514680
Localized MO's were stored in: /cluster/projects/nn14654k/ylvaos/basis_set_n_funcs/functionals/N12/CH3COOH/inp/CH3COOH_N12_ccpvtz.loc

-------------------------   --------------------
FINAL SINGLE POINT ENERGY      -229.112460937575
-------------------------   --------------------



           ************************************************************
           *        Program running with 8 parallel MPI-processes     *
           *              working on a common directory               *
           ************************************************************

------------------------------------------------------------------------------
                              ORCA PROPERTY CALCULATIONS
------------------------------------------------------------------------------

GBWName                                 ... /cluster/projects/nn14654k/ylvaos/basis_set_n_funcs/functionals/N12/CH3COOH/inp/CH3COOH_N12_ccpvtz.gbw
Number of atoms                         ...      8
Number of basis functions               ...    200
Max core memory                         ...   4096 MB

Electric properties:
Dipole moment                           ... YES
Quadrupole moment                       ... YES
Static polarizability (Dipole/Dipole)   ...  NO
Static polarizability (Dipole/Quad.)    ...  NO
Static polarizability (Quad./Quad.)     ...  NO
Static polarizability (Velocity)        ...  NO
Static hyperpolarizability              ...  NO

Atomic electric properties:
Dipole moment                           ...  NO
Quadrupole moment                       ...  NO
Static polarizability                   ...  NO

Choice of electric origin               ... Center of mass
Position of electric origin             ...    -0.065707     0.097461     0.000000

General magnetic properties:
Magnetizability                         ...  NO

EPR properties:
g-Tensor (aka g-matrix)                 ...  NO
Zero-Field splitting spin-orbit         ...  NO
Zero-field splitting spin-spin          ...  NO
Hyperfine couplings                     ...  NO (   0 nuclei)
Quadrupole couplings                    ...  NO (   0 nuclei)
Contact density                         ...  NO (   0 nuclei)

NMR properties:
Chemical shifts                         ...  NO (   0 nuclei)
Spin-rotation constants                 ...  NO (   0 nuclei)
Spin-spin couplings                     ...  NO (   0 nuclei,    0 pairs)

Choice of magnetic origin               ... GIAO
Position of magnetic origin             ...     0.000000     0.000000     0.000000

Properties with geometric perturbations:
SCF Hessian                             ...  NO
IR spectrum                             ...  NO
VCD spectrum                            ...  NO
X-ray spectroscopy properties:
SCF XES/XAS/RIXS spectra                ...  NO

SCF SOC stabilization energy            ...  NO
Diagonal Born-Oppenheimer correction    ...  NO

-------------
DIPOLE MOMENT
-------------

Method             : SCF
Type of density    : Electron Density
Multiplicity       :   1
Irrep              :   0
Energy             :  -229.1124609375752357 Eh
Basis              : AO
                                X                 Y                 Z
Electronic contribution:     -2.222628654       2.450614138      -0.000000002
Nuclear contribution   :      2.102617427      -3.118765285       0.000000000
                        -----------------------------------------
Total Dipole Moment    :     -0.120011227      -0.668151147      -0.000000002
                        -----------------------------------------
Magnitude (a.u.)       :      0.678843612
Magnitude (Debye)      :      1.725483335



--------------------
Rotational spectrum 
--------------------
 
Rotational constants in cm-1:             0.373252             0.316126             0.176788 
Rotational constants in MHz :         11189.819630          9477.229268          5299.974115 

Dipole components along the rotational axes: 
x,y,z [a.u.] :    -0.342767    -0.585952    -0.000000 
x,y,z [Debye]:    -0.871244    -1.489371    -0.000000 

 

Dipole moment calculation done in   0.0 sec 

-----------------
QUADRUPOLE MOMENT
-----------------

Method             : SCF
Type of density    : Electron Density
Multiplicity       :   1
Irrep              :   0
Energy             :  -229.1124609375752357 Eh
Basis              : AO

                XX              YY              ZZ              XY              XZ              YZ
  NUC      103.447904006    93.335807526     5.552847104   -15.402641721     0.000000000     0.000000000
  EL      -118.142947096  -113.225468163   -22.472934067    12.761492660    -0.000000006     0.000000003
  TOT      -14.695043090   -19.889660637   -16.920086963    -2.641149061    -0.000000006     0.000000003 (a.u.)
           -19.765335526   -26.752273784   -22.758095632    -3.552435814    -0.000000008     0.000000004 (Buckingham)

diagonalized tensor:
           -20.996630637   -16.920086963   -13.588073090 (a.u.)
           -28.241186291   -22.758095632   -18.276423019 (Buckingham)
           -15.447853931     1.001418046    14.446435886 (traceless form in Buckingham)

            -0.386545922     0.000000002    -0.922270161
            -0.922270161    -0.000000001     0.386545922
             0.000000000     1.000000000     0.000000002
        
Isotropic quadrupole :   -17.168263563

Quadrupole moment calculation done in   0.0 sec (  0.0 sec for integrals)

Maximum memory used throughout the entire PROP-calculation: 7.4 MB

--------------------------------
SUGGESTED CITATIONS FOR THIS RUN
--------------------------------

Below you find a list of papers that are relevant to this ORCA run
We neither can nor want to force you to cite these papers, but we appreciate if you do
You receive ORCA, which is the product of decades of hard work by many enthusiastic individuals, for free
The only thing we kindly ask in return is that you cite our papers,
We deeply appreciate it, if you show your appreciation for ORCA by not just citing the generic ORCA reference.

Please note that relegating all ORCA citations to the supporting information does *not* help us.
SI sections are not indexed - citations you put there will not count into any citation statistics
But we need these citations in order to attract the funding resources that allow us to do what we are doing

Therefore, if you are a happy ORCA user, please consider citing a few of the papers listed below in the main body of your paper

In addition to the list printed below, the program has created the file /cluster/projects/nn14654k/ylvaos/basis_set_n_funcs/functionals/N12/CH3COOH/inp/CH3COOH_N12_ccpvtz.bibtex that contains the list in bibtex format
You can import this file easily into all common literature databanks and citation aid programs

It goes without saying that in many instances, there are alternative algorithms to achieve similar
results as the ones you have gotten from ORCA. It is, of course, also the case that in some instances
ORCA just re-implements algorithms worked out by others. We are fully aware of that and we are also
fully appreciative of our colleagues work. Hence this citation list should not be read as indicating
that the listed papers, which are focused on our own work, are the only ones worth citing. It simply
meant to make it easier for users to cite ORCA specific papers. It is not a substitute for doing your
own literature research and citing the relevant literature in a scientifically appropriate manner.

List of essential papers. We consider these as the minimum necessary citations

  1. Neese, F.
     Software update: the ORCA program system, version 6.0
     WIRES Comput. Molec. Sci. 2025 15(1), e70019
     doi.org/10.1002/wcms.70019

List of papers to cite with high priority. The work reported in these papers was absolutely
necessary for this run to complete.
Our perspective: the developers of density functionals and basis sets usually get cited in chemistry papers
Good! But without the algorithms to do something with them, the functionals or basis sets would not do anything.
Hence, in our opinion, the algorithm design and method developments papers are equally worthy of getting cited

  1. Lehtola, S.; Steigemann, C.; Oliveira, M.; Marques, M.
     Recent developments in Libxc - A comprehensive library of functionals for density functional theory
     Software X 2018 7 , 
     doi.org/10.1016/j.softx.2017.11.002
  2. Neese, F.
     The SHARK Integral Generation and Digestion System
     J. Comp. Chem. 2022 44(3), 381
     doi.org/10.1002/jcc.26942

List of suggested additional citations. These are papers that are important in the 'surrounding' of 
of this run, or papers that preceded the highly important papers. If you like your results we are grateful for a citation.

  1. Neese, F.
     The ORCA program system
     WIRES Comput. Molec. Sci. 2012 2(1), 73-78
     doi.org/10.1002/wcms.81
  2. Neese, F.
     Software update: the ORCA program system, version 4.0
     WIRES Comput. Molec. Sci. 2018 8(1), 1-6
     doi.org/10.1002/wcms.1327
  3. Neese, F.; Wennmohs, F.; Becker, U.; Riplinger, C.
     The ORCA quantum chemistry program package
     J. Chem. Phys. 2020 152(22), 224108
     doi.org/10.1063/5.0004608
  4. Neese, F.
     Software update: The ORCA program system—Version 5.0
     WIRES Comput. Molec. Sci. 2022 12(1), e1606
     doi.org/10.1002/wcms.1606

List of optional additional citations

  1. Neese, F.
     Approximate second-order SCF convergence for spin unrestricted wavefunctions
     Chem. Phys. Lett. 2000 325(1-3), 93-98
     doi.org/10.1016/s0009-2614(00)00662-x

Timings for individual modules:

Sum of individual times          ...        7.254 sec (=   0.121 min)
Startup calculation              ...        0.848 sec (=   0.014 min)  11.7 %
SCF iterations                   ...        5.554 sec (=   0.093 min)  76.6 %
Property integrals               ...        0.349 sec (=   0.006 min)   4.8 %
Property calculations            ...        0.497 sec (=   0.008 min)   6.9 %
Orbital localization             ...        0.006 sec (=   0.000 min)   0.1 %
                             ****ORCA TERMINATED NORMALLY****
TOTAL RUN TIME: 0 days 0 hours 0 minutes 8 seconds 282 msec
