
                                 *****************
                                 * O   R   C   A *
                                 *****************

                                            #,                                       
                                            ###                                      
                                            ####                                     
                                            #####                                    
                                            ######                                   
                                           ########,                                 
                                     ,,################,,,,,                         
                               ,,#################################,,                 
                          ,,##########################################,,             
                       ,#########################################, ''#####,          
                    ,#############################################,,   '####,        
                  ,##################################################,,,,####,       
                ,###########''''           ''''###############################       
              ,#####''   ,,,,##########,,,,          '''####'''          '####       
            ,##' ,,,,###########################,,,                        '##       
           ' ,,###''''                  '''############,,,                           
         ,,##''                                '''############,,,,        ,,,,,,###''
      ,#''                                            '''#######################'''  
     '                                                          ''''####''''         
             ,#######,   #######,   ,#######,      ##                                
            ,#'     '#,  ##    ##  ,#'     '#,    #''#        ,####,    ,#,          
            ##       ##  ##   ,#'  ##            #'  '#       #'       ,# #          
            ##       ##  #######   ##           ,######,      #####,      #          
            '#,     ,#'  ##    ##  '#,     ,#' ,#      #,     #,   #      #          
             '#######'   ##     ##  '#######'  #'      '#     '####' #    #          



                #########################################################
                #                        -***-                          #
                #          Department of theory and spectroscopy        #
                #                                                       #
                #                      Frank Neese                      #
                #                                                       #
                #     Directorship, Architecture, Infrastructure        #
                #                    SHARK, DRIVERS                     #
                #        Core code/Algorithms in most modules           #
                #                                                       #
                #        Max Planck Institute fuer Kohlenforschung      #
                #                Kaiser Wilhelm Platz 1                 #
                #                 D-45470 Muelheim/Ruhr                 #
                #                      Germany                          #
                #                                                       #
                #                  All rights reserved                  #
                #                        -***-                          #
                #########################################################


                         Program Version 6.1.1  -  RELEASE   -
                                (GIT: $487d211c$)
                          ($2025-11-21 10:33:24 +0100$)


 With contributions from (in alphabetic order):
[Max-Planck-Institut fuer Kohlenforschung]                               
  Daniel Aravena         : Magnetic Suceptibility                        
  Michael Atanasov       : Ab Initio Ligand Field Theory (pilot matlab implementation)
  Alexander A. Auer      : GIAO ZORA, VPT2 properties, NMR spectrum      
  Ute Becker             : All parallelization in ORCA, NUMFREQ, NUMCALC 
  Giovanni Bistoni       : ED, misc. LED, open-shell LED, HFLD           
  Dmytro Bykov           : pre 5.0 version of the SCF Hessian            
  Marcos Casanova-Páez   : Triplet and SCS-CIS(D). UHF-(DLPNO)-IP/EA/STEOM-CCSD. UHF-CVS-IP/STEOM-CCSD   
  Vijay G. Chilkuri      : MRCI spin determinant printing, contributions to CSF-ICE 
  Pauline Colinet        : FMM embedding                                 
  Dipayan Datta          : RHF DLPNO-CCSD density                        
  Achintya Kumar Dutta   : EOM-CC, STEOM-CC                              
  Nicolas Foglia         : Exact transition moments, OPA infrastructure, MCD improvements    
  Dmitry Ganyushin       : Spin-Orbit,Spin-Spin,Magnetic field MRCI      
  Miquel Garcia-Rates    : C-PCM and meta-GGA Hessian, CCSD/C-PCM, Gaussian charge scheme 
  Tiago L. C. Gouveia    : GS-ROHF, GS-ROCIS                             
  Yang Guo               : DLPNO-NEVPT2, F12-NEVPT2, CIM, IAO-localization        
  Andreas Hansen         : Spin unrestricted coupled pair/coupled cluster methods 
  Ingolf Harden          : AUTO-CI MPn and infrastructure                
  Benjamin Helmich-Paris : MC-RPA, TRAH-(SCF,CASSCF), AVAS, COSX integrals, SCF dyn. polar., MC-PDFT, srDFT 
  Lee Huntington         : MR-EOM, pCC                                   
  Robert Izsak           : Overlap fitted RIJCOSX, COSX-SCS-MP3, EOM     
  Riya Kayal             : Wick's Theorem for AUTO-CI, AUTO-CI UHF-CCSDT 
  Emily Kempfer          : AUTO-CI RHF CISDT and CCSDT, approximate NEVPT4
  Christian Kollmar      : KDIIS, OOCD, Brueckner-CCSD(T), CCSD density, CASPT2, CASPT2-K, improved NEVPT2 
  Axel Koslowski         : Symmetry handling                             
  Simone Kossmann        : meta-GGA functionals, TD-DFT gradient, OOMP2, (MP2 Hessian; deprecated post 5.0) 
  Lucas Lang             : DCDCAS, Hyperfine gauge corrections, ICE-SOC+SSC
  Marvin Lechner         : AUTO-CI (C++ implementation), FIC-MRCC        
  Spencer Leger          : CASSCF response                               
  Dagmar Lenk            : GEPOL surface, SMD, ORCA-2-JSON               
  Dimitrios Liakos       : Extrapolation schemes; Compound Job, Property file
  Dimitrios Manganas     : Further ROCIS development; embedding schemes. LFT, Crystal Embedding 
  Dimitrios Pantazis     : SARC Basis sets                               
  Anastasios Papadopoulos: AUTO-CI, single reference methods and gradients 
  Taras Petrenko         : pre 6.0 DFT Hessian and TD-DFT gradient,  ECA, NRVS 
  Petra Pikulova         : Analytic Raman intensities                    
  Peter Pinski           : DLPNO-MP2, DLPNO-MP2 Gradient                 
  Shashank Vittal Rao    : ES-AILFT, MagRelax                            
  Christoph Reimann      : Effective Core Potentials                     
  Marius Retegan         : Local ZFS, SOC                                
  Christoph Riplinger    : Optimizer, TS searches, QM/MM, DLPNO-CCSD(T), (RO)-DLPNO pert. Triples 
  Michael Roemelt        : Original ROCIS implementation, recursive CI coupling coefficients
  Masaaki Saitow         : Open-shell DLPNO-CCSD energy and density      
  Barbara Sandhoefer     : DKH picture change effects                    
  Yorick L. A. Schmerwitz: GMF and freeze-and-release deltaSCF, NEB S-IDPP initial path                    
  Kantharuban Sivalingam : CASSCF convergence/infrastructure, NEVPT2, NEVPT3, NEVPT4(SD), FIC-MRCI and CEPA variants
  Bernardo de Souza      : ESD, SOC TD-DFT                               
  Georgi L. Stoychev     : AutoAux, RI-MP2 NMR, DLPNO-MP2 response, X2C  
  Van Anh Tran           : RI-MP2 g-tensors                              
  Willem Van den Heuvel  : Paramagnetic NMR                              
  Zikuan Wang            : NOTCH, Electric field optimization            
  Frank Wennmohs         : Technical directorship and infrastructure     
  Hang Xu                : AUTO-CI-Response properties                   
                                                                         
[FACCTs GmbH]                                                            
  Markus Bursch, Nicolas Foglia, Miquel Garcia-Rates, Ingolf Harden, Hagen Neugebauer, Anastasios Papadopoulos, 
  Christoph Riplinger, Bernardo de Souza, Georgi L. Stoychev                                                    
                                                                 
  APM, various basis sets, CI-OPT, improved COSX, DLPNO-Multilevel,           
  DOCKER, DRACO, updates on ESD, Fragmentator, GOAT, IRC, LR-CPCM, L-BFGS, MBIS, meta-GGA TD-DFT gradient, ML-optimized integration grids, 
  MM, NACMEs, nearIR, NEB, NEB-TS, NL-DFT gradient (VV10), 2- and 3-layer-ONIOM, interface openCOSMO-RS, QMMM,   
  Crystal-QMMM, RESP, rigid body optimization, SF, symmetry and pop. for TD-DFT, various functionals, SOLVATOR                                   
                                                                         
[Other institutions]                                                     
  V. Asgeirsson          : NEB                                           
  Christoph Bannwarth    : sTDA-DFT, sTD-DFT, PBEh-3c, B97-3c, D3        
  Giovanni Bistoni       : ETS/NOCV, ADLD/ADEX, COVALED                  
  Martin Brehm           : Molecular dynamics                            
  Ronald Cardenas        : ETS/NOCV                                      
  Martina Colucci        : COVALED                                       
  Sebastian Ehlert       : rSCAN, r2SCAN, r2SCAN-3c, D4, dhf basis sets  
  Marvin Friede          : D4 for Fr, Ra, Ac-Lr                          
  Lars Goerigk           : TD-DFT with DH, B97 family of functionals     
  Stefan Grimme          : VdW corrections, initial TS optimization, DFT functionals, gCP, sTDA/sTD-DF 
  Waldemar Hujo          : DFT-NL                                        
  H. Jonsson             : NEB                                           
  Holger Kruse           : gCP                                           
  Marcel Mueller         : wB97X-3c, vDZP basis set                      
  Hagen Neugebauer       : wr2SCAN, Native XTB                           
  Gianluca Regni         : ADLD/ADEX                                     
  Tobias Risthaus        : pre 6.0 range-separated hybrid DFT and stability analysis
  Lukas Wittmann         : regularized MP2, r2SCAN double-hybrids, wr2SCAN        
                                                                         
We gratefully acknowledge several colleagues who have allowed us to      
interface, adapt or use parts of their codes:                            
  Ed Valeev, F. Pavosevic, A. Kumar             : LibInt (2-el integral package), F12 methods 
  Garnet Chan, S. Sharma, J. Yang, R. Olivares  : DMRG                   
  Ulf Ekstrom                                   : XCFun DFT Library      
  Mihaly Kallay                                 : mrcc  (arbitrary order and MRCC methods)
  Frank Weinhold                                : gennbo (NPA and NBO analysis)           
  Simon Mueller                                 : openCOSMO-RS                            
  Christopher J. Cramer and Donald G. Truhlar   : smd solvation model                     
  S Lehtola, MJT Oliveira, MAL Marques          : LibXC Library                           
  Liviu Ungur et al                             : ANISO software                          


 Your calculation uses the libint2 library for the computation of 2-el integrals
 For citations please refer to: http://libint.valeyev.net

 Your ORCA version has been built with support for libXC version: 7.0.0
 For citations please refer to: https://libxc.gitlab.io

 This ORCA versions uses:
   CBLAS   interface :  Fast vector & matrix operations
   LAPACKE interface :  Fast linear algebra routines
   SCALAPACK package :  Parallel linear algebra routines
   Shared memory     :  Shared parallel matrices
   BLAS/LAPACK       :  OpenBLAS 0.3.29  USE64BITINT DYNAMIC_ARCH NO_AFFINITY Cooperlake SINGLE_THREADED
        Core in use  :  Cooperlake
   Copyright (c) 2011-2014, The OpenBLAS Project


  ***********************************
  * Starting time: Wed May 20 12:33:45 2026
  * Host name:     c1-9
  * Process ID:    1183147
  * Working dir.:  /cluster/projects/nn14654k/ylvaos/basis_set_n_funcs/functionals/N12/CH3COOH/out
  ***********************************

Using LibXC functional ID  82 : Minnesota N12 exchange functional
[ 1]  R. Peverati and D. G. Truhlar.,  J. Chem. Theory Comput. 8, 2310 (2012)
Using LibXC functional ID  80 : Minnesota N12 correlation functional
[ 1]  R. Peverati and D. G. Truhlar.,  J. Chem. Theory Comput. 8, 2310 (2012)
Using LibXC functional ID  82 : Minnesota N12 exchange functional
[ 1]  R. Peverati and D. G. Truhlar.,  J. Chem. Theory Comput. 8, 2310 (2012)
Using LibXC functional ID  80 : Minnesota N12 correlation functional
[ 1]  R. Peverati and D. G. Truhlar.,  J. Chem. Theory Comput. 8, 2310 (2012)
Your calculation utilizes LibXC
by S. Lehtola, C. Steigemann, M. J. T. Oliveira & M. A. L. Marques
Please cite in your paper:
Lehtola, S.; Steigemann, C.; Oliveira, M.J.T.; Marques, M. A. L. Software X, 7, (2018), 1.
   

================================================================================

----- Orbital basis set information -----
Your calculation utilizes the basis: def2-SVP
   F. Weigend and R. Ahlrichs, Phys. Chem. Chem. Phys. 7, 3297 (2005).

================================================================================
                                        WARNINGS
                       Please study these warnings very carefully!
================================================================================


================================================================================
                                       INPUT FILE
================================================================================
NAME = /cluster/projects/nn14654k/ylvaos/basis_set_n_funcs/functionals/N12/CH3COOH/inp/CH3COOH_N12_def2svp.inp
|  1> ! dft def2-SVP TightSCF
|  2> %pal nprocs 8 end
|  3> 
|  4> %loc
|  5>   LocMet NewBoys
|  6>   Occ true
|  7> end
|  8> 
|  9> %method
| 10>   exchange gga_x_N12
| 11>   correlation gga_c_N12
| 12> end
| 13> 
| 14> %elprop
| 15>   Dipole true
| 16>   Quadrupole true
| 17> end
| 18> 
| 19> * xyz 0 1
| 20> C    0.000000000000   0.154560000000   0.000000000000
| 21> C    1.073776000000  -0.892748000000   0.000000000000
| 22> O    0.166384000000   1.360084000000   0.000000000000
| 23> O   -1.236449000000  -0.415036000000   0.000000000000
| 24> H   -1.867646000000   0.333582000000   0.000000000000
| 25> H    2.048189000000  -0.408135000000   0.000000000000
| 26> H    0.968661000000  -1.528353000000   0.881747000000
| 27> H    0.968661000000  -1.528353000000  -0.881747000000
| 28> *
| 29> 
| 30> 
| 31>                          ****END OF INPUT****
================================================================================

                       ****************************
                       * Single Point Calculation *
                       ****************************

---------------------------------
CARTESIAN COORDINATES (ANGSTROEM)
---------------------------------
  C      0.000000    0.154560    0.000000
  C      1.073776   -0.892748    0.000000
  O      0.166384    1.360084    0.000000
  O     -1.236449   -0.415036    0.000000
  H     -1.867646    0.333582    0.000000
  H      2.048189   -0.408135    0.000000
  H      0.968661   -1.528353    0.881747
  H      0.968661   -1.528353   -0.881747

----------------------------
CARTESIAN COORDINATES (A.U.)
----------------------------
  NO LB      ZA    FRAG     MASS         X           Y           Z
   0 C     6.0000    0    12.011    0.000000    0.292076    0.000000
   1 C     6.0000    0    12.011    2.029143   -1.687049    0.000000
   2 O     8.0000    0    15.999    0.314420    2.570186    0.000000
   3 O     8.0000    0    15.999   -2.336550   -0.784304    0.000000
   4 H     1.0000    0     1.008   -3.529339    0.630379    0.000000
   5 H     1.0000    0     1.008    3.870516   -0.771263    0.000000
   6 H     1.0000    0     1.008    1.830504   -2.888169    1.666260
   7 H     1.0000    0     1.008    1.830504   -2.888169   -1.666260

--------------------------------
INTERNAL COORDINATES (ANGSTROEM)
--------------------------------
 C      0   0   0     0.000000000000     0.00000000     0.00000000
 C      1   0   0     1.499949647502     0.00000000     0.00000000
 O      1   2   0     1.216951827326   126.42686784     0.00000000
 O      1   2   3     1.361339683113   110.98078396   180.00000000
 H      4   1   2     0.979203024267   105.40175469   180.00000085
 H      2   1   3     1.088269476893   109.27200725     0.00000000
 H      2   1   3     1.092025938913   109.72406365   120.93315147
 H      2   1   3     1.092025938913   109.72406365   239.06684853

---------------------------
INTERNAL COORDINATES (A.U.)
---------------------------
 C      0   0   0     0.000000000000     0.00000000     0.00000000
 C      1   0   0     2.834494048450     0.00000000     0.00000000
 O      1   2   0     2.299705671821   126.42686784     0.00000000
 O      1   2   3     2.572559176322   110.98078396   180.00000000
 H      4   1   2     1.850425545371   105.40175469   180.00000085
 H      2   1   3     2.056531271234   109.27200725     0.00000000
 H      2   1   3     2.063629955684   109.72406365   120.93315147
 H      2   1   3     2.063629955684   109.72406365   239.06684853

---------------------
BASIS SET INFORMATION
---------------------
There are 3 groups of distinct atoms

 Group   1 Type C   : 7s4p1d contracted to 3s2p1d pattern {511/31/1}
 Group   2 Type O   : 7s4p1d contracted to 3s2p1d pattern {511/31/1}
 Group   3 Type H   : 4s1p contracted to 2s1p pattern {31/1}

Atom   0C    basis set group =>   1
Atom   1C    basis set group =>   1
Atom   2O    basis set group =>   2
Atom   3O    basis set group =>   2
Atom   4H    basis set group =>   3
Atom   5H    basis set group =>   3
Atom   6H    basis set group =>   3
Atom   7H    basis set group =>   3


           ************************************************************
           *        Program running with 8 parallel MPI-processes     *
           *              working on a common directory               *
           ************************************************************
------------------------------------------------------------------------------
                             ORCA STARTUP CALCULATIONS
------------------------------------------------------------------------------
------------------------------------------------------------------------------
                   ___                                                        
                  /   \      - P O W E R E D   B Y -                         
                 /     \                                                     
                 |  |  |   _    _      __       _____    __    __             
                 |  |  |  | |  | |    /  \     |  _  \  |  |  /  |          
                  \  \/   | |  | |   /    \    | | | |  |  | /  /          
                 / \  \   | |__| |  /  /\  \   | |_| |  |  |/  /          
                |  |  |   |  __  | /  /__\  \  |    /   |      \           
                |  |  |   | |  | | |   __   |  |    \   |  |\   \          
                \     /   | |  | | |  |  |  |  | |\  \  |  | \   \       
                 \___/    |_|  |_| |__|  |__|  |_| \__\ |__|  \__/        
                                                                              
                      - O R C A' S   B I G   F R I E N D -                    
                                      &                                       
                       - I N T E G R A L  F E E D E R -                       
                                                                              
 v1 FN, 2020, v2 2021, v3 2022-2024                                           
------------------------------------------------------------------------------


----------------------
SHARK INTEGRAL PACKAGE
----------------------

Number of atoms                             ...      8
Number of basis functions                   ...     76
Number of shells                            ...     36
Maximum angular momentum                    ...      2
Integral batch strategy                     ... SHARK/LIBINT Hybrid
RI-J (if used) integral strategy            ... SPLIT-RIJ (Revised 2003 algorithm where possible)
Printlevel                                  ...      1
Contraction scheme used                     ... SEGMENTED contraction
Prescreening option                         ... SCHWARTZ
   Thresh                                   ... 2.500e-11
   Tcut                                     ... 2.500e-12
   Tpresel                                  ... 2.500e-12 
Coulomb Range Separation                    ... NOT USED
Exchange Range Separation                   ... NOT USED
Multipole approximations                    ... NOT USED
Finite Nucleus Model                        ... NOT USED
CABS basis                                  ... NOT available
Auxiliary Coulomb fitting basis             ... NOT available
Auxiliary J/K fitting basis                 ... NOT available
Auxiliary Correlation fitting basis         ... NOT available
Auxiliary 'external' fitting basis          ... NOT available

Checking pre-screening integrals            ... done (  0.0 sec) Dimension = 36
   => SHARK Basis and OBASIS are compatible. Storing Pre-screening
Shell pair information
Shell pair cut-off parameter TPreSel        ...   2.5e-12
Total number of shell pairs                 ...       666
Shell pairs after pre-screening             ...       663
Total number of primitive shell pairs       ...      2410
Primitive shell pairs kept                  ...      1993
          la=0 lb=0:    207 shell pairs
          la=1 lb=0:    240 shell pairs
          la=1 lb=1:     78 shell pairs
          la=2 lb=0:     80 shell pairs
          la=2 lb=1:     48 shell pairs
          la=2 lb=2:     10 shell pairs

Checking whether 4 symmetric matrices of dimension 76 fit in memory
:Max Core in MB      =   4096.00
 MB in use           =      2.06
 MB left             =   4093.94
 MB needed           =      0.09
 Data fit in memory  = YES
Calculating Nuclear repulsion               ... done (  0.0 sec) ENN=    120.693288504615 Eh

Diagonalization of the overlap matrix:
Smallest eigenvalue                        ... 3.506e-03
Time for diagonalization                   ...    0.001 sec
Threshold for overlap eigenvalues          ... 1.000e-07
Number of eigenvalues below threshold      ... 0
Time for construction of square roots      ...    0.002 sec
Total time needed                          ...    0.005 sec

-------------------
DFT GRID GENERATION
-------------------

General Integration Accuracy     IntAcc      ... 4.388
Radial Grid Type                 RadialGrid  ... OptM3 with GC (2021)
Angular Grid (max. ang.)         AngularGrid ... 4 (Lebedev-302)
Angular grid pruning method      GridPruning ... 4 (adaptive)
Weight generation scheme         WeightScheme... mBecke (2022)
Basis function cutoff            BFCut       ... 1.0000e-11
Integration weight cutoff        WCut        ... 1.0000e-14
Partially contracted basis set               ... off
Rotationally invariant grid construction     ... off
Angular grids for H and He will be reduced by one unit

Total number of grid points                  ...    37392
Total number of batches                      ...      588
Average number of points per batch           ...       63
Average number of grid points per atom       ...     4674
Grids setup in   0.1 sec
Initializing property integral containers    ... done (  0.0 sec)

SHARK setup successfully completed in   0.2 seconds

Maximum memory used throughout the entire STARTUP-calculation: 9.2 MB


           ************************************************************
           *        Program running with 8 parallel MPI-processes     *
           *              working on a common directory               *
           ************************************************************
-------------------------------------------------------------------------------
                                 ORCA GUESS
                   Start orbitals & Density for SCF / CASSCF
-------------------------------------------------------------------------------

------------
SCF SETTINGS
------------
Hamiltonian:
 Density Functional     Method          .... DFT(GTOs)
  Functional kind                       .... Exchange
  Functional name                       .... Minnesota N12 exchange functional
  Functional family                     .... GGA
  Functional refs                              
    [ 0] R. Peverati and D. G. Truhlar.,  J. Chem. Theory Comput. 8, 2310 (2012), doi: 10.1021/ct3002656
  Functional external parameters        .... 16
    Parameter  0 _CC00      =  1.000000e+00 : _CC00               
    Parameter  1 _CC01      =  5.078800e-01 : _CC01               
    Parameter  2 _CC02      =  1.682330e-01 : _CC02               
    Parameter  3 _CC03      =  1.288870e-01 : _CC03               
    Parameter  4 _CC10      =  8.602110e-02 : _CC10               
    Parameter  5 _CC11      = -1.710080e+01 : _CC11               
    Parameter  6 _CC12      =  6.508140e+01 : _CC12               
    Parameter  7 _CC13      = -7.017260e+01 : _CC13               
    Parameter  8 _CC20      = -3.907550e-01 : _CC20               
    Parameter  9 _CC21      =  5.133920e+01 : _CC21               
    Parameter 10 _CC22      = -1.662200e+02 : _CC22               
    Parameter 11 _CC23      =  1.427380e+02 : _CC23               
    Parameter 12 _CC30      =  4.036110e-01 : _CC30               
    Parameter 13 _CC31      = -3.446310e+01 : _CC31               
    Parameter 14 _CC32      =  7.616610e+01 : _CC32               
    Parameter 15 _CC33      = -2.418340e+00 : _CC33               
  Functional kind                       .... Correlation
  Functional name                       .... Minnesota N12 correlation functional
  Functional family                     .... GGA
  Functional refs                              
    [ 0] R. Peverati and D. G. Truhlar.,  J. Chem. Theory Comput. 8, 2310 (2012), doi: 10.1021/ct3002656
  Functional external parameters        .... 10
    Parameter  0 _css0      =  1.000000e+00 : u^0 coefficient for same-spin correlation
    Parameter  1 _css1      = -5.531700e+00 : u^1 coefficient for same-spin correlation
    Parameter  2 _css2      =  3.079580e+01 : u^2 coefficient for same-spin correlation
    Parameter  3 _css3      = -5.641960e+01 : u^3 coefficient for same-spin correlation
    Parameter  4 _css4      =  3.212500e+01 : u^4 coefficient for same-spin correlation
    Parameter  5 _cos0      =  1.000000e+00 : u^0 coefficient for opposite-spin correlation
    Parameter  6 _cos1      =  3.245110e+00 : u^1 coefficient for opposite-spin correlation
    Parameter  7 _cos2      = -2.528930e+01 : u^2 coefficient for opposite-spin correlation
    Parameter  8 _cos3      =  1.444070e+01 : u^3 coefficient for opposite-spin correlation
    Parameter  9 _cos4      =  1.968700e+01 : u^4 coefficient for opposite-spin correlation
 Gradients option       PostSCFGGA      .... off


General Settings:
 Integral files         IntName         .... /cluster/projects/nn14654k/ylvaos/basis_set_n_funcs/functionals/N12/CH3COOH/inp/CH3COOH_N12_def2svp
 Hartree-Fock type      HFTyp           .... RHF
 Total Charge           Charge          ....    0
 Multiplicity           Mult            ....    1
 Number of Electrons    NEL             ....   32
 Basis Dimension        Dim             ....   76
 Nuclear Repulsion      ENuc            ....    120.6932885046 Eh

Convergence Acceleration:
 AO-DIIS                CNVDIIS         .... on
   Start iteration      DIISMaxIt       ....    12
   Startup error        DIISStart       ....  0.200000
   # of expansion vecs  DIISMaxEq       ....     5
   Bias factor          DIISBfac        ....   1.050
   Max. coefficient     DIISMaxC        ....  10.000
 MO-DIIS                CNVKDIIS        .... off
 Trust-Rad. Augm. Hess. CNVTRAH         .... auto
   Auto Start mean grad. ratio tolernc. ....  1.125000
   Auto Start start iteration           ....    50
   Auto Start num. interpolation iter.  ....    10
   Max. Number of Micro iterations      ....    24
   Max. Number of Macro iterations      .... Maxiter - #DIIS iter
   Number of Davidson start vectors     ....     2
   Converg. threshold    (grad. norm)   ....   1.000e-05
   Grad. Scal. Fac. for Micro threshold ....   0.100
   Minimum threshold for Micro iter.    ....   1.000e-02
   NR start threshold (gradient norm)   ....   1.000e-04
   Initial trust radius                 ....   0.400
   Minimum AH scaling param. (alpha)    ....   1.000
   Maximum AH scaling param. (alpha)    .... 1000.000
   Quad. conv. algorithm                .... NR
   White noise on init. David. guess    .... on
   Maximum white noise                  ....   0.010
   Pseudo random numbers                .... off
   Inactive MOs                         .... canonical
   Orbital update algorithm             .... Taylor
   Preconditioner                       .... Diag
   Full preconditioner red. dimension   ....   250
 SOSCF                 CNVSOSCF           .... on
   Start iteration     SOSCFMaxIt         ....   150
   Startup grad/error  SOSCFStart         ....  0.003300
   Hessian update      SOSCFHessUp        .... L-BFGS
   Autom. constraints  SOSCFAutoConstrain .... off
 Level Shifting         CNVShift        .... on
   Level shift para.    LevelShift      ....    0.2500
   Turn off err/grad.   ShiftErr        ....    0.0010
 Zerner damping         CNVZerner       .... off
 Static damping         CNVDamp         .... on
   Fraction old density DampFac         ....    0.7000
   Max. Damping (<1)    DampMax         ....    0.9800
   Min. Damping (>=0)   DampMin         ....    0.0000
   Turn off err/grad.   DampErr         ....    0.1000

SCF Procedure:
 Maximum # iterations   MaxIter         ....   125
 SCF integral mode      SCFMode         .... Direct
   Integral package                     .... SHARK and LIBINT hybrid scheme
 Reset frequency        DirectResetFreq ....    20
 Integral Threshold     Thresh          ....  2.500e-11 Eh
 Primitive CutOff       TCut            ....  2.500e-12 Eh

Convergence Tolerance:
 Convergence Check Mode ConvCheckMode   .... Total+1el-Energy
 Convergence forced     ConvForced      .... 0
 Energy Change          TolE            ....  1.000e-08 Eh
 1-El. energy change                    ....  1.000e-05 Eh
 Orbital Gradient       TolG            ....  1.000e-05
 Orbital Rotation angle TolX            ....  1.000e-05
 DIIS Error             TolErr          ....  5.000e-07

------------------------------
INITIAL GUESS: MODEL POTENTIAL
------------------------------
Loading Hartree-Fock densities                     ... done
Calculating cut-offs                               ... done
Initializing the effective Hamiltonian             ... done
Setting up the integral package (SHARK)            ... done
Starting the Coulomb interaction                   ... done (   0.0 sec)
Making the grid                                    ... done (   0.1 sec)
Mapping shells                                     ... done
Starting the XC term evaluation                    ... done (   0.0 sec)
  promolecular density results
     # of electrons  =     31.997224895
     EX              =    -27.201420021
     EC              =     -1.705860962
     EX+EC           =    -28.907280983
Transforming the Hamiltonian                       ... done (   0.0 sec)
Diagonalizing the Hamiltonian                      ... done (   0.0 sec)
Back transforming the eigenvectors                 ... done (   0.0 sec)
Now organizing SCF variables                       ... done
                      ------------------
                      INITIAL GUESS DONE (   0.1 sec)
                      ------------------
             **** ENERGY FILE WAS UPDATED (/cluster/projects/nn14654k/ylvaos/basis_set_n_funcs/functionals/N12/CH3COOH/inp/CH3COOH_N12_def2svp.en.tmp) ****
Finished Guess after   0.2 sec
Maximum memory used throughout the entire GUESS-calculation: 4.4 MB


           ************************************************************
           *        Program running with 8 parallel MPI-processes     *
           *              working on a common directory               *
           ************************************************************

-------------------------------------------------------------------------------------------
                                      ORCA LEAN-SCF
                              memory conserving SCF solver
-------------------------------------------------------------------------------------------

----------------------------------------D-I-I-S--------------------------------------------
Iteration    Energy (Eh)           Delta-E    RMSDP     MaxDP     DIISErr   Damp  Time(sec)
-------------------------------------------------------------------------------------------
               ***  Starting incremental Fock matrix formation  ***
    1    -228.6141642827514033     0.00e+00  2.53e-02  1.34e-01  3.08e-01  0.700   0.2
    2    -228.7332422131480598    -1.19e-01  1.41e-02  7.26e-02  9.95e-02  0.700   0.2
                               ***Turning on AO-DIIS***
    3    -228.7656916987422733    -3.24e-02  4.39e-03  1.62e-02  3.28e-02  0.700   0.1
    4    -228.7888820800183112    -2.32e-02  6.20e-03  2.69e-02  2.27e-02  0.000   0.4
    5    -228.8435409575643007    -5.47e-02  2.30e-03  9.15e-03  1.30e-02  0.000   0.1
    6    -228.8441449873190550    -6.04e-04  8.40e-04  3.09e-03  3.91e-03  0.000   0.2
                              *** Initializing SOSCF ***
---------------------------------------S-O-S-C-F--------------------------------------
Iteration    Energy (Eh)           Delta-E    RMSDP     MaxDP     MaxGrad    Time(sec)
--------------------------------------------------------------------------------------
    7    -228.8441976164373273    -5.26e-05  3.13e-04  1.28e-03  1.46e-03     0.1
               *** Restarting incremental Fock matrix formation ***
    8    -228.8442062760431668    -8.66e-06  1.84e-04  1.08e-03  1.24e-04     0.1
    9    -228.8442063969176843    -1.21e-07  9.67e-05  5.43e-04  2.69e-04     0.1
   10    -228.8442065778318124    -1.81e-07  1.07e-04  6.45e-04  1.97e-04     0.1
   11    -228.8442067939910771    -2.16e-07  3.31e-05  1.61e-04  5.36e-05     0.1
   12    -228.8442068487791516    -5.48e-08  1.82e-05  1.06e-04  2.72e-05     0.1
   13    -228.8442068617845280    -1.30e-08  6.05e-06  3.13e-05  9.18e-06     0.2
   14    -228.8442068615538574     2.31e-10  3.82e-06  1.98e-05  1.41e-05     0.3
                 **** Energy Check signals convergence ****

               *****************************************************
               *                     SUCCESS                       *
               *           SCF CONVERGED AFTER  14 CYCLES          *
               *****************************************************

             **** ENERGY FILE WAS UPDATED (/cluster/projects/nn14654k/ylvaos/basis_set_n_funcs/functionals/N12/CH3COOH/inp/CH3COOH_N12_def2svp.en.tmp) ****

----------------
TOTAL SCF ENERGY
----------------

Total Energy       :       -228.84420686288428 Eh           -6227.16745 eV

Components:
Nuclear Repulsion  :        120.69328850461517 Eh            3284.23135 eV
Electronic Energy  :       -349.53749536749945 Eh           -9511.39880 eV
One Electron Energy:       -551.68741499957014 Eh          -15012.17777 eV
Two Electron Energy:        202.14991963207066 Eh            5500.77897 eV

Virial components:
Potential Energy   :       -456.26330884238598 Eh          -12415.55583 eV
Kinetic Energy     :        227.41910197950173 Eh            6188.38838 eV
Virial Ratio       :          2.00626642560356

DFT components:
N(Alpha)           :       15.999990099812 electrons
N(Beta)            :       15.999990099812 electrons
N(Total)           :       31.999980199623 electrons
E(X)               :      -27.771050886032 Eh       
E(C)               :       -1.735670711489 Eh       
E(XC)              :      -29.506721597522 Eh       

---------------
SCF CONVERGENCE
---------------

  Last Energy change         ...   -2.3067e-10  Tolerance :   1.0000e-08
  Last MAX-Density change    ...    1.9767e-05  Tolerance :   1.0000e-07
  Last RMS-Density change    ...    3.8200e-06  Tolerance :   5.0000e-09
  Last DIIS Error            ...    1.4558e-03  Tolerance :   5.0000e-07
  Last Orbital Gradient      ...    1.4058e-05  Tolerance :   1.0000e-05
  Last Orbital Rotation      ...    7.5580e-06  Tolerance :   1.0000e-05


----------------
ORBITAL ENERGIES
----------------

  NO   OCC          E(Eh)            E(eV) 
   0   2.0000     -18.794634      -511.4280 
   1   2.0000     -18.736872      -509.8562 
   2   2.0000     -10.090542      -274.5776 
   3   2.0000      -9.973169      -271.3837 
   4   2.0000      -0.987673       -26.8759 
   5   2.0000      -0.898417       -24.4472 
   6   2.0000      -0.678848       -18.4724 
   7   2.0000      -0.543091       -14.7782 
   8   2.0000      -0.426756       -11.6126 
   9   2.0000      -0.414374       -11.2757 
  10   2.0000      -0.409004       -11.1296 
  11   2.0000      -0.360736        -9.8161 
  12   2.0000      -0.341329        -9.2880 
  13   2.0000      -0.336749        -9.1634 
  14   2.0000      -0.272753        -7.4220 
  15   2.0000      -0.227003        -6.1771 
  16   0.0000      -0.025238        -0.6867 
  17   0.0000       0.029581         0.8049 
  18   0.0000       0.059485         1.6187 
  19   0.0000       0.103839         2.8256 
  20   0.0000       0.112749         3.0681 
  21   0.0000       0.178195         4.8489 
  22   0.0000       0.233053         6.3417 
  23   0.0000       0.273378         7.4390 
  24   0.0000       0.413365        11.2482 
  25   0.0000       0.413586        11.2543 
  26   0.0000       0.461562        12.5597 
*Only the first 10 virtual orbitals were printed.

                    ********************************
                    * MULLIKEN POPULATION ANALYSIS *
                    ********************************

-----------------------
MULLIKEN ATOMIC CHARGES
-----------------------
   0 C :    0.039334
   1 C :    0.063421
   2 O :   -0.210491
   3 O :   -0.174882
   4 H :    0.171815
   5 H :    0.030940
   6 H :    0.039931
   7 H :    0.039931
Sum of atomic charges:    0.0000000

--------------------------------
MULLIKEN REDUCED ORBITAL CHARGES
--------------------------------
  0 C s       :     3.094559  s :     3.094559
      pz      :     0.841059  p :     2.739161
      px      :     0.923703
      py      :     0.974399
      dz2     :     0.006767  d :     0.126945
      dxz     :     0.012696
      dyz     :     0.023006
      dx2y2   :     0.034118
      dxy     :     0.050359

  1 C s       :     2.938909  s :     2.938909
      pz      :     1.016796  p :     2.976585
      px      :     0.976439
      py      :     0.983351
      dz2     :     0.004335  d :     0.021085
      dxz     :     0.001407
      dyz     :     0.005881
      dx2y2   :     0.002855
      dxy     :     0.006607

  2 O s       :     3.738680  s :     3.738680
      pz      :     1.389139  p :     4.454166
      px      :     1.737279
      py      :     1.327748
      dz2     :     0.001984  d :     0.017645
      dxz     :     0.000148
      dyz     :     0.005399
      dx2y2   :     0.005980
      dxy     :     0.004133

  3 O s       :     3.691537  s :     3.691537
      pz      :     1.761410  p :     4.470256
      px      :     1.203239
      py      :     1.505607
      dz2     :     0.001873  d :     0.013090
      dxz     :     0.001231
      dyz     :     0.001518
      dx2y2   :     0.002477
      dxy     :     0.005991

  4 H s       :     0.762450  s :     0.762450
      pz      :     0.015748  p :     0.065734
      px      :     0.023364
      py      :     0.026622

  5 H s       :     0.944735  s :     0.944735
      pz      :     0.005111  p :     0.024325
      px      :     0.012455
      py      :     0.006759

  6 H s       :     0.934379  s :     0.934379
      pz      :     0.011859  p :     0.025690
      px      :     0.005130
      py      :     0.008701

  7 H s       :     0.934379  s :     0.934379
      pz      :     0.011859  p :     0.025690
      px      :     0.005130
      py      :     0.008701



                     *******************************
                     * LOEWDIN POPULATION ANALYSIS *
                     *******************************

----------------------
LOEWDIN ATOMIC CHARGES
----------------------
   0 C :    0.077360
   1 C :   -0.071788
   2 O :   -0.184618
   3 O :   -0.057577
   4 H :    0.097285
   5 H :    0.041508
   6 H :    0.048915
   7 H :    0.048915

-------------------------------
LOEWDIN REDUCED ORBITAL CHARGES
-------------------------------
  0 C s       :     2.855448  s :     2.855448
      pz      :     0.814699  p :     2.788435
      px      :     0.932078
      py      :     1.041659
      dz2     :     0.016012  d :     0.278756
      dxz     :     0.023801
      dyz     :     0.041871
      dx2y2   :     0.077390
      dxy     :     0.119681

  1 C s       :     2.842176  s :     2.842176
      pz      :     1.070345  p :     3.164463
      px      :     1.047121
      py      :     1.046997
      dz2     :     0.013831  d :     0.065150
      dxz     :     0.002757
      dyz     :     0.018103
      dx2y2   :     0.008818
      dxy     :     0.021642

  2 O s       :     3.555173  s :     3.555173
      pz      :     1.387674  p :     4.598838
      px      :     1.745302
      py      :     1.465861
      dz2     :     0.004317  d :     0.030608
      dxz     :     0.000185
      dyz     :     0.006745
      dx2y2   :     0.012580
      dxy     :     0.006781

  3 O s       :     3.446953  s :     3.446953
      pz      :     1.726896  p :     4.584360
      px      :     1.278164
      py      :     1.579299
      dz2     :     0.004490  d :     0.026265
      dxz     :     0.002188
      dyz     :     0.001179
      dx2y2   :     0.005114
      dxy     :     0.013294

  4 H s       :     0.733685  s :     0.733685
      pz      :     0.041751  p :     0.169030
      px      :     0.054041
      py      :     0.073238

  5 H s       :     0.890623  s :     0.890623
      pz      :     0.012689  p :     0.067869
      px      :     0.036999
      py      :     0.018181

  6 H s       :     0.882349  s :     0.882349
      pz      :     0.031738  p :     0.068736
      px      :     0.013223
      py      :     0.023775

  7 H s       :     0.882349  s :     0.882349
      pz      :     0.031738  p :     0.068736
      px      :     0.013223
      py      :     0.023775



                      *****************************
                      * MAYER POPULATION ANALYSIS *
                      *****************************

  NA   - Mulliken gross atomic population
  ZA   - Total nuclear charge
  QA   - Mulliken gross atomic charge
  VA   - Mayer's total valence
  BVA  - Mayer's bonded valence
  FA   - Mayer's free valence

  ATOM       NA         ZA         QA         VA         BVA        FA
  0 C      5.9607     6.0000     0.0393     4.4533     4.4533    -0.0000
  1 C      5.9366     6.0000     0.0634     3.8721     3.8721     0.0000
  2 O      8.2105     8.0000    -0.2105     2.2862     2.2862    -0.0000
  3 O      8.1749     8.0000    -0.1749     2.2385     2.2385     0.0000
  4 H      0.8282     1.0000     0.1718     1.0427     1.0427    -0.0000
  5 H      0.9691     1.0000     0.0309     1.0133     1.0133    -0.0000
  6 H      0.9601     1.0000     0.0399     1.0033     1.0033     0.0000
  7 H      0.9601     1.0000     0.0399     1.0033     1.0033     0.0000

  Mayer bond orders larger than 0.100000
B(  0-C ,  1-C ) :   1.0353 B(  0-C ,  2-O ) :   2.1032 B(  0-C ,  3-O ) :   1.2061 
B(  1-C ,  5-H ) :   0.9584 B(  1-C ,  6-H ) :   0.9428 B(  1-C ,  7-H ) :   0.9428 
B(  3-O ,  4-H ) :   0.9506 

-------
TIMINGS
-------

Total SCF time: 0 days 0 hours 0 min 2 sec 

Total time                  ....       2.646 sec
Sum of individual times     ....       2.509 sec  ( 94.8%)

SCF preparation             ....       0.102 sec  (  3.9%)
Fock matrix formation       ....       1.655 sec  ( 62.5%)
  Startup                   ....       0.012 sec  (  0.7% of F)
  Coulomb formation         ....       0.256 sec  ( 15.5% of F)
  XC integration            ....       1.027 sec  ( 62.0% of F)
    XC Preparation          ....       0.000 sec  (  0.0% of XC)
    Basis function eval.    ....       0.062 sec  (  6.1% of XC)
    Density eval.           ....       0.026 sec  (  2.5% of XC)
    XC-Functional eval.     ....       0.079 sec  (  7.7% of XC)
    XC-Potential eval.      ....       0.041 sec  (  4.0% of XC)
Diagonalization             ....       0.000 sec  (  0.0%)
Density matrix formation    ....       0.161 sec  (  6.1%)
Total Energy calculation    ....       0.028 sec  (  1.1%)
Population analysis         ....       0.013 sec  (  0.5%)
Orbital Transformation      ....       0.018 sec  (  0.7%)
Orbital Orthonormalization  ....       0.000 sec  (  0.0%)
DIIS solution               ....       0.285 sec  ( 10.8%)
SOSCF solution              ....       0.248 sec  (  9.4%)
Finished LeanSCF after   2.7 sec

Maximum memory used throughout the entire LEANSCF-calculation: 7.0 MB


           ************************************************************
           *        Program running with 8 parallel MPI-processes     *
           *              working on a common directory               *
           ************************************************************

------------------------------------------------------------------------------
                         ORCA PROPERTY INTEGRAL CALCULATIONS
------------------------------------------------------------------------------

GBWName                                   ... /cluster/projects/nn14654k/ylvaos/basis_set_n_funcs/functionals/N12/CH3COOH/inp/CH3COOH_N12_def2svp.gbw
Number of atoms                           ...      8
Number of basis functions                 ...     76
Max core memory                           ...   4096 MB

Dipole integrals                          ... YES
Quadrupole integrals                      ... YES
Linear momentum integrals                 ...  NO
Angular momentum integrals                ...  NO
Higher moments length integrals           ...  NO
Higher moments velocity integrals         ...  NO
Kinetic energy integrals                  ...  NO
GIAO right hand sides                     ...  NO
GIAO dipole derivative integrals          ...  NO
SOC integrals                             ...  NO
EPR diamagnetic integrals (GIAO)          ...  NO
EPR gauge integrals                       ...  NO
Field gradient integrals                  ...  NO (   0 nuclei)
Spin-dipole/Fermi contact integrals       ...  NO (   0 nuclei)
Contact density integrals                 ...  NO (   0 nuclei)
Nucleus-orbit integrals                   ...  NO (   0 nuclei)
Geometric perturbations                   ...  NO (   8 nuclei)

Choice of electric origin   ... Center of mass
Position of electric origin ... ( -0.0657,  0.0975,  0.0000) 
Choice of magnetic origin   ... GIAO
Position of magnetic origin ... (  0.0000,  0.0000,  0.0000) 

Calculating integrals                     ... Electric Dipole (Length)     done (  0.0 sec)
Calculating integrals                     ... Electric Quadrupole (Length) done (  0.0 sec)

Property integrals calculated in   0.0 sec

Maximum memory used throughout the entire PROPINT-calculation: 4.6 MB
------------------------------------------------------------------------------
                           ORCA ORBITAL LOCALIZATION
------------------------------------------------------------------------------

Input orbitals are from                  ... /cluster/projects/nn14654k/ylvaos/basis_set_n_funcs/functionals/N12/CH3COOH/inp/CH3COOH_N12_def2svp.gbw
Output orbitals are to                   ... /cluster/projects/nn14654k/ylvaos/basis_set_n_funcs/functionals/N12/CH3COOH/inp/CH3COOH_N12_def2svp.loc
Max. number of iterations                ... 128
Localizations seeded randomly            ... on
Convergence tolerance                    ... 1.000e-06
Threshold for strong local MOs           ... 9.500e-01
Threshold for bond MOs                   ... 8.500e-01
Operator                                 ... 0
Orbital range for localization           ... 4 to 15
Localization criterion                   ... NEW-BOYS
Doing the dipole integrals               ... o.k.
Initial value of the localization sum :    59.804353
ITERATION   0 : L=   78.3490118158 DL=  1.85e+01 (AVERGE_DL)=    0.5300751692 
ITERATION   1 : L=   80.9949381073 DL=  2.65e+00 (AVERGE_DL)=    0.2002243549 
ITERATION   2 : L=   81.0691521551 DL=  7.42e-02 (AVERGE_DL)=    0.0335328983 
ITERATION   3 : L=   81.0728994434 DL=  3.75e-03 (AVERGE_DL)=    0.0075350577 
ITERATION   4 : L=   81.0746970069 DL=  1.80e-03 (AVERGE_DL)=    0.0052187940 
ITERATION   5 : L=   81.0759178109 DL=  1.22e-03 (AVERGE_DL)=    0.0043008174 
ITERATION   6 : L=   81.0768496760 DL=  9.32e-04 (AVERGE_DL)=    0.0037575481 
ITERATION   7 : L=   81.0775387791 DL=  6.89e-04 (AVERGE_DL)=    0.0032312467 
ITERATION   8 : L=   81.0780315993 DL=  4.93e-04 (AVERGE_DL)=    0.0027325763 
ITERATION   9 : L=   81.0783741099 DL=  3.43e-04 (AVERGE_DL)=    0.0022780595 
ITERATION  10 : L=   81.0786072128 DL=  2.33e-04 (AVERGE_DL)=    0.0018793250 
ITERATION  11 : L=   81.0787635422 DL=  1.56e-04 (AVERGE_DL)=    0.0015390343 
ITERATION  12 : L=   81.0788673391 DL=  1.04e-04 (AVERGE_DL)=    0.0012540657 
ITERATION  13 : L=   81.0789357927 DL=  6.85e-05 (AVERGE_DL)=    0.0010184182 
ITERATION  14 : L=   81.0789807358 DL=  4.49e-05 (AVERGE_DL)=    0.0008252011 
ITERATION  15 : L=   81.0790101544 DL=  2.94e-05 (AVERGE_DL)=    0.0006676348 
ITERATION  16 : L=   81.0790293737 DL=  1.92e-05 (AVERGE_DL)=    0.0005396299 
ITERATION  17 : L=   81.0790419132 DL=  1.25e-05 (AVERGE_DL)=    0.0004358817 
ITERATION  18 : L=   81.0790500879 DL=  8.17e-06 (AVERGE_DL)=    0.0003519358 
ITERATION  19 : L=   81.0790554137 DL=  5.33e-06 (AVERGE_DL)=    0.0002840687 
ITERATION  20 : L=   81.0790588828 DL=  3.47e-06 (AVERGE_DL)=    0.0002292632 
ITERATION  21 : L=   81.0790611410 DL=  2.26e-06 (AVERGE_DL)=    0.0001849741 
ITERATION  22 : L=   81.0790626109 DL=  1.47e-06 (AVERGE_DL)=    0.0001492321 
ITERATION  23 : L=   81.0790635676 DL=  9.57e-07 (AVERGE_DL)=    0.0001204014 
LOCALIZATION SUM CONVERGED


--------------------------------------------------------------------------------
                    LOCALIZED MOLECULAR ORBITAL COMPOSITIONS
--------------------------------------------------------------------------------

The Mulliken populations for each LMO on each atom are computed
The LMO`s will be ordered according to atom index and type
  (A) Strongly localized MO`s have populations of >=0.950 on one atom
  (B) Two center bond orbitals have populations of >=0.850 on two atoms
  (C) Other MO`s are considered to be `delocalized`

FOUND  -   1 strongly local MO`s
       -  11 two center bond MO`s
       -   0 significantly delocalized MO`s

Rather strongly localized orbitals:
MO   4:   3O  -   0.964746
Bond-like localized orbitals:
MO  15:   7H  -   0.487077  and   1C  -   0.494504
MO  14:   6H  -   0.487103  and   1C  -   0.494464
MO  13:   5H  -   0.489514  and   1C  -   0.505149
MO  12:   4H  -   0.400035  and   3O  -   0.595745
MO  11:   3O  -   0.678258  and   0C  -   0.340523
MO  10:   3O  -   0.878893  and   0C  -   0.118008
MO   9:   2O  -   0.630387  and   0C  -   0.374396
MO   8:   2O  -   0.629792  and   0C  -   0.375331
MO   7:   2O  -   0.932984  and   0C  -   0.077873
MO   6:   2O  -   0.923207  and   0C  -   0.073080
MO   5:   1C  -   0.516727  and   0C  -   0.515054
Localized MO's were stored in: /cluster/projects/nn14654k/ylvaos/basis_set_n_funcs/functionals/N12/CH3COOH/inp/CH3COOH_N12_def2svp.loc

-------------------------   --------------------
FINAL SINGLE POINT ENERGY      -228.844206862884
-------------------------   --------------------



           ************************************************************
           *        Program running with 8 parallel MPI-processes     *
           *              working on a common directory               *
           ************************************************************

------------------------------------------------------------------------------
                              ORCA PROPERTY CALCULATIONS
------------------------------------------------------------------------------

GBWName                                 ... /cluster/projects/nn14654k/ylvaos/basis_set_n_funcs/functionals/N12/CH3COOH/inp/CH3COOH_N12_def2svp.gbw
Number of atoms                         ...      8
Number of basis functions               ...     76
Max core memory                         ...   4096 MB

Electric properties:
Dipole moment                           ... YES
Quadrupole moment                       ... YES
Static polarizability (Dipole/Dipole)   ...  NO
Static polarizability (Dipole/Quad.)    ...  NO
Static polarizability (Quad./Quad.)     ...  NO
Static polarizability (Velocity)        ...  NO
Static hyperpolarizability              ...  NO

Atomic electric properties:
Dipole moment                           ...  NO
Quadrupole moment                       ...  NO
Static polarizability                   ...  NO

Choice of electric origin               ... Center of mass
Position of electric origin             ...    -0.065707     0.097461     0.000000

General magnetic properties:
Magnetizability                         ...  NO

EPR properties:
g-Tensor (aka g-matrix)                 ...  NO
Zero-Field splitting spin-orbit         ...  NO
Zero-field splitting spin-spin          ...  NO
Hyperfine couplings                     ...  NO (   0 nuclei)
Quadrupole couplings                    ...  NO (   0 nuclei)
Contact density                         ...  NO (   0 nuclei)

NMR properties:
Chemical shifts                         ...  NO (   0 nuclei)
Spin-rotation constants                 ...  NO (   0 nuclei)
Spin-spin couplings                     ...  NO (   0 nuclei,    0 pairs)

Choice of magnetic origin               ... GIAO
Position of magnetic origin             ...     0.000000     0.000000     0.000000

Properties with geometric perturbations:
SCF Hessian                             ...  NO
IR spectrum                             ...  NO
VCD spectrum                            ...  NO
X-ray spectroscopy properties:
SCF XES/XAS/RIXS spectra                ...  NO

SCF SOC stabilization energy            ...  NO
Diagonal Born-Oppenheimer correction    ...  NO

-------------
DIPOLE MOMENT
-------------

Method             : SCF
Type of density    : Electron Density
Multiplicity       :   1
Irrep              :   0
Energy             :  -228.8442068628842776 Eh
Basis              : AO
                                X                 Y                 Z
Electronic contribution:     -2.263537549       2.498419856      -0.000000000
Nuclear contribution   :      2.102617427      -3.118765285       0.000000000
                        -----------------------------------------
Total Dipole Moment    :     -0.160920122      -0.620345429      -0.000000000
                        -----------------------------------------
Magnitude (a.u.)       :      0.640877318
Magnitude (Debye)      :      1.628980685



--------------------
Rotational spectrum 
--------------------
 
Rotational constants in cm-1:             0.373252             0.316126             0.176788 
Rotational constants in MHz :         11189.819630          9477.229268          5299.974115 

Dipole components along the rotational axes: 
x,y,z [a.u.] :    -0.280610    -0.576178    -0.000000 
x,y,z [Debye]:    -0.713255    -1.464529    -0.000000 

 

Dipole moment calculation done in   0.0 sec 

-----------------
QUADRUPOLE MOMENT
-----------------

Method             : SCF
Type of density    : Electron Density
Multiplicity       :   1
Irrep              :   0
Energy             :  -228.8442068628842776 Eh
Basis              : AO

                XX              YY              ZZ              XY              XZ              YZ
  NUC      103.447904006    93.335807526     5.552847104   -15.402641721     0.000000000     0.000000000
  EL      -117.999429643  -112.937715659   -22.210512877    12.842442793     0.000000000     0.000000001
  TOT      -14.551525637   -19.601908133   -16.657665773    -2.560198928     0.000000000     0.000000001 (a.u.)
           -19.572299643   -26.365236824   -22.405130157    -3.443555117     0.000000001     0.000000002 (Buckingham)

diagonalized tensor:
           -20.672715966   -16.657665773   -13.480717804 (a.u.)
           -27.805509981   -22.405130157   -18.132026486 (Buckingham)
           -15.073863318     1.127276153    13.946587165 (traceless form in Buckingham)

             0.385861089    -0.000000000     0.922556892
             0.922556892    -0.000000000    -0.385861089
            -0.000000000    -1.000000000    -0.000000000
        
Isotropic quadrupole :   -16.937033181

Quadrupole moment calculation done in   0.0 sec (  0.0 sec for integrals)

Maximum memory used throughout the entire PROP-calculation: 2.4 MB

--------------------------------
SUGGESTED CITATIONS FOR THIS RUN
--------------------------------

Below you find a list of papers that are relevant to this ORCA run
We neither can nor want to force you to cite these papers, but we appreciate if you do
You receive ORCA, which is the product of decades of hard work by many enthusiastic individuals, for free
The only thing we kindly ask in return is that you cite our papers,
We deeply appreciate it, if you show your appreciation for ORCA by not just citing the generic ORCA reference.

Please note that relegating all ORCA citations to the supporting information does *not* help us.
SI sections are not indexed - citations you put there will not count into any citation statistics
But we need these citations in order to attract the funding resources that allow us to do what we are doing

Therefore, if you are a happy ORCA user, please consider citing a few of the papers listed below in the main body of your paper

In addition to the list printed below, the program has created the file /cluster/projects/nn14654k/ylvaos/basis_set_n_funcs/functionals/N12/CH3COOH/inp/CH3COOH_N12_def2svp.bibtex that contains the list in bibtex format
You can import this file easily into all common literature databanks and citation aid programs

It goes without saying that in many instances, there are alternative algorithms to achieve similar
results as the ones you have gotten from ORCA. It is, of course, also the case that in some instances
ORCA just re-implements algorithms worked out by others. We are fully aware of that and we are also
fully appreciative of our colleagues work. Hence this citation list should not be read as indicating
that the listed papers, which are focused on our own work, are the only ones worth citing. It simply
meant to make it easier for users to cite ORCA specific papers. It is not a substitute for doing your
own literature research and citing the relevant literature in a scientifically appropriate manner.

List of essential papers. We consider these as the minimum necessary citations

  1. Neese, F.
     Software update: the ORCA program system, version 6.0
     WIRES Comput. Molec. Sci. 2025 15(1), e70019
     doi.org/10.1002/wcms.70019

List of papers to cite with high priority. The work reported in these papers was absolutely
necessary for this run to complete.
Our perspective: the developers of density functionals and basis sets usually get cited in chemistry papers
Good! But without the algorithms to do something with them, the functionals or basis sets would not do anything.
Hence, in our opinion, the algorithm design and method developments papers are equally worthy of getting cited

  1. Lehtola, S.; Steigemann, C.; Oliveira, M.; Marques, M.
     Recent developments in Libxc - A comprehensive library of functionals for density functional theory
     Software X 2018 7 , 
     doi.org/10.1016/j.softx.2017.11.002
  2. Neese, F.
     The SHARK Integral Generation and Digestion System
     J. Comp. Chem. 2022 44(3), 381
     doi.org/10.1002/jcc.26942

List of suggested additional citations. These are papers that are important in the 'surrounding' of 
of this run, or papers that preceded the highly important papers. If you like your results we are grateful for a citation.

  1. Neese, F.
     The ORCA program system
     WIRES Comput. Molec. Sci. 2012 2(1), 73-78
     doi.org/10.1002/wcms.81
  2. Neese, F.
     Software update: the ORCA program system, version 4.0
     WIRES Comput. Molec. Sci. 2018 8(1), 1-6
     doi.org/10.1002/wcms.1327
  3. Neese, F.; Wennmohs, F.; Becker, U.; Riplinger, C.
     The ORCA quantum chemistry program package
     J. Chem. Phys. 2020 152(22), 224108
     doi.org/10.1063/5.0004608
  4. Neese, F.
     Software update: The ORCA program system—Version 5.0
     WIRES Comput. Molec. Sci. 2022 12(1), e1606
     doi.org/10.1002/wcms.1606

List of optional additional citations

  1. Neese, F.
     Approximate second-order SCF convergence for spin unrestricted wavefunctions
     Chem. Phys. Lett. 2000 325(1-3), 93-98
     doi.org/10.1016/s0009-2614(00)00662-x

Timings for individual modules:

Sum of individual times          ...        4.413 sec (=   0.074 min)
Startup calculation              ...        0.529 sec (=   0.009 min)  12.0 %
SCF iterations                   ...        3.327 sec (=   0.055 min)  75.4 %
Property integrals               ...        0.278 sec (=   0.005 min)   6.3 %
Property calculations            ...        0.274 sec (=   0.005 min)   6.2 %
Orbital localization             ...        0.005 sec (=   0.000 min)   0.1 %
                             ****ORCA TERMINATED NORMALLY****
TOTAL RUN TIME: 0 days 0 hours 0 minutes 5 seconds 625 msec
