
                                 *****************
                                 * O   R   C   A *
                                 *****************

                                            #,                                       
                                            ###                                      
                                            ####                                     
                                            #####                                    
                                            ######                                   
                                           ########,                                 
                                     ,,################,,,,,                         
                               ,,#################################,,                 
                          ,,##########################################,,             
                       ,#########################################, ''#####,          
                    ,#############################################,,   '####,        
                  ,##################################################,,,,####,       
                ,###########''''           ''''###############################       
              ,#####''   ,,,,##########,,,,          '''####'''          '####       
            ,##' ,,,,###########################,,,                        '##       
           ' ,,###''''                  '''############,,,                           
         ,,##''                                '''############,,,,        ,,,,,,###''
      ,#''                                            '''#######################'''  
     '                                                          ''''####''''         
             ,#######,   #######,   ,#######,      ##                                
            ,#'     '#,  ##    ##  ,#'     '#,    #''#        ,####,    ,#,          
            ##       ##  ##   ,#'  ##            #'  '#       #'       ,# #          
            ##       ##  #######   ##           ,######,      #####,      #          
            '#,     ,#'  ##    ##  '#,     ,#' ,#      #,     #,   #      #          
             '#######'   ##     ##  '#######'  #'      '#     '####' #    #          



                #########################################################
                #                        -***-                          #
                #          Department of theory and spectroscopy        #
                #                                                       #
                #                      Frank Neese                      #
                #                                                       #
                #     Directorship, Architecture, Infrastructure        #
                #                    SHARK, DRIVERS                     #
                #        Core code/Algorithms in most modules           #
                #                                                       #
                #        Max Planck Institute fuer Kohlenforschung      #
                #                Kaiser Wilhelm Platz 1                 #
                #                 D-45470 Muelheim/Ruhr                 #
                #                      Germany                          #
                #                                                       #
                #                  All rights reserved                  #
                #                        -***-                          #
                #########################################################


                         Program Version 6.1.1  -  RELEASE   -
                                (GIT: $487d211c$)
                          ($2025-11-21 10:33:24 +0100$)


 With contributions from (in alphabetic order):
[Max-Planck-Institut fuer Kohlenforschung]                               
  Daniel Aravena         : Magnetic Suceptibility                        
  Michael Atanasov       : Ab Initio Ligand Field Theory (pilot matlab implementation)
  Alexander A. Auer      : GIAO ZORA, VPT2 properties, NMR spectrum      
  Ute Becker             : All parallelization in ORCA, NUMFREQ, NUMCALC 
  Giovanni Bistoni       : ED, misc. LED, open-shell LED, HFLD           
  Dmytro Bykov           : pre 5.0 version of the SCF Hessian            
  Marcos Casanova-Páez   : Triplet and SCS-CIS(D). UHF-(DLPNO)-IP/EA/STEOM-CCSD. UHF-CVS-IP/STEOM-CCSD   
  Vijay G. Chilkuri      : MRCI spin determinant printing, contributions to CSF-ICE 
  Pauline Colinet        : FMM embedding                                 
  Dipayan Datta          : RHF DLPNO-CCSD density                        
  Achintya Kumar Dutta   : EOM-CC, STEOM-CC                              
  Nicolas Foglia         : Exact transition moments, OPA infrastructure, MCD improvements    
  Dmitry Ganyushin       : Spin-Orbit,Spin-Spin,Magnetic field MRCI      
  Miquel Garcia-Rates    : C-PCM and meta-GGA Hessian, CCSD/C-PCM, Gaussian charge scheme 
  Tiago L. C. Gouveia    : GS-ROHF, GS-ROCIS                             
  Yang Guo               : DLPNO-NEVPT2, F12-NEVPT2, CIM, IAO-localization        
  Andreas Hansen         : Spin unrestricted coupled pair/coupled cluster methods 
  Ingolf Harden          : AUTO-CI MPn and infrastructure                
  Benjamin Helmich-Paris : MC-RPA, TRAH-(SCF,CASSCF), AVAS, COSX integrals, SCF dyn. polar., MC-PDFT, srDFT 
  Lee Huntington         : MR-EOM, pCC                                   
  Robert Izsak           : Overlap fitted RIJCOSX, COSX-SCS-MP3, EOM     
  Riya Kayal             : Wick's Theorem for AUTO-CI, AUTO-CI UHF-CCSDT 
  Emily Kempfer          : AUTO-CI RHF CISDT and CCSDT, approximate NEVPT4
  Christian Kollmar      : KDIIS, OOCD, Brueckner-CCSD(T), CCSD density, CASPT2, CASPT2-K, improved NEVPT2 
  Axel Koslowski         : Symmetry handling                             
  Simone Kossmann        : meta-GGA functionals, TD-DFT gradient, OOMP2, (MP2 Hessian; deprecated post 5.0) 
  Lucas Lang             : DCDCAS, Hyperfine gauge corrections, ICE-SOC+SSC
  Marvin Lechner         : AUTO-CI (C++ implementation), FIC-MRCC        
  Spencer Leger          : CASSCF response                               
  Dagmar Lenk            : GEPOL surface, SMD, ORCA-2-JSON               
  Dimitrios Liakos       : Extrapolation schemes; Compound Job, Property file
  Dimitrios Manganas     : Further ROCIS development; embedding schemes. LFT, Crystal Embedding 
  Dimitrios Pantazis     : SARC Basis sets                               
  Anastasios Papadopoulos: AUTO-CI, single reference methods and gradients 
  Taras Petrenko         : pre 6.0 DFT Hessian and TD-DFT gradient,  ECA, NRVS 
  Petra Pikulova         : Analytic Raman intensities                    
  Peter Pinski           : DLPNO-MP2, DLPNO-MP2 Gradient                 
  Shashank Vittal Rao    : ES-AILFT, MagRelax                            
  Christoph Reimann      : Effective Core Potentials                     
  Marius Retegan         : Local ZFS, SOC                                
  Christoph Riplinger    : Optimizer, TS searches, QM/MM, DLPNO-CCSD(T), (RO)-DLPNO pert. Triples 
  Michael Roemelt        : Original ROCIS implementation, recursive CI coupling coefficients
  Masaaki Saitow         : Open-shell DLPNO-CCSD energy and density      
  Barbara Sandhoefer     : DKH picture change effects                    
  Yorick L. A. Schmerwitz: GMF and freeze-and-release deltaSCF, NEB S-IDPP initial path                    
  Kantharuban Sivalingam : CASSCF convergence/infrastructure, NEVPT2, NEVPT3, NEVPT4(SD), FIC-MRCI and CEPA variants
  Bernardo de Souza      : ESD, SOC TD-DFT                               
  Georgi L. Stoychev     : AutoAux, RI-MP2 NMR, DLPNO-MP2 response, X2C  
  Van Anh Tran           : RI-MP2 g-tensors                              
  Willem Van den Heuvel  : Paramagnetic NMR                              
  Zikuan Wang            : NOTCH, Electric field optimization            
  Frank Wennmohs         : Technical directorship and infrastructure     
  Hang Xu                : AUTO-CI-Response properties                   
                                                                         
[FACCTs GmbH]                                                            
  Markus Bursch, Nicolas Foglia, Miquel Garcia-Rates, Ingolf Harden, Hagen Neugebauer, Anastasios Papadopoulos, 
  Christoph Riplinger, Bernardo de Souza, Georgi L. Stoychev                                                    
                                                                 
  APM, various basis sets, CI-OPT, improved COSX, DLPNO-Multilevel,           
  DOCKER, DRACO, updates on ESD, Fragmentator, GOAT, IRC, LR-CPCM, L-BFGS, MBIS, meta-GGA TD-DFT gradient, ML-optimized integration grids, 
  MM, NACMEs, nearIR, NEB, NEB-TS, NL-DFT gradient (VV10), 2- and 3-layer-ONIOM, interface openCOSMO-RS, QMMM,   
  Crystal-QMMM, RESP, rigid body optimization, SF, symmetry and pop. for TD-DFT, various functionals, SOLVATOR                                   
                                                                         
[Other institutions]                                                     
  V. Asgeirsson          : NEB                                           
  Christoph Bannwarth    : sTDA-DFT, sTD-DFT, PBEh-3c, B97-3c, D3        
  Giovanni Bistoni       : ETS/NOCV, ADLD/ADEX, COVALED                  
  Martin Brehm           : Molecular dynamics                            
  Ronald Cardenas        : ETS/NOCV                                      
  Martina Colucci        : COVALED                                       
  Sebastian Ehlert       : rSCAN, r2SCAN, r2SCAN-3c, D4, dhf basis sets  
  Marvin Friede          : D4 for Fr, Ra, Ac-Lr                          
  Lars Goerigk           : TD-DFT with DH, B97 family of functionals     
  Stefan Grimme          : VdW corrections, initial TS optimization, DFT functionals, gCP, sTDA/sTD-DF 
  Waldemar Hujo          : DFT-NL                                        
  H. Jonsson             : NEB                                           
  Holger Kruse           : gCP                                           
  Marcel Mueller         : wB97X-3c, vDZP basis set                      
  Hagen Neugebauer       : wr2SCAN, Native XTB                           
  Gianluca Regni         : ADLD/ADEX                                     
  Tobias Risthaus        : pre 6.0 range-separated hybrid DFT and stability analysis
  Lukas Wittmann         : regularized MP2, r2SCAN double-hybrids, wr2SCAN        
                                                                         
We gratefully acknowledge several colleagues who have allowed us to      
interface, adapt or use parts of their codes:                            
  Ed Valeev, F. Pavosevic, A. Kumar             : LibInt (2-el integral package), F12 methods 
  Garnet Chan, S. Sharma, J. Yang, R. Olivares  : DMRG                   
  Ulf Ekstrom                                   : XCFun DFT Library      
  Mihaly Kallay                                 : mrcc  (arbitrary order and MRCC methods)
  Frank Weinhold                                : gennbo (NPA and NBO analysis)           
  Simon Mueller                                 : openCOSMO-RS                            
  Christopher J. Cramer and Donald G. Truhlar   : smd solvation model                     
  S Lehtola, MJT Oliveira, MAL Marques          : LibXC Library                           
  Liviu Ungur et al                             : ANISO software                          


 Your calculation uses the libint2 library for the computation of 2-el integrals
 For citations please refer to: http://libint.valeyev.net

 Your ORCA version has been built with support for libXC version: 7.0.0
 For citations please refer to: https://libxc.gitlab.io

 This ORCA versions uses:
   CBLAS   interface :  Fast vector & matrix operations
   LAPACKE interface :  Fast linear algebra routines
   SCALAPACK package :  Parallel linear algebra routines
   Shared memory     :  Shared parallel matrices
   BLAS/LAPACK       :  OpenBLAS 0.3.29  USE64BITINT DYNAMIC_ARCH NO_AFFINITY Cooperlake SINGLE_THREADED
        Core in use  :  Cooperlake
   Copyright (c) 2011-2014, The OpenBLAS Project


  ***********************************
  * Starting time: Wed May 20 12:39:04 2026
  * Host name:     c1-47
  * Process ID:    3612900
  * Working dir.:  /cluster/projects/nn14654k/ylvaos/basis_set_n_funcs/functionals/gga_x_N12/PO2/out
  ***********************************

Using LibXC functional ID  82 : Minnesota N12 exchange functional
[ 1]  R. Peverati and D. G. Truhlar.,  J. Chem. Theory Comput. 8, 2310 (2012)
Using LibXC functional ID  82 : Minnesota N12 exchange functional
[ 1]  R. Peverati and D. G. Truhlar.,  J. Chem. Theory Comput. 8, 2310 (2012)
Your calculation utilizes LibXC
by S. Lehtola, C. Steigemann, M. J. T. Oliveira & M. A. L. Marques
Please cite in your paper:
Lehtola, S.; Steigemann, C.; Oliveira, M.J.T.; Marques, M. A. L. Software X, 7, (2018), 1.
   

================================================================================

----- Orbital basis set information -----
Your calculation utilizes the basis: cc-pVTZ 
       H, B-Ne : Obtained from the ccRepo (grant-hill.group.shef.ac.uk/ccrepo) Feb. 2017
                 T. H. Dunning, Jr., J. Chem. Phys. 90, 1007 (1989)
            He : Obtained from the ccRepo (grant-hill.group.shef.ac.uk/ccrepo) Feb. 2017
                 D. E. Woon, T. H. Dunning, Jr., J. Chem. Phys. 100, 2975 (1994)
  Li-Be, Na-Mg : Obtained from the ccRepo (grant-hill.group.shef.ac.uk/ccrepo) Feb. 2017
                 B. P. Prascher, D. E. Woon, K. A. Peterson, T. H. Dunning, Jr., A. K. Wilson, Theor. Chem. Acc. 128, 69 (2011)
         Al-Ar : Obtained from the ccRepo (grant-hill.group.shef.ac.uk/ccrepo) Feb. 2017
                 D. E. Woon, T. H. Dunning, Jr., J. Chem. Phys. 98, 1358 (1993)
            Ca : Obtained from the Peterson Research Group Website (tyr0.chem.wsu.edu/~kipeters) Feb. 2017
                 J. Koput, K. A. Peterson, J. Phys. Chem. 106, 9595 (2002)
         Sc-Zn : Obtained from the ccRepo (grant-hill.group.shef.ac.uk/ccrepo) Feb. 2017
                 N. B. Balabanov, K. A. Peterson, J. Chem. Phys. 123, 064107 (2005)
                 N. B. Balabanov, K. A. Peterson, J. Chem. Phys. 125, 074110 (2006)
         Ga-Kr : Obtained from the ccRepo (grant-hill.group.shef.ac.uk/ccrepo) Feb. 2017
                 A. K. Wilson, D. E. Woon, K. A. Peterson, T. H. Dunning, Jr., J. Chem. Phys. 110, 7667 (1999)
             Y : Obtained from the ccRepo (grant-hill.group.shef.ac.uk/ccrepo) Feb. 2017
                 K. A. Peterson, D. Figgen, M. Dolg, H. Stoll, J. Chem. Phys. 126, 124101 (2007)
        Ag, Au : Obtained from the Peterson Research Group Website (tyr0.chem.wsu.edu/~kipeters) Feb. 2017
                 K. A. Peterson, C. Puzzarini, Theor. Chem. Acc. 114, 283 (2005)

================================================================================
                                        WARNINGS
                       Please study these warnings very carefully!
================================================================================


WARNING: your system is open-shell and RHF/RKS was chosen
  ===> : WILL SWITCH to UHF/UKS


================================================================================
                                       INPUT FILE
================================================================================
NAME = /cluster/projects/nn14654k/ylvaos/basis_set_n_funcs/functionals/gga_x_N12/PO2/inp/PO2_gga_x_N12_ccpvtz.inp
|  1> ! dft cc-pVTZ TightSCF
|  2> %pal nprocs 8 end
|  3> 
|  4> %loc
|  5>   LocMet NewBoys
|  6>   Occ true
|  7> end
|  8> 
|  9> %method
| 10>   exchange gga_x_N12
| 11>   correlation None
| 12> end
| 13> 
| 14> %elprop
| 15>   Dipole true
| 16>   Quadrupole true
| 17> end
| 18> 
| 19> * xyz 0 2
| 20> P    0.000000000000   0.000000000000   0.287900000000
| 21> O    0.000000000000   1.356300000000  -0.269900000000
| 22> O    0.000000000000  -1.356300000000  -0.269900000000
| 23> *
| 24> 
| 25> 
| 26>                          ****END OF INPUT****
================================================================================

                       ****************************
                       * Single Point Calculation *
                       ****************************

---------------------------------
CARTESIAN COORDINATES (ANGSTROEM)
---------------------------------
  P      0.000000    0.000000    0.287900
  O      0.000000    1.356300   -0.269900
  O      0.000000   -1.356300   -0.269900

----------------------------
CARTESIAN COORDINATES (A.U.)
----------------------------
  NO LB      ZA    FRAG     MASS         X           Y           Z
   0 P    15.0000    0    30.974    0.000000    0.000000    0.544052
   1 O     8.0000    0    15.999    0.000000    2.563036   -0.510037
   2 O     8.0000    0    15.999    0.000000   -2.563036   -0.510037

--------------------------------
INTERNAL COORDINATES (ANGSTROEM)
--------------------------------
 P      0   0   0     0.000000000000     0.00000000     0.00000000
 O      1   0   0     1.466523279733     0.00000000     0.00000000
 O      1   2   0     1.466523279733   135.28860674     0.00000000

---------------------------
INTERNAL COORDINATES (A.U.)
---------------------------
 P      0   0   0     0.000000000000     0.00000000     0.00000000
 O      1   0   0     2.771327367716     0.00000000     0.00000000
 O      1   2   0     2.771327367716   135.28860674     0.00000000

---------------------
BASIS SET INFORMATION
---------------------
There are 2 groups of distinct atoms

 Group   1 Type P   : 41s16p2d1f contracted to 5s4p2d1f pattern {13131311/7711/11/1}
 Group   2 Type O   : 18s5p2d1f contracted to 4s3p2d1f pattern {8811/311/11/1}

Atom   0P    basis set group =>   1
Atom   1O    basis set group =>   2
Atom   2O    basis set group =>   2


           ************************************************************
           *        Program running with 8 parallel MPI-processes     *
           *              working on a common directory               *
           ************************************************************
------------------------------------------------------------------------------
                             ORCA STARTUP CALCULATIONS
------------------------------------------------------------------------------
------------------------------------------------------------------------------
                   ___                                                        
                  /   \      - P O W E R E D   B Y -                         
                 /     \                                                     
                 |  |  |   _    _      __       _____    __    __             
                 |  |  |  | |  | |    /  \     |  _  \  |  |  /  |          
                  \  \/   | |  | |   /    \    | | | |  |  | /  /          
                 / \  \   | |__| |  /  /\  \   | |_| |  |  |/  /          
                |  |  |   |  __  | /  /__\  \  |    /   |      \           
                |  |  |   | |  | | |   __   |  |    \   |  |\   \          
                \     /   | |  | | |  |  |  |  | |\  \  |  | \   \       
                 \___/    |_|  |_| |__|  |__|  |_| \__\ |__|  \__/        
                                                                              
                      - O R C A' S   B I G   F R I E N D -                    
                                      &                                       
                       - I N T E G R A L  F E E D E R -                       
                                                                              
 v1 FN, 2020, v2 2021, v3 2022-2024                                           
------------------------------------------------------------------------------


----------------------
SHARK INTEGRAL PACKAGE
----------------------

Number of atoms                             ...      3
Number of basis functions                   ...    131
Number of shells                            ...     59
Maximum angular momentum                    ...      3
Integral batch strategy                     ... SHARK/LIBINT Hybrid
RI-J (if used) integral strategy            ... SPLIT-RIJ (Revised 2003 algorithm where possible)
Printlevel                                  ...      1
Contraction scheme used                     ... PARTIAL GENERAL contraction
Prescreening option                         ... SCHWARTZ
   Thresh                                   ... 2.500e-11
   Tcut                                     ... 2.500e-12
   Tpresel                                  ... 2.500e-12 
Coulomb Range Separation                    ... NOT USED
Exchange Range Separation                   ... NOT USED
Multipole approximations                    ... NOT USED
Finite Nucleus Model                        ... NOT USED
CABS basis                                  ... NOT available
Auxiliary Coulomb fitting basis             ... NOT available
Auxiliary J/K fitting basis                 ... NOT available
Auxiliary Correlation fitting basis         ... NOT available
Auxiliary 'external' fitting basis          ... NOT available

Checking pre-screening integrals            ... done (  0.0 sec) Dimension = 59
Save PGC pre-screening integrals            ... done (  0.0 sec) Dimension = 59
Calculate PGC overlap integrals             ... done (  0.0 sec) Dimension = 32
Calculating pre-screening integrals (ORCA)  ... done (  0.1 sec) Dimension = 32
Shell pair information
Shell pair cut-off parameter TPreSel        ...   2.5e-12
Total number of shell pairs                 ...      1770
Shell pairs after pre-screening             ...      1448
Total number of primitive shell pairs       ...      2022
Primitive shell pairs kept                  ...      1596
          la=0 lb=0:    417 shell pairs
          la=1 lb=0:    443 shell pairs
          la=1 lb=1:    120 shell pairs
          la=2 lb=0:    196 shell pairs
          la=2 lb=1:     90 shell pairs
          la=2 lb=2:     21 shell pairs
          la=3 lb=0:     92 shell pairs
          la=3 lb=1:     45 shell pairs
          la=3 lb=2:     18 shell pairs
          la=3 lb=3:      6 shell pairs

Checking whether 4 symmetric matrices of dimension 131 fit in memory
:Max Core in MB      =   4096.00
 MB in use           =      3.45
 MB left             =   4092.55
 MB needed           =      0.26
 Data fit in memory  = YES
Calculating Nuclear repulsion               ... done (  0.0 sec) ENN=     99.086296046297 Eh

Diagonalization of the overlap matrix:
Smallest eigenvalue                        ... 3.519e-03
Time for diagonalization                   ...    0.001 sec
Threshold for overlap eigenvalues          ... 1.000e-07
Number of eigenvalues below threshold      ... 0
Time for construction of square roots      ...    0.002 sec
Total time needed                          ...    0.005 sec

-------------------
DFT GRID GENERATION
-------------------

General Integration Accuracy     IntAcc      ... 4.388
Radial Grid Type                 RadialGrid  ... OptM3 with GC (2021)
Angular Grid (max. ang.)         AngularGrid ... 4 (Lebedev-302)
Angular grid pruning method      GridPruning ... 4 (adaptive)
Weight generation scheme         WeightScheme... mBecke (2022)
Basis function cutoff            BFCut       ... 1.0000e-11
Integration weight cutoff        WCut        ... 1.0000e-14
Partially contracted basis set               ... off
Rotationally invariant grid construction     ... off
Angular grids for H and He will be reduced by one unit

Total number of grid points                  ...    19622
Total number of batches                      ...      309
Average number of points per batch           ...       63
Average number of grid points per atom       ...     6541

---------------------
SHARK GRID GENERATION
---------------------

General Integration Accuracy     IntAcc      ... 4.388
Radial Grid Type                 RadialGrid  ... OptM3 with GC (2021)
Angular Grid (max. ang.)         AngularGrid ... 4 (Lebedev-302)
Angular grid pruning method      GridPruning ... 4 (adaptive)
Weight generation scheme         WeightScheme... mBecke (2022)
Basis function cutoff            BFCut       ... 1.0000e-11
Integration weight cutoff        WCut        ... 1.0000e-14
Partially contracted basis set               ... off
Rotationally invariant grid construction     ... off
Angular grids for H and He will be reduced by one unit
Core-polarized basis detected: some atoms will have their core
                               angular grid increased.
Steep s-basis detected: some atoms will have their radial
                        grid points doubled.

Total number of grid points                  ...    44068
Total number of batches                      ...      689
Average number of points per batch           ...       63
Average number of grid points per atom       ...    14689
Grids setup in   0.4 sec
Initializing property integral containers    ... done (  0.0 sec)

SHARK setup successfully completed in   0.6 seconds

Maximum memory used throughout the entire STARTUP-calculation: 48.2 MB


           ************************************************************
           *        Program running with 8 parallel MPI-processes     *
           *              working on a common directory               *
           ************************************************************
-------------------------------------------------------------------------------
                                 ORCA GUESS
                   Start orbitals & Density for SCF / CASSCF
-------------------------------------------------------------------------------

------------
SCF SETTINGS
------------
Hamiltonian:
 Density Functional     Method          .... DFT(GTOs)
  Functional kind                       .... Exchange
  Functional name                       .... Minnesota N12 exchange functional
  Functional family                     .... GGA
  Functional refs                              
    [ 0] R. Peverati and D. G. Truhlar.,  J. Chem. Theory Comput. 8, 2310 (2012), doi: 10.1021/ct3002656
  Functional external parameters        .... 16
    Parameter  0 _CC00      =  1.000000e+00 : _CC00               
    Parameter  1 _CC01      =  5.078800e-01 : _CC01               
    Parameter  2 _CC02      =  1.682330e-01 : _CC02               
    Parameter  3 _CC03      =  1.288870e-01 : _CC03               
    Parameter  4 _CC10      =  8.602110e-02 : _CC10               
    Parameter  5 _CC11      = -1.710080e+01 : _CC11               
    Parameter  6 _CC12      =  6.508140e+01 : _CC12               
    Parameter  7 _CC13      = -7.017260e+01 : _CC13               
    Parameter  8 _CC20      = -3.907550e-01 : _CC20               
    Parameter  9 _CC21      =  5.133920e+01 : _CC21               
    Parameter 10 _CC22      = -1.662200e+02 : _CC22               
    Parameter 11 _CC23      =  1.427380e+02 : _CC23               
    Parameter 12 _CC30      =  4.036110e-01 : _CC30               
    Parameter 13 _CC31      = -3.446310e+01 : _CC31               
    Parameter 14 _CC32      =  7.616610e+01 : _CC32               
    Parameter 15 _CC33      = -2.418340e+00 : _CC33               
 Correlation Functional Correlation     .... No Correlation
 Gradients option       PostSCFGGA      .... off


General Settings:
 Integral files         IntName         .... /cluster/projects/nn14654k/ylvaos/basis_set_n_funcs/functionals/gga_x_N12/PO2/inp/PO2_gga_x_N12_ccpvtz
 Hartree-Fock type      HFTyp           .... UHF
 Total Charge           Charge          ....    0
 Multiplicity           Mult            ....    2
 Number of Electrons    NEL             ....   31
 Basis Dimension        Dim             ....   94
 Nuclear Repulsion      ENuc            ....     99.0862960463 Eh

Convergence Acceleration:
 AO-DIIS                CNVDIIS         .... on
   Start iteration      DIISMaxIt       ....    12
   Startup error        DIISStart       ....  0.200000
   # of expansion vecs  DIISMaxEq       ....     5
   Bias factor          DIISBfac        ....   1.050
   Max. coefficient     DIISMaxC        ....  10.000
 MO-DIIS                CNVKDIIS        .... off
 Trust-Rad. Augm. Hess. CNVTRAH         .... auto
   Auto Start mean grad. ratio tolernc. ....  1.125000
   Auto Start start iteration           ....    50
   Auto Start num. interpolation iter.  ....    10
   Max. Number of Micro iterations      ....    24
   Max. Number of Macro iterations      .... Maxiter - #DIIS iter
   Number of Davidson start vectors     ....     2
   Converg. threshold    (grad. norm)   ....   1.000e-05
   Grad. Scal. Fac. for Micro threshold ....   0.100
   Minimum threshold for Micro iter.    ....   1.000e-02
   NR start threshold (gradient norm)   ....   1.000e-04
   Initial trust radius                 ....   0.400
   Minimum AH scaling param. (alpha)    ....   1.000
   Maximum AH scaling param. (alpha)    .... 1000.000
   Quad. conv. algorithm                .... NR
   White noise on init. David. guess    .... on
   Maximum white noise                  ....   0.010
   Pseudo random numbers                .... off
   Inactive MOs                         .... canonical
   Orbital update algorithm             .... Taylor
   Preconditioner                       .... Diag
   Full preconditioner red. dimension   ....   250
 SOSCF                 CNVSOSCF           .... on
   Start iteration     SOSCFMaxIt         ....   150
   Startup grad/error  SOSCFStart         ....  0.003300
   Hessian update      SOSCFHessUp        .... L-BFGS
   Autom. constraints  SOSCFAutoConstrain .... off
 Level Shifting         CNVShift        .... on
   Level shift para.    LevelShift      ....    0.2500
   Turn off err/grad.   ShiftErr        ....    0.0010
 Zerner damping         CNVZerner       .... off
 Static damping         CNVDamp         .... on
   Fraction old density DampFac         ....    0.7000
   Max. Damping (<1)    DampMax         ....    0.9800
   Min. Damping (>=0)   DampMin         ....    0.0000
   Turn off err/grad.   DampErr         ....    0.1000

SCF Procedure:
 Maximum # iterations   MaxIter         ....   125
 SCF integral mode      SCFMode         .... Direct
   Integral package                     .... SHARK and LIBINT hybrid scheme
 Reset frequency        DirectResetFreq ....    20
 Integral Threshold     Thresh          ....  2.500e-11 Eh
 Primitive CutOff       TCut            ....  2.500e-12 Eh

Convergence Tolerance:
 Convergence Check Mode ConvCheckMode   .... Total+1el-Energy
 Convergence forced     ConvForced      .... 0
 Energy Change          TolE            ....  1.000e-08 Eh
 1-El. energy change                    ....  1.000e-05 Eh
 Orbital Gradient       TolG            ....  1.000e-05
 Orbital Rotation angle TolX            ....  1.000e-05
 DIIS Error             TolErr          ....  5.000e-07

------------------------------
INITIAL GUESS: MODEL POTENTIAL
------------------------------
Loading Hartree-Fock densities                     ... done
Calculating cut-offs                               ... done
Initializing the effective Hamiltonian             ... done
Setting up the integral package (SHARK)            ... done
Starting the Coulomb interaction                   ... done (   0.0 sec)
Making the grid                                    ... done (   0.0 sec)
Mapping shells                                     ... done
Starting the XC term evaluation                    ... done (   0.0 sec)
  promolecular density results
     # of electrons  =     31.000340810
     EX              =    -38.233372540
     EC              =      0.000000000
     EX+EC           =    -38.233372540
Transforming the Hamiltonian                       ... done (   0.0 sec)
Diagonalizing the Hamiltonian                      ... done (   0.0 sec)
Back transforming the eigenvectors                 ... done (   0.0 sec)
Now organizing SCF variables                       ... done
                      ------------------
                      INITIAL GUESS DONE (   0.1 sec)
                      ------------------
             **** ENERGY FILE WAS UPDATED (/cluster/projects/nn14654k/ylvaos/basis_set_n_funcs/functionals/gga_x_N12/PO2/inp/PO2_gga_x_N12_ccpvtz.en.tmp) ****
Finished Guess after   0.1 sec
Maximum memory used throughout the entire GUESS-calculation: 7.3 MB


           ************************************************************
           *        Program running with 8 parallel MPI-processes     *
           *              working on a common directory               *
           ************************************************************

-------------------------------------------------------------------------------------------
                                      ORCA LEAN-SCF
                              memory conserving SCF solver
-------------------------------------------------------------------------------------------

----------------------------------------D-I-I-S--------------------------------------------
Iteration    Energy (Eh)           Delta-E    RMSDP     MaxDP     DIISErr   Damp  Time(sec)
-------------------------------------------------------------------------------------------
               ***  Starting incremental Fock matrix formation  ***
    1    -489.5739589627457349     0.00e+00  7.67e-03  5.34e-02  1.99e-01  0.700   0.2
Warning: op=1 Small HOMO/LUMO gap (   0.061) - skipping pre-diagonalization
         Will do a full diagonalization
    2    -489.7591608229737972    -1.85e-01  3.21e-03  2.25e-02  4.76e-02  0.700   0.2
                               ***Turning on AO-DIIS***
    3    -489.7962582218207785    -3.71e-02  1.35e-03  1.79e-02  1.77e-02  0.700   0.2
    4    -489.8239126670306973    -2.77e-02  2.90e-03  5.55e-02  2.54e-02  0.000   0.4
    5    -489.9016885437284259    -7.78e-02  9.57e-04  1.17e-02  1.58e-02  0.000   0.2
    6    -489.9041539886694068    -2.47e-03  3.82e-04  4.41e-03  5.78e-03  0.000   0.2
                              *** Initializing SOSCF ***
---------------------------------------S-O-S-C-F--------------------------------------
Iteration    Energy (Eh)           Delta-E    RMSDP     MaxDP     MaxGrad    Time(sec)
--------------------------------------------------------------------------------------
    7    -489.9044740177764083    -3.20e-04  2.01e-04  3.27e-03  2.23e-03     0.2
               *** Restarting incremental Fock matrix formation ***
    8    -489.9045211600407015    -4.71e-05  2.22e-04  2.04e-03  1.66e-03     0.2
    9    -489.9044976485049006     2.35e-05  1.13e-04  9.37e-04  2.51e-03     0.1
   10    -489.9045344154965846    -3.68e-05  3.82e-05  2.87e-04  2.12e-04     0.1
   11    -489.9045350743571703    -6.59e-07  2.18e-05  3.97e-04  1.08e-04     0.1
   12    -489.9045352439013072    -1.70e-07  1.03e-05  1.68e-04  3.33e-05     0.2
   13    -489.9045352640084161    -2.01e-08  2.45e-06  4.08e-05  1.37e-05     0.1
   14    -489.9045352673202274    -3.31e-09  1.07e-06  2.33e-05  2.46e-06     0.1
                 **** Energy Check signals convergence ****

               *****************************************************
               *                     SUCCESS                       *
               *           SCF CONVERGED AFTER  14 CYCLES          *
               *****************************************************

             **** ENERGY FILE WAS UPDATED (/cluster/projects/nn14654k/ylvaos/basis_set_n_funcs/functionals/gga_x_N12/PO2/inp/PO2_gga_x_N12_ccpvtz.en.tmp) ****

----------------
TOTAL SCF ENERGY
----------------

Total Energy       :       -489.90453526733216 Eh          -13330.98014 eV

Components:
Nuclear Repulsion  :         99.08629604629714 Eh            2696.27519 eV
Electronic Energy  :       -588.99083131362931 Eh          -16027.25533 eV
One Electron Energy:       -875.85596162984643 Eh          -23833.25238 eV
Two Electron Energy:        286.86513031621718 Eh            7805.99705 eV

Virial components:
Potential Energy   :       -980.24542480186665 Eh          -26673.83408 eV
Kinetic Energy     :        490.34088953453443 Eh           13342.85394 eV
Virial Ratio       :          1.99911010018435

DFT components:
N(Alpha)           :       16.000011701858 electrons
N(Beta)            :       15.000009188632 electrons
N(Total)           :       31.000020890490 electrons
E(X)               :      -38.524954842742 Eh       
E(C)               :        0.000000000000 Eh       
E(XC)              :      -38.524954842742 Eh       

---------------
SCF CONVERGENCE
---------------

  Last Energy change         ...    3.3118e-09  Tolerance :   1.0000e-08
  Last MAX-Density change    ...    2.3320e-05  Tolerance :   1.0000e-07
  Last RMS-Density change    ...    1.0738e-06  Tolerance :   5.0000e-09
  Last DIIS Error            ...    2.2251e-03  Tolerance :   5.0000e-07
  Last Orbital Gradient      ...    2.4648e-06  Tolerance :   1.0000e-05
  Last Orbital Rotation      ...    1.6657e-05  Tolerance :   1.0000e-05


----------------------
UHF SPIN CONTAMINATION
----------------------

Warning: in a DFT calculation there is little theoretical justification to 
         calculate <S**2> as in Hartree-Fock theory. We will do it anyways
         but you should keep in mind that the values have only limited relevance

Expectation value of <S**2>     :     0.755613
Ideal value S*(S+1) for S=0.5   :     0.750000
Deviation                       :     0.005613

----------------
ORBITAL ENERGIES
----------------
                 SPIN UP ORBITALS
  NO   OCC          E(Eh)            E(eV) 
   0   1.0000     -76.258386     -2075.0962 
   1   1.0000     -18.751261      -510.2477 
   2   1.0000     -18.751252      -510.2475 
   3   1.0000      -6.377917      -173.5519 
   4   1.0000      -4.701448      -127.9329 
   5   1.0000      -4.698870      -127.8628 
   6   1.0000      -4.695343      -127.7668 
   7   1.0000      -0.932946       -25.3867 
   8   1.0000      -0.888805       -24.1856 
   9   1.0000      -0.461809       -12.5665 
  10   1.0000      -0.371233       -10.1018 
  11   1.0000      -0.356652        -9.7050 
  12   1.0000      -0.355900        -9.6845 
  13   1.0000      -0.285789        -7.7767 
  14   1.0000      -0.280071        -7.6211 
  15   1.0000      -0.228917        -6.2292 
  16   0.0000      -0.081057        -2.2057 
  17   0.0000       0.023406         0.6369 
  18   0.0000       0.100374         2.7313 
  19   0.0000       0.188658         5.1336 
  20   0.0000       0.215427         5.8621 
  21   0.0000       0.231103         6.2886 
  22   0.0000       0.273465         7.4413 
  23   0.0000       0.292554         7.9608 
  24   0.0000       0.293918         7.9979 
  25   0.0000       0.412746        11.2314 
  26   0.0000       0.502193        13.6654 

                 SPIN DOWN ORBITALS
  NO   OCC          E(Eh)            E(eV) 
   0   1.0000     -76.255693     -2075.0229 
   1   1.0000     -18.739919      -509.9391 
   2   1.0000     -18.739910      -509.9389 
   3   1.0000      -6.375359      -173.4823 
   4   1.0000      -4.698903      -127.8637 
   5   1.0000      -4.694009      -127.7305 
   6   1.0000      -4.693626      -127.7200 
   7   1.0000      -0.914561       -24.8865 
   8   1.0000      -0.869601       -23.6630 
   9   1.0000      -0.430499       -11.7145 
  10   1.0000      -0.343950        -9.3593 
  11   1.0000      -0.342954        -9.3322 
  12   1.0000      -0.333983        -9.0881 
  13   1.0000      -0.277834        -7.5602 
  14   1.0000      -0.263985        -7.1834 
  15   0.0000      -0.163100        -4.4382 
  16   0.0000      -0.051382        -1.3982 
  17   0.0000       0.040780         1.1097 
  18   0.0000       0.115169         3.1339 
  19   0.0000       0.206640         5.6230 
  20   0.0000       0.222837         6.0637 
  21   0.0000       0.244611         6.6562 
  22   0.0000       0.305344         8.3088 
  23   0.0000       0.317415         8.6373 
  24   0.0000       0.324827         8.8390 
  25   0.0000       0.426109        11.5950 
*Only the first 10 virtual orbitals were printed.

                    ********************************
                    * MULLIKEN POPULATION ANALYSIS *
                    ********************************

--------------------------------------------
MULLIKEN ATOMIC CHARGES AND SPIN POPULATIONS
--------------------------------------------
   0 P :    0.581688    0.570754
   1 O :   -0.290844    0.214623
   2 O :   -0.290844    0.214623
Sum of atomic charges         :    0.0000000
Sum of atomic spin populations:    1.0000000

-----------------------------------------------------
MULLIKEN REDUCED ORBITAL CHARGES AND SPIN POPULATIONS
-----------------------------------------------------
CHARGE
  0 P s       :     5.501963  s :     5.501963
      pz      :     2.865262  p :     8.281064
      px      :     2.766322
      py      :     2.649480
      dz2     :     0.077703  d :     0.565082
      dxz     :     0.013576
      dyz     :     0.171545
      dx2y2   :     0.137659
      dxy     :     0.164598
      f0      :     0.004795  f :     0.070202
      f+1     :     0.000171
      f-1     :     0.023462
      f+2     :     0.011337
      f-2     :     0.009076
      f+3     :     0.012460
      f-3     :     0.008901

  1 O s       :     3.727879  s :     3.727879
      pz      :     1.540225  p :     4.533387
      px      :     1.507457
      py      :     1.485705
      dz2     :     0.004110  d :     0.028237
      dxz     :     0.001234
      dyz     :     0.007909
      dx2y2   :     0.007180
      dxy     :     0.007804
      f0      :     0.000119  f :     0.001341
      f+1     :     0.000006
      f-1     :     0.000303
      f+2     :     0.000264
      f-2     :     0.000132
      f+3     :     0.000266
      f-3     :     0.000251

  2 O s       :     3.727879  s :     3.727879
      pz      :     1.540225  p :     4.533387
      px      :     1.507457
      py      :     1.485705
      dz2     :     0.004110  d :     0.028237
      dxz     :     0.001234
      dyz     :     0.007909
      dx2y2   :     0.007180
      dxy     :     0.007804
      f0      :     0.000119  f :     0.001341
      f+1     :     0.000006
      f-1     :     0.000303
      f+2     :     0.000264
      f-2     :     0.000132
      f+3     :     0.000266
      f-3     :     0.000251


SPIN
  0 P s       :     0.340954  s :     0.340954
      pz      :     0.175052  p :     0.176745
      px      :     0.030621
      py      :    -0.028928
      dz2     :     0.023449  d :     0.061030
      dxz     :    -0.005127
      dyz     :    -0.002761
      dx2y2   :     0.045664
      dxy     :    -0.000195
      f0      :    -0.000600  f :    -0.007976
      f+1     :    -0.000106
      f-1     :    -0.002296
      f+2     :    -0.001082
      f-2     :    -0.000545
      f+3     :    -0.002472
      f-3     :    -0.000875

  1 O s       :    -0.004275  s :    -0.004275
      pz      :     0.186687  p :     0.218697
      px      :    -0.011347
      py      :     0.043356
      dz2     :     0.000002  d :     0.000031
      dxz     :     0.000034
      dyz     :    -0.000240
      dx2y2   :     0.000074
      dxy     :     0.000162
      f0      :     0.000002  f :     0.000170
      f+1     :    -0.000005
      f-1     :     0.000031
      f+2     :     0.000048
      f-2     :     0.000041
      f+3     :     0.000027
      f-3     :     0.000026

  2 O s       :    -0.004275  s :    -0.004275
      pz      :     0.186687  p :     0.218697
      px      :    -0.011347
      py      :     0.043356
      dz2     :     0.000002  d :     0.000031
      dxz     :     0.000034
      dyz     :    -0.000240
      dx2y2   :     0.000074
      dxy     :     0.000162
      f0      :     0.000002  f :     0.000170
      f+1     :    -0.000005
      f-1     :     0.000031
      f+2     :     0.000048
      f-2     :     0.000041
      f+3     :     0.000027
      f-3     :     0.000026



                     *******************************
                     * LOEWDIN POPULATION ANALYSIS *
                     *******************************

-------------------------------------------
LOEWDIN ATOMIC CHARGES AND SPIN POPULATIONS
-------------------------------------------
   0 P :    0.082889    0.573516
   1 O :   -0.041444    0.213242
   2 O :   -0.041444    0.213242

----------------------------------------------------
LOEWDIN REDUCED ORBITAL CHARGES AND SPIN POPULATIONS
----------------------------------------------------
CHARGE
  0 P s       :     5.170002  s :     5.170002
      pz      :     2.907818  p :     8.432700
      px      :     2.742788
      py      :     2.782093
      dz2     :     0.141437  d :     1.076024
      dxz     :     0.018001
      dyz     :     0.337464
      dx2y2   :     0.302190
      dxy     :     0.276931
      f0      :     0.019240  f :     0.238386
      f+1     :     0.000279
      f-1     :     0.072756
      f+2     :     0.043855
      f-2     :     0.031153
      f+3     :     0.029779
      f-3     :     0.041324

  1 O s       :     3.508644  s :     3.508644
      pz      :     1.490978  p :     4.481371
      px      :     1.439254
      py      :     1.551139
      dz2     :     0.005682  d :     0.049263
      dxz     :     0.001403
      dyz     :     0.017139
      dx2y2   :     0.015726
      dxy     :     0.009314
      f0      :     0.000244  f :     0.002165
      f+1     :     0.000013
      f-1     :     0.000423
      f+2     :     0.000514
      f-2     :     0.000176
      f+3     :     0.000375
      f-3     :     0.000421

  2 O s       :     3.508644  s :     3.508644
      pz      :     1.490978  p :     4.481371
      px      :     1.439254
      py      :     1.551139
      dz2     :     0.005682  d :     0.049263
      dxz     :     0.001403
      dyz     :     0.017139
      dx2y2   :     0.015726
      dxy     :     0.009314
      f0      :     0.000244  f :     0.002165
      f+1     :     0.000013
      f-1     :     0.000423
      f+2     :     0.000514
      f-2     :     0.000176
      f+3     :     0.000375
      f-3     :     0.000421


SPIN
  0 P s       :     0.229965  s :     0.229965
      pz      :     0.194094  p :     0.206015
      px      :     0.028067
      py      :    -0.016147
      dz2     :     0.056800  d :     0.141949
      dxz     :    -0.004737
      dyz     :    -0.004488
      dx2y2   :     0.095721
      dxy     :    -0.001347
      f0      :    -0.000071  f :    -0.004413
      f+1     :    -0.000090
      f-1     :    -0.000996
      f+2     :    -0.001105
      f-2     :    -0.000528
      f+3     :    -0.002405
      f-3     :     0.000782

  1 O s       :     0.012727  s :     0.012727
      pz      :     0.167117  p :     0.199453
      px      :    -0.009841
      py      :     0.042177
      dz2     :     0.000262  d :     0.000939
      dxz     :     0.000079
      dyz     :     0.000483
      dx2y2   :    -0.000117
      dxy     :     0.000232
      f0      :    -0.000003  f :     0.000123
      f+1     :    -0.000002
      f-1     :     0.000032
      f+2     :     0.000022
      f-2     :     0.000032
      f+3     :     0.000020
      f-3     :     0.000022

  2 O s       :     0.012727  s :     0.012727
      pz      :     0.167117  p :     0.199453
      px      :    -0.009841
      py      :     0.042177
      dz2     :     0.000262  d :     0.000939
      dxz     :     0.000079
      dyz     :     0.000483
      dx2y2   :    -0.000117
      dxy     :     0.000232
      f0      :    -0.000003  f :     0.000123
      f+1     :    -0.000002
      f-1     :     0.000032
      f+2     :     0.000022
      f-2     :     0.000032
      f+3     :     0.000020
      f-3     :     0.000022



                      *****************************
                      * MAYER POPULATION ANALYSIS *
                      *****************************

  NA   - Mulliken gross atomic population
  ZA   - Total nuclear charge
  QA   - Mulliken gross atomic charge
  VA   - Mayer's total valence
  BVA  - Mayer's bonded valence
  FA   - Mayer's free valence

  ATOM       NA         ZA         QA         VA         BVA        FA
  0 P     14.4183    15.0000     0.5817     4.7118     4.3175     0.3942
  1 O      8.2908     8.0000    -0.2908     2.3805     2.3311     0.0494
  2 O      8.2908     8.0000    -0.2908     2.3805     2.3311     0.0494

  Mayer bond orders larger than 0.100000
B(  0-P ,  1-O ) :   2.1588 B(  0-P ,  2-O ) :   2.1588 B(  1-O ,  2-O ) :   0.1723 


-------
TIMINGS
-------

Total SCF time: 0 days 0 hours 0 min 2 sec 

Total time                  ....       2.657 sec
Sum of individual times     ....       2.495 sec  ( 93.9%)

SCF preparation             ....       0.111 sec  (  4.2%)
Fock matrix formation       ....       1.709 sec  ( 64.3%)
  Startup                   ....       0.024 sec  (  1.4% of F)
  Coulomb formation         ....       0.583 sec  ( 34.1% of F)
  XC integration            ....       0.530 sec  ( 31.0% of F)
    XC Preparation          ....       0.000 sec  (  0.0% of XC)
    Basis function eval.    ....       0.042 sec  (  8.0% of XC)
    Density eval.           ....       0.029 sec  (  5.5% of XC)
    XC-Functional eval.     ....       0.013 sec  (  2.4% of XC)
    XC-Potential eval.      ....       0.069 sec  ( 13.1% of XC)
Diagonalization             ....       0.000 sec  (  0.0%)
Density matrix formation    ....       0.232 sec  (  8.7%)
Total Energy calculation    ....       0.027 sec  (  1.0%)
Population analysis         ....       0.027 sec  (  1.0%)
Orbital Transformation      ....       0.036 sec  (  1.4%)
Orbital Orthonormalization  ....       0.000 sec  (  0.0%)
DIIS solution               ....       0.258 sec  (  9.7%)
SOSCF solution              ....       0.094 sec  (  3.5%)
Finished LeanSCF after   2.7 sec

Maximum memory used throughout the entire LEANSCF-calculation: 11.6 MB


           ************************************************************
           *        Program running with 8 parallel MPI-processes     *
           *              working on a common directory               *
           ************************************************************

------------------------------------------------------------------------------
                         ORCA PROPERTY INTEGRAL CALCULATIONS
------------------------------------------------------------------------------

GBWName                                   ... /cluster/projects/nn14654k/ylvaos/basis_set_n_funcs/functionals/gga_x_N12/PO2/inp/PO2_gga_x_N12_ccpvtz.gbw
Number of atoms                           ...      3
Number of basis functions                 ...    131
Max core memory                           ...   4096 MB

Dipole integrals                          ... YES
Quadrupole integrals                      ... YES
Linear momentum integrals                 ...  NO
Angular momentum integrals                ...  NO
Higher moments length integrals           ...  NO
Higher moments velocity integrals         ...  NO
Kinetic energy integrals                  ...  NO
GIAO right hand sides                     ...  NO
GIAO dipole derivative integrals          ...  NO
SOC integrals                             ...  NO
EPR diamagnetic integrals (GIAO)          ...  NO
EPR gauge integrals                       ...  NO
Field gradient integrals                  ...  NO (   0 nuclei)
Spin-dipole/Fermi contact integrals       ...  NO (   0 nuclei)
Contact density integrals                 ...  NO (   0 nuclei)
Nucleus-orbit integrals                   ...  NO (   0 nuclei)
Geometric perturbations                   ...  NO (   3 nuclei)

Choice of electric origin   ... Center of mass
Position of electric origin ... (  0.0000,  0.0000,  0.0084) 
Choice of magnetic origin   ... GIAO
Position of magnetic origin ... (  0.0000,  0.0000,  0.0000) 

Calculating integrals                     ... Electric Dipole (Length)     done (  0.0 sec)
Calculating integrals                     ... Electric Quadrupole (Length) done (  0.0 sec)

Property integrals calculated in   0.0 sec

Maximum memory used throughout the entire PROPINT-calculation: 7.7 MB
------------------------------------------------------------------------------
                           ORCA ORBITAL LOCALIZATION
------------------------------------------------------------------------------

Input orbitals are from                  ... /cluster/projects/nn14654k/ylvaos/basis_set_n_funcs/functionals/gga_x_N12/PO2/inp/PO2_gga_x_N12_ccpvtz.gbw
Output orbitals are to                   ... /cluster/projects/nn14654k/ylvaos/basis_set_n_funcs/functionals/gga_x_N12/PO2/inp/PO2_gga_x_N12_ccpvtz.loc
Max. number of iterations                ... 128
Localizations seeded randomly            ... on
Convergence tolerance                    ... 1.000e-06
Threshold for strong local MOs           ... 9.500e-01
Threshold for bond MOs                   ... 8.500e-01
Operator                                 ... 0
Orbital range for localization           ... 4 to 15
Localization criterion                   ... NEW-BOYS
Doing the dipole integrals               ... o.k.
Initial value of the localization sum :    31.553811
ITERATION   0 : L=   47.4755495151 DL=  1.59e+01 (AVERGE_DL)=    0.4911603289 
ITERATION   1 : L=   49.9652950014 DL=  2.49e+00 (AVERGE_DL)=    0.1942251695 
ITERATION   2 : L=   50.2049568297 DL=  2.40e-01 (AVERGE_DL)=    0.0602597695 
ITERATION   3 : L=   50.2083237062 DL=  3.37e-03 (AVERGE_DL)=    0.0071423582 
ITERATION   4 : L=   50.2090475020 DL=  7.24e-04 (AVERGE_DL)=    0.0033115862 
ITERATION   5 : L=   50.2092346624 DL=  1.87e-04 (AVERGE_DL)=    0.0016839725 
ITERATION   6 : L=   50.2092827174 DL=  4.81e-05 (AVERGE_DL)=    0.0008532908 
ITERATION   7 : L=   50.2092945291 DL=  1.18e-05 (AVERGE_DL)=    0.0004230440 
ITERATION   8 : L=   50.2092973584 DL=  2.83e-06 (AVERGE_DL)=    0.0002070444 
ITERATION   9 : L=   50.2092980255 DL=  6.67e-07 (AVERGE_DL)=    0.0001005376 
LOCALIZATION SUM CONVERGED


--------------------------------------------------------------------------------
                    LOCALIZED MOLECULAR ORBITAL COMPOSITIONS
--------------------------------------------------------------------------------

The Mulliken populations for each LMO on each atom are computed
The LMO`s will be ordered according to atom index and type
  (A) Strongly localized MO`s have populations of >=0.950 on one atom
  (B) Two center bond orbitals have populations of >=0.850 on two atoms
  (C) Other MO`s are considered to be `delocalized`

FOUND  -   4 strongly local MO`s
       -   8 two center bond MO`s
       -   0 significantly delocalized MO`s

Rather strongly localized orbitals:
MO   7:   0P  -   1.052596
MO   6:   0P  -   1.000763
MO   5:   0P  -   1.003976
MO   4:   0P  -   1.000763
Bond-like localized orbitals:
MO  15:   2O  -   0.877504  and   0P  -   0.123446
MO  14:   2O  -   0.730566  and   0P  -   0.267980
MO  13:   2O  -   0.730565  and   0P  -   0.267981
MO  12:   2O  -   0.938480  and   0P  -   0.061185
MO  11:   1O  -   0.730574  and   0P  -   0.267976
MO  10:   1O  -   0.877493  and   0P  -   0.123458
MO   9:   1O  -   0.938484  and   0P  -   0.061180
MO   8:   1O  -   0.730564  and   0P  -   0.267980
Localized MO's were stored in: /cluster/projects/nn14654k/ylvaos/basis_set_n_funcs/functionals/gga_x_N12/PO2/inp/PO2_gga_x_N12_ccpvtz.loc
------------------------------------------------------------------------------
                           ORCA ORBITAL LOCALIZATION
------------------------------------------------------------------------------

Input orbitals are from                  ... /cluster/projects/nn14654k/ylvaos/basis_set_n_funcs/functionals/gga_x_N12/PO2/inp/PO2_gga_x_N12_ccpvtz.loc
Output orbitals are to                   ... /cluster/projects/nn14654k/ylvaos/basis_set_n_funcs/functionals/gga_x_N12/PO2/inp/PO2_gga_x_N12_ccpvtz.loc
Max. number of iterations                ... 128
Localizations seeded randomly            ... on
Convergence tolerance                    ... 1.000e-06
Threshold for strong local MOs           ... 9.500e-01
Threshold for bond MOs                   ... 8.500e-01
Operator                                 ... 1
Orbital range for localization           ... 4 to 14
Localization criterion                   ... NEW-BOYS
Doing the dipole integrals               ... o.k.
Initial value of the localization sum :    28.994466
ITERATION   0 : L=   40.9695300760 DL=  1.20e+01 (AVERGE_DL)=    0.4666138033 
ITERATION   1 : L=   42.7767904785 DL=  1.81e+00 (AVERGE_DL)=    0.1812712885 
ITERATION   2 : L=   43.0097715648 DL=  2.33e-01 (AVERGE_DL)=    0.0650847121 
ITERATION   3 : L=   43.0134223169 DL=  3.65e-03 (AVERGE_DL)=    0.0081472272 
ITERATION   4 : L=   43.0154628302 DL=  2.04e-03 (AVERGE_DL)=    0.0060909968 
ITERATION   5 : L=   43.0171030110 DL=  1.64e-03 (AVERGE_DL)=    0.0054609036 
ITERATION   6 : L=   43.0184549613 DL=  1.35e-03 (AVERGE_DL)=    0.0049579144 
ITERATION   7 : L=   43.0195429328 DL=  1.09e-03 (AVERGE_DL)=    0.0044476172 
ITERATION   8 : L=   43.0204073440 DL=  8.64e-04 (AVERGE_DL)=    0.0039644125 
ITERATION   9 : L=   43.0210867420 DL=  6.79e-04 (AVERGE_DL)=    0.0035146396 
ITERATION  10 : L=   43.0216163958 DL=  5.30e-04 (AVERGE_DL)=    0.0031032353 
ITERATION  11 : L=   43.0220267322 DL=  4.10e-04 (AVERGE_DL)=    0.0027314212 
ITERATION  12 : L=   43.0223431402 DL=  3.16e-04 (AVERGE_DL)=    0.0023985148 
ITERATION  13 : L=   43.0225862689 DL=  2.43e-04 (AVERGE_DL)=    0.0021025039 
ITERATION  14 : L=   43.0227726108 DL=  1.86e-04 (AVERGE_DL)=    0.0018406612 
ITERATION  15 : L=   43.0229151728 DL=  1.43e-04 (AVERGE_DL)=    0.0016099806 
ITERATION  16 : L=   43.0230240987 DL=  1.09e-04 (AVERGE_DL)=    0.0014072916 
ITERATION  17 : L=   43.0231072624 DL=  8.32e-05 (AVERGE_DL)=    0.0012296617 
ITERATION  18 : L=   43.0231707231 DL=  6.35e-05 (AVERGE_DL)=    0.0010741655 
ITERATION  19 : L=   43.0232191391 DL=  4.84e-05 (AVERGE_DL)=    0.0009382377 
ITERATION  20 : L=   43.0232560773 DL=  3.69e-05 (AVERGE_DL)=    0.0008195143 
ITERATION  21 : L=   43.0232842643 DL=  2.82e-05 (AVERGE_DL)=    0.0007158853 
ITERATION  22 : L=   43.0233057750 DL=  2.15e-05 (AVERGE_DL)=    0.0006253827 
ITERATION  23 : L=   43.0233221986 DL=  1.64e-05 (AVERGE_DL)=    0.0005464523 
ITERATION  24 : L=   43.0233347434 DL=  1.25e-05 (AVERGE_DL)=    0.0004775843 
ITERATION  25 : L=   43.0233443283 DL=  9.58e-06 (AVERGE_DL)=    0.0004174591 
ITERATION  26 : L=   43.0233516555 DL=  7.33e-06 (AVERGE_DL)=    0.0003649946 
ITERATION  27 : L=   43.0233572589 DL=  5.60e-06 (AVERGE_DL)=    0.0003191864 
ITERATION  28 : L=   43.0233615486 DL=  4.29e-06 (AVERGE_DL)=    0.0002792750 
ITERATION  29 : L=   43.0233648328 DL=  3.28e-06 (AVERGE_DL)=    0.0002443617 
ITERATION  30 : L=   43.0233673477 DL=  2.51e-06 (AVERGE_DL)=    0.0002138363 
ITERATION  31 : L=   43.0233692752 DL=  1.93e-06 (AVERGE_DL)=    0.0001872033 
ITERATION  32 : L=   43.0233707530 DL=  1.48e-06 (AVERGE_DL)=    0.0001639161 
ITERATION  33 : L=   43.0233718873 DL=  1.13e-06 (AVERGE_DL)=    0.0001436147 
ITERATION  34 : L=   43.0233727579 DL=  8.71e-07 (AVERGE_DL)=    0.0001258105 
LOCALIZATION SUM CONVERGED


--------------------------------------------------------------------------------
                    LOCALIZED MOLECULAR ORBITAL COMPOSITIONS
--------------------------------------------------------------------------------

The Mulliken populations for each LMO on each atom are computed
The LMO`s will be ordered according to atom index and type
  (A) Strongly localized MO`s have populations of >=0.950 on one atom
  (B) Two center bond orbitals have populations of >=0.850 on two atoms
  (C) Other MO`s are considered to be `delocalized`

FOUND  -   3 strongly local MO`s
       -   8 two center bond MO`s
       -   0 significantly delocalized MO`s

Rather strongly localized orbitals:
MO   6:   0P  -   1.000477
MO   5:   0P  -   1.000477
MO   4:   0P  -   1.003905
Bond-like localized orbitals:
MO  14:   2O  -   0.574039  and   0P  -   0.419426
MO  13:   2O  -   0.763122  and   0P  -   0.235663
MO  12:   2O  -   0.927676  and   0P  -   0.070494
MO  11:   2O  -   0.762502  and   0P  -   0.236294
MO  10:   1O  -   0.574027  and   0P  -   0.419440
MO   9:   1O  -   0.762675  and   0P  -   0.236123
MO   8:   1O  -   0.762959  and   0P  -   0.235824
MO   7:   1O  -   0.927680  and   0P  -   0.070490
Localized MO's were stored in: /cluster/projects/nn14654k/ylvaos/basis_set_n_funcs/functionals/gga_x_N12/PO2/inp/PO2_gga_x_N12_ccpvtz.loc

-------------------------   --------------------
FINAL SINGLE POINT ENERGY      -489.904535267332
-------------------------   --------------------



           ************************************************************
           *        Program running with 8 parallel MPI-processes     *
           *              working on a common directory               *
           ************************************************************

------------------------------------------------------------------------------
                              ORCA PROPERTY CALCULATIONS
------------------------------------------------------------------------------

GBWName                                 ... /cluster/projects/nn14654k/ylvaos/basis_set_n_funcs/functionals/gga_x_N12/PO2/inp/PO2_gga_x_N12_ccpvtz.gbw
Number of atoms                         ...      3
Number of basis functions               ...    131
Max core memory                         ...   4096 MB

Electric properties:
Dipole moment                           ... YES
Quadrupole moment                       ... YES
Static polarizability (Dipole/Dipole)   ...  NO
Static polarizability (Dipole/Quad.)    ...  NO
Static polarizability (Quad./Quad.)     ...  NO
Static polarizability (Velocity)        ...  NO
Static hyperpolarizability              ...  NO

Atomic electric properties:
Dipole moment                           ...  NO
Quadrupole moment                       ...  NO
Static polarizability                   ...  NO

Choice of electric origin               ... Center of mass
Position of electric origin             ...     0.000000     0.000000     0.008437

General magnetic properties:
Magnetizability                         ...  NO

EPR properties:
g-Tensor (aka g-matrix)                 ...  NO
Zero-Field splitting spin-orbit         ...  NO
Zero-field splitting spin-spin          ...  NO
Hyperfine couplings                     ...  NO (   0 nuclei)
Quadrupole couplings                    ...  NO (   0 nuclei)
Contact density                         ...  NO (   0 nuclei)

NMR properties:
Chemical shifts                         ...  NO (   0 nuclei)
Spin-rotation constants                 ...  NO (   0 nuclei)
Spin-spin couplings                     ...  NO (   0 nuclei,    0 pairs)

Choice of magnetic origin               ... GIAO
Position of magnetic origin             ...     0.000000     0.000000     0.000000

Properties with geometric perturbations:
SCF Hessian                             ...  NO
IR spectrum                             ...  NO
VCD spectrum                            ...  NO
X-ray spectroscopy properties:
SCF XES/XAS/RIXS spectra                ...  NO

SCF SOC stabilization energy            ...  NO
Diagonal Born-Oppenheimer correction    ...  NO

-------------
DIPOLE MOMENT
-------------

Method             : SCF
Type of density    : Electron Density
Multiplicity       :   2
Irrep              :   0
Energy             :  -489.9045352673321645 Eh
Basis              : AO
                                X                 Y                 Z
Electronic contribution:      0.000000000      -0.000000000       0.755098891
Nuclear contribution   :      0.000000000       0.000000000      -0.261362976
                        -----------------------------------------
Total Dipole Moment    :      0.000000000      -0.000000000       0.493735915
                        -----------------------------------------
Magnitude (a.u.)       :      0.493735915
Magnitude (Debye)      :      1.254976960



--------------------
Rotational spectrum 
--------------------
 
Rotational constants in cm-1:             3.442444             0.286393             0.264396 
Rotational constants in MHz :        103201.869580          8585.841533          7926.407020 

Dipole components along the rotational axes: 
x,y,z [a.u.] :    -0.000000     0.493736     0.000000 
x,y,z [Debye]:    -0.000000     1.254977     0.000000 

 

Dipole moment calculation done in   0.0 sec 

-----------------
QUADRUPOLE MOMENT
-----------------

Method             : SCF
Type of density    : Electron Density
Multiplicity       :   2
Irrep              :   0
Energy             :  -489.9045352673321645 Eh
Basis              : AO

                XX              YY              ZZ              XY              XZ              YZ
  NUC        0.000000000   105.106420135     8.604299986     0.000000000     0.000000000     0.000000000
  EL       -15.495057949  -125.989118508   -24.790273172     0.000000000    -0.000000000     0.000000001
  TOT      -15.495057949   -20.882698373   -16.185973186     0.000000000    -0.000000000     0.000000001 (a.u.)
           -20.841382872   -28.087943500   -21.770687495     0.000000000    -0.000000000     0.000000001 (Buckingham)

diagonalized tensor:
           -20.882698373   -16.185973186   -15.495057949 (a.u.)
           -28.087943500   -21.770687495   -20.841382872 (Buckingham)
           -13.563816632     5.387951381     8.175865251 (traceless form in Buckingham)

            -0.000000000    -0.000000000     1.000000000
             1.000000000    -0.000000000     0.000000000
            -0.000000000    -1.000000000    -0.000000000
        
Isotropic quadrupole :   -17.521243169

Quadrupole moment calculation done in   0.0 sec (  0.0 sec for integrals)

Maximum memory used throughout the entire PROP-calculation: 4.0 MB

--------------------------------
SUGGESTED CITATIONS FOR THIS RUN
--------------------------------

Below you find a list of papers that are relevant to this ORCA run
We neither can nor want to force you to cite these papers, but we appreciate if you do
You receive ORCA, which is the product of decades of hard work by many enthusiastic individuals, for free
The only thing we kindly ask in return is that you cite our papers,
We deeply appreciate it, if you show your appreciation for ORCA by not just citing the generic ORCA reference.

Please note that relegating all ORCA citations to the supporting information does *not* help us.
SI sections are not indexed - citations you put there will not count into any citation statistics
But we need these citations in order to attract the funding resources that allow us to do what we are doing

Therefore, if you are a happy ORCA user, please consider citing a few of the papers listed below in the main body of your paper

In addition to the list printed below, the program has created the file /cluster/projects/nn14654k/ylvaos/basis_set_n_funcs/functionals/gga_x_N12/PO2/inp/PO2_gga_x_N12_ccpvtz.bibtex that contains the list in bibtex format
You can import this file easily into all common literature databanks and citation aid programs

It goes without saying that in many instances, there are alternative algorithms to achieve similar
results as the ones you have gotten from ORCA. It is, of course, also the case that in some instances
ORCA just re-implements algorithms worked out by others. We are fully aware of that and we are also
fully appreciative of our colleagues work. Hence this citation list should not be read as indicating
that the listed papers, which are focused on our own work, are the only ones worth citing. It simply
meant to make it easier for users to cite ORCA specific papers. It is not a substitute for doing your
own literature research and citing the relevant literature in a scientifically appropriate manner.

List of essential papers. We consider these as the minimum necessary citations

  1. Neese, F.
     Software update: the ORCA program system, version 6.0
     WIRES Comput. Molec. Sci. 2025 15(1), e70019
     doi.org/10.1002/wcms.70019

List of papers to cite with high priority. The work reported in these papers was absolutely
necessary for this run to complete.
Our perspective: the developers of density functionals and basis sets usually get cited in chemistry papers
Good! But without the algorithms to do something with them, the functionals or basis sets would not do anything.
Hence, in our opinion, the algorithm design and method developments papers are equally worthy of getting cited

  1. Lehtola, S.; Steigemann, C.; Oliveira, M.; Marques, M.
     Recent developments in Libxc - A comprehensive library of functionals for density functional theory
     Software X 2018 7 , 
     doi.org/10.1016/j.softx.2017.11.002
  2. Neese, F.
     The SHARK Integral Generation and Digestion System
     J. Comp. Chem. 2022 44(3), 381
     doi.org/10.1002/jcc.26942

List of suggested additional citations. These are papers that are important in the 'surrounding' of 
of this run, or papers that preceded the highly important papers. If you like your results we are grateful for a citation.

  1. Neese, F.
     The ORCA program system
     WIRES Comput. Molec. Sci. 2012 2(1), 73-78
     doi.org/10.1002/wcms.81
  2. Neese, F.
     Software update: the ORCA program system, version 4.0
     WIRES Comput. Molec. Sci. 2018 8(1), 1-6
     doi.org/10.1002/wcms.1327
  3. Neese, F.; Wennmohs, F.; Becker, U.; Riplinger, C.
     The ORCA quantum chemistry program package
     J. Chem. Phys. 2020 152(22), 224108
     doi.org/10.1063/5.0004608
  4. Neese, F.
     Software update: The ORCA program system—Version 5.0
     WIRES Comput. Molec. Sci. 2022 12(1), e1606
     doi.org/10.1002/wcms.1606

List of optional additional citations

  1. Neese, F.
     Approximate second-order SCF convergence for spin unrestricted wavefunctions
     Chem. Phys. Lett. 2000 325(1-3), 93-98
     doi.org/10.1016/s0009-2614(00)00662-x

Timings for individual modules:

Sum of individual times          ...        4.613 sec (=   0.077 min)
Startup calculation              ...        0.825 sec (=   0.014 min)  17.9 %
SCF iterations                   ...        3.273 sec (=   0.055 min)  70.9 %
Property integrals               ...        0.271 sec (=   0.005 min)   5.9 %
Property calculations            ...        0.235 sec (=   0.004 min)   5.1 %
Orbital localization             ...        0.009 sec (=   0.000 min)   0.2 %
                             ****ORCA TERMINATED NORMALLY****
TOTAL RUN TIME: 0 days 0 hours 0 minutes 5 seconds 486 msec
