
                                 *****************
                                 * O   R   C   A *
                                 *****************

                                            #,                                       
                                            ###                                      
                                            ####                                     
                                            #####                                    
                                            ######                                   
                                           ########,                                 
                                     ,,################,,,,,                         
                               ,,#################################,,                 
                          ,,##########################################,,             
                       ,#########################################, ''#####,          
                    ,#############################################,,   '####,        
                  ,##################################################,,,,####,       
                ,###########''''           ''''###############################       
              ,#####''   ,,,,##########,,,,          '''####'''          '####       
            ,##' ,,,,###########################,,,                        '##       
           ' ,,###''''                  '''############,,,                           
         ,,##''                                '''############,,,,        ,,,,,,###''
      ,#''                                            '''#######################'''  
     '                                                          ''''####''''         
             ,#######,   #######,   ,#######,      ##                                
            ,#'     '#,  ##    ##  ,#'     '#,    #''#        ,####,    ,#,          
            ##       ##  ##   ,#'  ##            #'  '#       #'       ,# #          
            ##       ##  #######   ##           ,######,      #####,      #          
            '#,     ,#'  ##    ##  '#,     ,#' ,#      #,     #,   #      #          
             '#######'   ##     ##  '#######'  #'      '#     '####' #    #          



                #########################################################
                #                        -***-                          #
                #          Department of theory and spectroscopy        #
                #                                                       #
                #                      Frank Neese                      #
                #                                                       #
                #     Directorship, Architecture, Infrastructure        #
                #                    SHARK, DRIVERS                     #
                #        Core code/Algorithms in most modules           #
                #                                                       #
                #        Max Planck Institute fuer Kohlenforschung      #
                #                Kaiser Wilhelm Platz 1                 #
                #                 D-45470 Muelheim/Ruhr                 #
                #                      Germany                          #
                #                                                       #
                #                  All rights reserved                  #
                #                        -***-                          #
                #########################################################


                         Program Version 6.1.1  -  RELEASE   -
                                (GIT: $487d211c$)
                          ($2025-11-21 10:33:24 +0100$)


 With contributions from (in alphabetic order):
[Max-Planck-Institut fuer Kohlenforschung]                               
  Daniel Aravena         : Magnetic Suceptibility                        
  Michael Atanasov       : Ab Initio Ligand Field Theory (pilot matlab implementation)
  Alexander A. Auer      : GIAO ZORA, VPT2 properties, NMR spectrum      
  Ute Becker             : All parallelization in ORCA, NUMFREQ, NUMCALC 
  Giovanni Bistoni       : ED, misc. LED, open-shell LED, HFLD           
  Dmytro Bykov           : pre 5.0 version of the SCF Hessian            
  Marcos Casanova-Páez   : Triplet and SCS-CIS(D). UHF-(DLPNO)-IP/EA/STEOM-CCSD. UHF-CVS-IP/STEOM-CCSD   
  Vijay G. Chilkuri      : MRCI spin determinant printing, contributions to CSF-ICE 
  Pauline Colinet        : FMM embedding                                 
  Dipayan Datta          : RHF DLPNO-CCSD density                        
  Achintya Kumar Dutta   : EOM-CC, STEOM-CC                              
  Nicolas Foglia         : Exact transition moments, OPA infrastructure, MCD improvements    
  Dmitry Ganyushin       : Spin-Orbit,Spin-Spin,Magnetic field MRCI      
  Miquel Garcia-Rates    : C-PCM and meta-GGA Hessian, CCSD/C-PCM, Gaussian charge scheme 
  Tiago L. C. Gouveia    : GS-ROHF, GS-ROCIS                             
  Yang Guo               : DLPNO-NEVPT2, F12-NEVPT2, CIM, IAO-localization        
  Andreas Hansen         : Spin unrestricted coupled pair/coupled cluster methods 
  Ingolf Harden          : AUTO-CI MPn and infrastructure                
  Benjamin Helmich-Paris : MC-RPA, TRAH-(SCF,CASSCF), AVAS, COSX integrals, SCF dyn. polar., MC-PDFT, srDFT 
  Lee Huntington         : MR-EOM, pCC                                   
  Robert Izsak           : Overlap fitted RIJCOSX, COSX-SCS-MP3, EOM     
  Riya Kayal             : Wick's Theorem for AUTO-CI, AUTO-CI UHF-CCSDT 
  Emily Kempfer          : AUTO-CI RHF CISDT and CCSDT, approximate NEVPT4
  Christian Kollmar      : KDIIS, OOCD, Brueckner-CCSD(T), CCSD density, CASPT2, CASPT2-K, improved NEVPT2 
  Axel Koslowski         : Symmetry handling                             
  Simone Kossmann        : meta-GGA functionals, TD-DFT gradient, OOMP2, (MP2 Hessian; deprecated post 5.0) 
  Lucas Lang             : DCDCAS, Hyperfine gauge corrections, ICE-SOC+SSC
  Marvin Lechner         : AUTO-CI (C++ implementation), FIC-MRCC        
  Spencer Leger          : CASSCF response                               
  Dagmar Lenk            : GEPOL surface, SMD, ORCA-2-JSON               
  Dimitrios Liakos       : Extrapolation schemes; Compound Job, Property file
  Dimitrios Manganas     : Further ROCIS development; embedding schemes. LFT, Crystal Embedding 
  Dimitrios Pantazis     : SARC Basis sets                               
  Anastasios Papadopoulos: AUTO-CI, single reference methods and gradients 
  Taras Petrenko         : pre 6.0 DFT Hessian and TD-DFT gradient,  ECA, NRVS 
  Petra Pikulova         : Analytic Raman intensities                    
  Peter Pinski           : DLPNO-MP2, DLPNO-MP2 Gradient                 
  Shashank Vittal Rao    : ES-AILFT, MagRelax                            
  Christoph Reimann      : Effective Core Potentials                     
  Marius Retegan         : Local ZFS, SOC                                
  Christoph Riplinger    : Optimizer, TS searches, QM/MM, DLPNO-CCSD(T), (RO)-DLPNO pert. Triples 
  Michael Roemelt        : Original ROCIS implementation, recursive CI coupling coefficients
  Masaaki Saitow         : Open-shell DLPNO-CCSD energy and density      
  Barbara Sandhoefer     : DKH picture change effects                    
  Yorick L. A. Schmerwitz: GMF and freeze-and-release deltaSCF, NEB S-IDPP initial path                    
  Kantharuban Sivalingam : CASSCF convergence/infrastructure, NEVPT2, NEVPT3, NEVPT4(SD), FIC-MRCI and CEPA variants
  Bernardo de Souza      : ESD, SOC TD-DFT                               
  Georgi L. Stoychev     : AutoAux, RI-MP2 NMR, DLPNO-MP2 response, X2C  
  Van Anh Tran           : RI-MP2 g-tensors                              
  Willem Van den Heuvel  : Paramagnetic NMR                              
  Zikuan Wang            : NOTCH, Electric field optimization            
  Frank Wennmohs         : Technical directorship and infrastructure     
  Hang Xu                : AUTO-CI-Response properties                   
                                                                         
[FACCTs GmbH]                                                            
  Markus Bursch, Nicolas Foglia, Miquel Garcia-Rates, Ingolf Harden, Hagen Neugebauer, Anastasios Papadopoulos, 
  Christoph Riplinger, Bernardo de Souza, Georgi L. Stoychev                                                    
                                                                 
  APM, various basis sets, CI-OPT, improved COSX, DLPNO-Multilevel,           
  DOCKER, DRACO, updates on ESD, Fragmentator, GOAT, IRC, LR-CPCM, L-BFGS, MBIS, meta-GGA TD-DFT gradient, ML-optimized integration grids, 
  MM, NACMEs, nearIR, NEB, NEB-TS, NL-DFT gradient (VV10), 2- and 3-layer-ONIOM, interface openCOSMO-RS, QMMM,   
  Crystal-QMMM, RESP, rigid body optimization, SF, symmetry and pop. for TD-DFT, various functionals, SOLVATOR                                   
                                                                         
[Other institutions]                                                     
  V. Asgeirsson          : NEB                                           
  Christoph Bannwarth    : sTDA-DFT, sTD-DFT, PBEh-3c, B97-3c, D3        
  Giovanni Bistoni       : ETS/NOCV, ADLD/ADEX, COVALED                  
  Martin Brehm           : Molecular dynamics                            
  Ronald Cardenas        : ETS/NOCV                                      
  Martina Colucci        : COVALED                                       
  Sebastian Ehlert       : rSCAN, r2SCAN, r2SCAN-3c, D4, dhf basis sets  
  Marvin Friede          : D4 for Fr, Ra, Ac-Lr                          
  Lars Goerigk           : TD-DFT with DH, B97 family of functionals     
  Stefan Grimme          : VdW corrections, initial TS optimization, DFT functionals, gCP, sTDA/sTD-DF 
  Waldemar Hujo          : DFT-NL                                        
  H. Jonsson             : NEB                                           
  Holger Kruse           : gCP                                           
  Marcel Mueller         : wB97X-3c, vDZP basis set                      
  Hagen Neugebauer       : wr2SCAN, Native XTB                           
  Gianluca Regni         : ADLD/ADEX                                     
  Tobias Risthaus        : pre 6.0 range-separated hybrid DFT and stability analysis
  Lukas Wittmann         : regularized MP2, r2SCAN double-hybrids, wr2SCAN        
                                                                         
We gratefully acknowledge several colleagues who have allowed us to      
interface, adapt or use parts of their codes:                            
  Ed Valeev, F. Pavosevic, A. Kumar             : LibInt (2-el integral package), F12 methods 
  Garnet Chan, S. Sharma, J. Yang, R. Olivares  : DMRG                   
  Ulf Ekstrom                                   : XCFun DFT Library      
  Mihaly Kallay                                 : mrcc  (arbitrary order and MRCC methods)
  Frank Weinhold                                : gennbo (NPA and NBO analysis)           
  Simon Mueller                                 : openCOSMO-RS                            
  Christopher J. Cramer and Donald G. Truhlar   : smd solvation model                     
  S Lehtola, MJT Oliveira, MAL Marques          : LibXC Library                           
  Liviu Ungur et al                             : ANISO software                          


 Your calculation uses the libint2 library for the computation of 2-el integrals
 For citations please refer to: http://libint.valeyev.net

 Your ORCA version has been built with support for libXC version: 7.0.0
 For citations please refer to: https://libxc.gitlab.io

 This ORCA versions uses:
   CBLAS   interface :  Fast vector & matrix operations
   LAPACKE interface :  Fast linear algebra routines
   SCALAPACK package :  Parallel linear algebra routines
   Shared memory     :  Shared parallel matrices
   BLAS/LAPACK       :  OpenBLAS 0.3.29  USE64BITINT DYNAMIC_ARCH NO_AFFINITY Cooperlake SINGLE_THREADED
        Core in use  :  Cooperlake
   Copyright (c) 2011-2014, The OpenBLAS Project


  ***********************************
  * Starting time: Wed May 20 12:39:04 2026
  * Host name:     c1-3
  * Process ID:    1581048
  * Working dir.:  /cluster/projects/nn14654k/ylvaos/basis_set_n_funcs/functionals/gga_x_N12/PO2/out
  ***********************************

Using LibXC functional ID  82 : Minnesota N12 exchange functional
[ 1]  R. Peverati and D. G. Truhlar.,  J. Chem. Theory Comput. 8, 2310 (2012)
Using LibXC functional ID  82 : Minnesota N12 exchange functional
[ 1]  R. Peverati and D. G. Truhlar.,  J. Chem. Theory Comput. 8, 2310 (2012)
Your calculation utilizes LibXC
by S. Lehtola, C. Steigemann, M. J. T. Oliveira & M. A. L. Marques
Please cite in your paper:
Lehtola, S.; Steigemann, C.; Oliveira, M.J.T.; Marques, M. A. L. Software X, 7, (2018), 1.
   

================================================================================

----- Orbital basis set information -----
Your calculation utilizes the basis: def2-TZVP
   F. Weigend and R. Ahlrichs, Phys. Chem. Chem. Phys. 7, 3297 (2005).

================================================================================
                                        WARNINGS
                       Please study these warnings very carefully!
================================================================================


WARNING: your system is open-shell and RHF/RKS was chosen
  ===> : WILL SWITCH to UHF/UKS


================================================================================
                                       INPUT FILE
================================================================================
NAME = /cluster/projects/nn14654k/ylvaos/basis_set_n_funcs/functionals/gga_x_N12/PO2/inp/PO2_gga_x_N12_def2tzvp.inp
|  1> ! dft def2-TZVP TightSCF
|  2> %pal nprocs 8 end
|  3> 
|  4> %loc
|  5>   LocMet NewBoys
|  6>   Occ true
|  7> end
|  8> 
|  9> %method
| 10>   exchange gga_x_N12
| 11>   correlation None
| 12> end
| 13> 
| 14> %elprop
| 15>   Dipole true
| 16>   Quadrupole true
| 17> end
| 18> 
| 19> * xyz 0 2
| 20> P    0.000000000000   0.000000000000   0.287900000000
| 21> O    0.000000000000   1.356300000000  -0.269900000000
| 22> O    0.000000000000  -1.356300000000  -0.269900000000
| 23> *
| 24> 
| 25> 
| 26>                          ****END OF INPUT****
================================================================================

                       ****************************
                       * Single Point Calculation *
                       ****************************

---------------------------------
CARTESIAN COORDINATES (ANGSTROEM)
---------------------------------
  P      0.000000    0.000000    0.287900
  O      0.000000    1.356300   -0.269900
  O      0.000000   -1.356300   -0.269900

----------------------------
CARTESIAN COORDINATES (A.U.)
----------------------------
  NO LB      ZA    FRAG     MASS         X           Y           Z
   0 P    15.0000    0    30.974    0.000000    0.000000    0.544052
   1 O     8.0000    0    15.999    0.000000    2.563036   -0.510037
   2 O     8.0000    0    15.999    0.000000   -2.563036   -0.510037

--------------------------------
INTERNAL COORDINATES (ANGSTROEM)
--------------------------------
 P      0   0   0     0.000000000000     0.00000000     0.00000000
 O      1   0   0     1.466523279733     0.00000000     0.00000000
 O      1   2   0     1.466523279733   135.28860674     0.00000000

---------------------------
INTERNAL COORDINATES (A.U.)
---------------------------
 P      0   0   0     0.000000000000     0.00000000     0.00000000
 O      1   0   0     2.771327367716     0.00000000     0.00000000
 O      1   2   0     2.771327367716   135.28860674     0.00000000

---------------------
BASIS SET INFORMATION
---------------------
There are 2 groups of distinct atoms

 Group   1 Type P   : 14s9p3d1f contracted to 5s5p2d1f pattern {73211/51111/21/1}
 Group   2 Type O   : 11s6p2d1f contracted to 5s3p2d1f pattern {62111/411/11/1}

Atom   0P    basis set group =>   1
Atom   1O    basis set group =>   2
Atom   2O    basis set group =>   2


           ************************************************************
           *        Program running with 8 parallel MPI-processes     *
           *              working on a common directory               *
           ************************************************************
------------------------------------------------------------------------------
                             ORCA STARTUP CALCULATIONS
------------------------------------------------------------------------------
------------------------------------------------------------------------------
                   ___                                                        
                  /   \      - P O W E R E D   B Y -                         
                 /     \                                                     
                 |  |  |   _    _      __       _____    __    __             
                 |  |  |  | |  | |    /  \     |  _  \  |  |  /  |          
                  \  \/   | |  | |   /    \    | | | |  |  | /  /          
                 / \  \   | |__| |  /  /\  \   | |_| |  |  |/  /          
                |  |  |   |  __  | /  /__\  \  |    /   |      \           
                |  |  |   | |  | | |   __   |  |    \   |  |\   \          
                \     /   | |  | | |  |  |  |  | |\  \  |  | \   \       
                 \___/    |_|  |_| |__|  |__|  |_| \__\ |__|  \__/        
                                                                              
                      - O R C A' S   B I G   F R I E N D -                    
                                      &                                       
                       - I N T E G R A L  F E E D E R -                       
                                                                              
 v1 FN, 2020, v2 2021, v3 2022-2024                                           
------------------------------------------------------------------------------


----------------------
SHARK INTEGRAL PACKAGE
----------------------

Number of atoms                             ...      3
Number of basis functions                   ...     99
Number of shells                            ...     35
Maximum angular momentum                    ...      3
Integral batch strategy                     ... SHARK/LIBINT Hybrid
RI-J (if used) integral strategy            ... SPLIT-RIJ (Revised 2003 algorithm where possible)
Printlevel                                  ...      1
Contraction scheme used                     ... SEGMENTED contraction
Prescreening option                         ... SCHWARTZ
   Thresh                                   ... 2.500e-11
   Tcut                                     ... 2.500e-12
   Tpresel                                  ... 2.500e-12 
Coulomb Range Separation                    ... NOT USED
Exchange Range Separation                   ... NOT USED
Multipole approximations                    ... NOT USED
Finite Nucleus Model                        ... NOT USED
CABS basis                                  ... NOT available
Auxiliary Coulomb fitting basis             ... NOT available
Auxiliary J/K fitting basis                 ... NOT available
Auxiliary Correlation fitting basis         ... NOT available
Auxiliary 'external' fitting basis          ... NOT available

Checking pre-screening integrals            ... done (  0.0 sec) Dimension = 35
   => SHARK Basis and OBASIS are compatible. Storing Pre-screening
Shell pair information
Shell pair cut-off parameter TPreSel        ...   2.5e-12
Total number of shell pairs                 ...       630
Shell pairs after pre-screening             ...       606
Total number of primitive shell pairs       ...      2358
Primitive shell pairs kept                  ...      1863
          la=0 lb=0:    108 shell pairs
          la=1 lb=0:    159 shell pairs
          la=1 lb=1:     66 shell pairs
          la=2 lb=0:     86 shell pairs
          la=2 lb=1:     66 shell pairs
          la=2 lb=2:     21 shell pairs
          la=3 lb=0:     43 shell pairs
          la=3 lb=1:     33 shell pairs
          la=3 lb=2:     18 shell pairs
          la=3 lb=3:      6 shell pairs

Checking whether 4 symmetric matrices of dimension 99 fit in memory
:Max Core in MB      =   4096.00
 MB in use           =      2.72
 MB left             =   4093.28
 MB needed           =      0.15
 Data fit in memory  = YES
Calculating Nuclear repulsion               ... done (  0.0 sec) ENN=     99.086296046297 Eh

Diagonalization of the overlap matrix:
Smallest eigenvalue                        ... 3.081e-03
Time for diagonalization                   ...    0.001 sec
Threshold for overlap eigenvalues          ... 1.000e-07
Number of eigenvalues below threshold      ... 0
Time for construction of square roots      ...    0.001 sec
Total time needed                          ...    0.005 sec

-------------------
DFT GRID GENERATION
-------------------

General Integration Accuracy     IntAcc      ... 4.388
Radial Grid Type                 RadialGrid  ... OptM3 with GC (2021)
Angular Grid (max. ang.)         AngularGrid ... 4 (Lebedev-302)
Angular grid pruning method      GridPruning ... 4 (adaptive)
Weight generation scheme         WeightScheme... mBecke (2022)
Basis function cutoff            BFCut       ... 1.0000e-11
Integration weight cutoff        WCut        ... 1.0000e-14
Partially contracted basis set               ... off
Rotationally invariant grid construction     ... off
Angular grids for H and He will be reduced by one unit

Total number of grid points                  ...    19622
Total number of batches                      ...      309
Average number of points per batch           ...       63
Average number of grid points per atom       ...     6541
Grids setup in   0.1 sec
Initializing property integral containers    ... done (  0.0 sec)

SHARK setup successfully completed in   0.1 seconds

Maximum memory used throughout the entire STARTUP-calculation: 13.9 MB


           ************************************************************
           *        Program running with 8 parallel MPI-processes     *
           *              working on a common directory               *
           ************************************************************
-------------------------------------------------------------------------------
                                 ORCA GUESS
                   Start orbitals & Density for SCF / CASSCF
-------------------------------------------------------------------------------

------------
SCF SETTINGS
------------
Hamiltonian:
 Density Functional     Method          .... DFT(GTOs)
  Functional kind                       .... Exchange
  Functional name                       .... Minnesota N12 exchange functional
  Functional family                     .... GGA
  Functional refs                              
    [ 0] R. Peverati and D. G. Truhlar.,  J. Chem. Theory Comput. 8, 2310 (2012), doi: 10.1021/ct3002656
  Functional external parameters        .... 16
    Parameter  0 _CC00      =  1.000000e+00 : _CC00               
    Parameter  1 _CC01      =  5.078800e-01 : _CC01               
    Parameter  2 _CC02      =  1.682330e-01 : _CC02               
    Parameter  3 _CC03      =  1.288870e-01 : _CC03               
    Parameter  4 _CC10      =  8.602110e-02 : _CC10               
    Parameter  5 _CC11      = -1.710080e+01 : _CC11               
    Parameter  6 _CC12      =  6.508140e+01 : _CC12               
    Parameter  7 _CC13      = -7.017260e+01 : _CC13               
    Parameter  8 _CC20      = -3.907550e-01 : _CC20               
    Parameter  9 _CC21      =  5.133920e+01 : _CC21               
    Parameter 10 _CC22      = -1.662200e+02 : _CC22               
    Parameter 11 _CC23      =  1.427380e+02 : _CC23               
    Parameter 12 _CC30      =  4.036110e-01 : _CC30               
    Parameter 13 _CC31      = -3.446310e+01 : _CC31               
    Parameter 14 _CC32      =  7.616610e+01 : _CC32               
    Parameter 15 _CC33      = -2.418340e+00 : _CC33               
 Correlation Functional Correlation     .... No Correlation
 Gradients option       PostSCFGGA      .... off


General Settings:
 Integral files         IntName         .... /cluster/projects/nn14654k/ylvaos/basis_set_n_funcs/functionals/gga_x_N12/PO2/inp/PO2_gga_x_N12_def2tzvp
 Hartree-Fock type      HFTyp           .... UHF
 Total Charge           Charge          ....    0
 Multiplicity           Mult            ....    2
 Number of Electrons    NEL             ....   31
 Basis Dimension        Dim             ....   99
 Nuclear Repulsion      ENuc            ....     99.0862960463 Eh

Convergence Acceleration:
 AO-DIIS                CNVDIIS         .... on
   Start iteration      DIISMaxIt       ....    12
   Startup error        DIISStart       ....  0.200000
   # of expansion vecs  DIISMaxEq       ....     5
   Bias factor          DIISBfac        ....   1.050
   Max. coefficient     DIISMaxC        ....  10.000
 MO-DIIS                CNVKDIIS        .... off
 Trust-Rad. Augm. Hess. CNVTRAH         .... auto
   Auto Start mean grad. ratio tolernc. ....  1.125000
   Auto Start start iteration           ....    50
   Auto Start num. interpolation iter.  ....    10
   Max. Number of Micro iterations      ....    24
   Max. Number of Macro iterations      .... Maxiter - #DIIS iter
   Number of Davidson start vectors     ....     2
   Converg. threshold    (grad. norm)   ....   1.000e-05
   Grad. Scal. Fac. for Micro threshold ....   0.100
   Minimum threshold for Micro iter.    ....   1.000e-02
   NR start threshold (gradient norm)   ....   1.000e-04
   Initial trust radius                 ....   0.400
   Minimum AH scaling param. (alpha)    ....   1.000
   Maximum AH scaling param. (alpha)    .... 1000.000
   Quad. conv. algorithm                .... NR
   White noise on init. David. guess    .... on
   Maximum white noise                  ....   0.010
   Pseudo random numbers                .... off
   Inactive MOs                         .... canonical
   Orbital update algorithm             .... Taylor
   Preconditioner                       .... Diag
   Full preconditioner red. dimension   ....   250
 SOSCF                 CNVSOSCF           .... on
   Start iteration     SOSCFMaxIt         ....   150
   Startup grad/error  SOSCFStart         ....  0.003300
   Hessian update      SOSCFHessUp        .... L-BFGS
   Autom. constraints  SOSCFAutoConstrain .... off
 Level Shifting         CNVShift        .... on
   Level shift para.    LevelShift      ....    0.2500
   Turn off err/grad.   ShiftErr        ....    0.0010
 Zerner damping         CNVZerner       .... off
 Static damping         CNVDamp         .... on
   Fraction old density DampFac         ....    0.7000
   Max. Damping (<1)    DampMax         ....    0.9800
   Min. Damping (>=0)   DampMin         ....    0.0000
   Turn off err/grad.   DampErr         ....    0.1000

SCF Procedure:
 Maximum # iterations   MaxIter         ....   125
 SCF integral mode      SCFMode         .... Direct
   Integral package                     .... SHARK and LIBINT hybrid scheme
 Reset frequency        DirectResetFreq ....    20
 Integral Threshold     Thresh          ....  2.500e-11 Eh
 Primitive CutOff       TCut            ....  2.500e-12 Eh

Convergence Tolerance:
 Convergence Check Mode ConvCheckMode   .... Total+1el-Energy
 Convergence forced     ConvForced      .... 0
 Energy Change          TolE            ....  1.000e-08 Eh
 1-El. energy change                    ....  1.000e-05 Eh
 Orbital Gradient       TolG            ....  1.000e-05
 Orbital Rotation angle TolX            ....  1.000e-05
 DIIS Error             TolErr          ....  5.000e-07

------------------------------
INITIAL GUESS: MODEL POTENTIAL
------------------------------
Loading Hartree-Fock densities                     ... done
Calculating cut-offs                               ... done
Initializing the effective Hamiltonian             ... done
Setting up the integral package (SHARK)            ... done
Starting the Coulomb interaction                   ... done (   0.0 sec)
Making the grid                                    ... done (   0.0 sec)
Mapping shells                                     ... done
Starting the XC term evaluation                    ... done (   0.0 sec)
  promolecular density results
     # of electrons  =     31.000340810
     EX              =    -38.233372540
     EC              =      0.000000000
     EX+EC           =    -38.233372540
Transforming the Hamiltonian                       ... done (   0.0 sec)
Diagonalizing the Hamiltonian                      ... done (   0.0 sec)
Back transforming the eigenvectors                 ... done (   0.0 sec)
Now organizing SCF variables                       ... done
                      ------------------
                      INITIAL GUESS DONE (   0.1 sec)
                      ------------------
             **** ENERGY FILE WAS UPDATED (/cluster/projects/nn14654k/ylvaos/basis_set_n_funcs/functionals/gga_x_N12/PO2/inp/PO2_gga_x_N12_def2tzvp.en.tmp) ****
Finished Guess after   0.1 sec
Maximum memory used throughout the entire GUESS-calculation: 6.5 MB


           ************************************************************
           *        Program running with 8 parallel MPI-processes     *
           *              working on a common directory               *
           ************************************************************

-------------------------------------------------------------------------------------------
                                      ORCA LEAN-SCF
                              memory conserving SCF solver
-------------------------------------------------------------------------------------------

----------------------------------------D-I-I-S--------------------------------------------
Iteration    Energy (Eh)           Delta-E    RMSDP     MaxDP     DIISErr   Damp  Time(sec)
-------------------------------------------------------------------------------------------
               ***  Starting incremental Fock matrix formation  ***
    1    -489.6018910359898086     0.00e+00  8.91e-03  9.42e-02  1.93e-01  0.700   0.2
Warning: op=1 Small HOMO/LUMO gap (   0.062) - skipping pre-diagonalization
         Will do a full diagonalization
    2    -489.7825796303887387    -1.81e-01  3.59e-03  2.66e-02  4.56e-02  0.700   0.2
                               ***Turning on AO-DIIS***
    3    -489.8185086933052048    -3.59e-02  1.55e-03  2.56e-02  1.79e-02  0.700   0.2
    4    -489.8457467426360950    -2.72e-02  3.76e-03  9.11e-02  2.37e-02  0.000   0.1
    5    -489.9218305800115445    -7.61e-02  1.27e-03  2.35e-02  1.57e-02  0.000   0.2
    6    -489.9240497707128839    -2.22e-03  4.92e-04  8.36e-03  6.01e-03  0.000   0.4
                              *** Initializing SOSCF ***
---------------------------------------S-O-S-C-F--------------------------------------
Iteration    Energy (Eh)           Delta-E    RMSDP     MaxDP     MaxGrad    Time(sec)
--------------------------------------------------------------------------------------
    7    -489.9243630954819650    -3.13e-04  2.75e-04  6.12e-03  2.40e-03     0.2
               *** Restarting incremental Fock matrix formation ***
    8    -489.9244121967729484    -4.91e-05  2.89e-04  4.05e-03  1.62e-03     0.1
    9    -489.9243842664783983     2.79e-05  1.39e-04  1.66e-03  2.60e-03     0.1
   10    -489.9244254556537612    -4.12e-05  4.60e-05  4.83e-04  1.92e-04     0.1
   11    -489.9244260464177501    -5.91e-07  2.79e-05  6.74e-04  9.83e-05     0.1
   12    -489.9244262051224155    -1.59e-07  1.56e-05  3.51e-04  3.14e-05     0.1
   13    -489.9244262243568642    -1.92e-08  3.39e-06  7.14e-05  1.34e-05     0.1
   14    -489.9244262276492350    -3.29e-09  1.86e-06  4.80e-05  2.59e-06     0.2
                 **** Energy Check signals convergence ****

               *****************************************************
               *                     SUCCESS                       *
               *           SCF CONVERGED AFTER  14 CYCLES          *
               *****************************************************

             **** ENERGY FILE WAS UPDATED (/cluster/projects/nn14654k/ylvaos/basis_set_n_funcs/functionals/gga_x_N12/PO2/inp/PO2_gga_x_N12_def2tzvp.en.tmp) ****

----------------
TOTAL SCF ENERGY
----------------

Total Energy       :       -489.92442622766424 Eh          -13331.52140 eV

Components:
Nuclear Repulsion  :         99.08629604629714 Eh            2696.27519 eV
Electronic Energy  :       -589.01072227396139 Eh          -16027.79659 eV
One Electron Energy:       -876.08321016415744 Eh          -23839.43612 eV
Two Electron Energy:        287.07248789019604 Eh            7811.63953 eV

Virial components:
Potential Energy   :       -980.97821217387082 Eh          -26693.77424 eV
Kinetic Energy     :        491.05378594620652 Eh           13362.25284 eV
Virial Ratio       :          1.99770013030983

DFT components:
N(Alpha)           :       16.000008388337 electrons
N(Beta)            :       15.000007128464 electrons
N(Total)           :       31.000015516801 electrons
E(X)               :      -38.564182352568 Eh       
E(C)               :        0.000000000000 Eh       
E(XC)              :      -38.564182352568 Eh       

---------------
SCF CONVERGENCE
---------------

  Last Energy change         ...    3.2924e-09  Tolerance :   1.0000e-08
  Last MAX-Density change    ...    4.8021e-05  Tolerance :   1.0000e-07
  Last RMS-Density change    ...    1.8579e-06  Tolerance :   5.0000e-09
  Last DIIS Error            ...    2.4042e-03  Tolerance :   5.0000e-07
  Last Orbital Gradient      ...    2.5871e-06  Tolerance :   1.0000e-05
  Last Orbital Rotation      ...    2.0154e-05  Tolerance :   1.0000e-05


----------------------
UHF SPIN CONTAMINATION
----------------------

Warning: in a DFT calculation there is little theoretical justification to 
         calculate <S**2> as in Hartree-Fock theory. We will do it anyways
         but you should keep in mind that the values have only limited relevance

Expectation value of <S**2>     :     0.755943
Ideal value S*(S+1) for S=0.5   :     0.750000
Deviation                       :     0.005943

----------------
ORBITAL ENERGIES
----------------
                 SPIN UP ORBITALS
  NO   OCC          E(Eh)            E(eV) 
   0   1.0000     -76.188454     -2073.1932 
   1   1.0000     -18.759038      -510.4594 
   2   1.0000     -18.759027      -510.4591 
   3   1.0000      -6.359292      -173.0451 
   4   1.0000      -4.679931      -127.3474 
   5   1.0000      -4.677352      -127.2772 
   6   1.0000      -4.673497      -127.1723 
   7   1.0000      -0.935567       -25.4581 
   8   1.0000      -0.891526       -24.2597 
   9   1.0000      -0.464299       -12.6342 
  10   1.0000      -0.374225       -10.1832 
  11   1.0000      -0.359573        -9.7845 
  12   1.0000      -0.358625        -9.7587 
  13   1.0000      -0.290936        -7.9168 
  14   1.0000      -0.285006        -7.7554 
  15   1.0000      -0.235249        -6.4015 
  16   0.0000      -0.085548        -2.3279 
  17   0.0000       0.014115         0.3841 
  18   0.0000       0.074797         2.0353 
  19   0.0000       0.174848         4.7579 
  20   0.0000       0.177566         4.8318 
  21   0.0000       0.203575         5.5396 
  22   0.0000       0.259667         7.0659 
  23   0.0000       0.261305         7.1105 
  24   0.0000       0.278130         7.5683 
  25   0.0000       0.391778        10.6608 
  26   0.0000       0.392418        10.6782 

                 SPIN DOWN ORBITALS
  NO   OCC          E(Eh)            E(eV) 
   0   1.0000     -76.185347     -2073.1087 
   1   1.0000     -18.748321      -510.1678 
   2   1.0000     -18.748313      -510.1675 
   3   1.0000      -6.356298      -172.9637 
   4   1.0000      -4.676945      -127.2661 
   5   1.0000      -4.671541      -127.1191 
   6   1.0000      -4.671486      -127.1176 
   7   1.0000      -0.917471       -24.9656 
   8   1.0000      -0.872791       -23.7498 
   9   1.0000      -0.432663       -11.7734 
  10   1.0000      -0.346713        -9.4345 
  11   1.0000      -0.346406        -9.4262 
  12   1.0000      -0.337304        -9.1785 
  13   1.0000      -0.283430        -7.7125 
  14   1.0000      -0.269688        -7.3386 
  15   0.0000      -0.168362        -4.5814 
  16   0.0000      -0.054684        -1.4880 
  17   0.0000       0.031813         0.8657 
  18   0.0000       0.088051         2.3960 
  19   0.0000       0.182679         4.9709 
  20   0.0000       0.198087         5.3902 
  21   0.0000       0.214254         5.8301 
  22   0.0000       0.292951         7.9716 
  23   0.0000       0.293364         7.9829 
  24   0.0000       0.305478         8.3125 
  25   0.0000       0.395278        10.7561 
*Only the first 10 virtual orbitals were printed.

                    ********************************
                    * MULLIKEN POPULATION ANALYSIS *
                    ********************************

--------------------------------------------
MULLIKEN ATOMIC CHARGES AND SPIN POPULATIONS
--------------------------------------------
   0 P :    0.539237    0.625496
   1 O :   -0.269619    0.187252
   2 O :   -0.269619    0.187252
Sum of atomic charges         :   -0.0000000
Sum of atomic spin populations:    1.0000000

-----------------------------------------------------
MULLIKEN REDUCED ORBITAL CHARGES AND SPIN POPULATIONS
-----------------------------------------------------
CHARGE
  0 P s       :     5.606408  s :     5.606408
      pz      :     2.848037  p :     8.241975
      px      :     2.747032
      py      :     2.646906
      dz2     :     0.077552  d :     0.544584
      dxz     :     0.014237
      dyz     :     0.158504
      dx2y2   :     0.121292
      dxy     :     0.172998
      f0      :     0.004231  f :     0.067796
      f+1     :     0.000166
      f-1     :     0.024044
      f+2     :     0.010317
      f-2     :     0.008904
      f+3     :     0.011899
      f-3     :     0.008235

  1 O s       :     3.752657  s :     3.752657
      pz      :     1.529387  p :     4.489725
      px      :     1.512569
      py      :     1.447769
      dz2     :     0.003908  d :     0.026033
      dxz     :     0.001311
      dyz     :     0.007051
      dx2y2   :     0.005670
      dxy     :     0.008092
      f0      :     0.000091  f :     0.001204
      f+1     :     0.000005
      f-1     :     0.000290
      f+2     :     0.000219
      f-2     :     0.000135
      f+3     :     0.000268
      f-3     :     0.000195

  2 O s       :     3.752657  s :     3.752657
      pz      :     1.529387  p :     4.489725
      px      :     1.512569
      py      :     1.447769
      dz2     :     0.003908  d :     0.026033
      dxz     :     0.001311
      dyz     :     0.007051
      dx2y2   :     0.005670
      dxy     :     0.008092
      f0      :     0.000091  f :     0.001204
      f+1     :     0.000005
      f-1     :     0.000290
      f+2     :     0.000219
      f-2     :     0.000135
      f+3     :     0.000268
      f-3     :     0.000195


SPIN
  0 P s       :     0.383805  s :     0.383805
      pz      :     0.178747  p :     0.180386
      px      :     0.034103
      py      :    -0.032464
      dz2     :     0.024335  d :     0.069412
      dxz     :    -0.005460
      dyz     :     0.000581
      dx2y2   :     0.049868
      dxy     :     0.000088
      f0      :    -0.000421  f :    -0.008106
      f+1     :    -0.000106
      f-1     :    -0.002625
      f+2     :    -0.000725
      f-2     :    -0.000569
      f+3     :    -0.002602
      f-3     :    -0.001058

  1 O s       :    -0.020533  s :    -0.020533
      pz      :     0.178334  p :     0.207573
      px      :    -0.013003
      py      :     0.042242
      dz2     :    -0.000008  d :     0.000034
      dxz     :     0.000037
      dyz     :    -0.000236
      dx2y2   :     0.000067
      dxy     :     0.000174
      f0      :     0.000003  f :     0.000178
      f+1     :    -0.000005
      f-1     :     0.000032
      f+2     :     0.000049
      f-2     :     0.000042
      f+3     :     0.000028
      f-3     :     0.000028

  2 O s       :    -0.020533  s :    -0.020533
      pz      :     0.178334  p :     0.207573
      px      :    -0.013003
      py      :     0.042242
      dz2     :    -0.000008  d :     0.000034
      dxz     :     0.000037
      dyz     :    -0.000236
      dx2y2   :     0.000067
      dxy     :     0.000174
      f0      :     0.000003  f :     0.000178
      f+1     :    -0.000005
      f-1     :     0.000032
      f+2     :     0.000049
      f-2     :     0.000042
      f+3     :     0.000028
      f-3     :     0.000028



                     *******************************
                     * LOEWDIN POPULATION ANALYSIS *
                     *******************************

-------------------------------------------
LOEWDIN ATOMIC CHARGES AND SPIN POPULATIONS
-------------------------------------------
   0 P :    0.345662    0.579482
   1 O :   -0.172831    0.210259
   2 O :   -0.172831    0.210259

----------------------------------------------------
LOEWDIN REDUCED ORBITAL CHARGES AND SPIN POPULATIONS
----------------------------------------------------
CHARGE
  0 P s       :     5.002217  s :     5.002217
      pz      :     2.895492  p :     8.378103
      px      :     2.716824
      py      :     2.765788
      dz2     :     0.139964  d :     1.050790
      dxz     :     0.017706
      dyz     :     0.327451
      dx2y2   :     0.294085
      dxy     :     0.271584
      f0      :     0.017758  f :     0.223227
      f+1     :     0.000270
      f-1     :     0.068344
      f+2     :     0.040621
      f-2     :     0.029158
      f+3     :     0.028721
      f-3     :     0.038355

  1 O s       :     3.567614  s :     3.567614
      pz      :     1.512488  p :     4.554179
      px      :     1.457204
      py      :     1.584487
      dz2     :     0.005333  d :     0.048550
      dxz     :     0.001329
      dyz     :     0.017301
      dx2y2   :     0.015807
      dxy     :     0.008780
      f0      :     0.000315  f :     0.002488
      f+1     :     0.000013
      f-1     :     0.000421
      f+2     :     0.000652
      f-2     :     0.000175
      f+3     :     0.000368
      f-3     :     0.000545

  2 O s       :     3.567614  s :     3.567614
      pz      :     1.512488  p :     4.554179
      px      :     1.457204
      py      :     1.584487
      dz2     :     0.005333  d :     0.048550
      dxz     :     0.001329
      dyz     :     0.017301
      dx2y2   :     0.015807
      dxy     :     0.008780
      f0      :     0.000315  f :     0.002488
      f+1     :     0.000013
      f-1     :     0.000421
      f+2     :     0.000652
      f-2     :     0.000175
      f+3     :     0.000368
      f-3     :     0.000545


SPIN
  0 P s       :     0.207229  s :     0.207229
      pz      :     0.208607  p :     0.224042
      px      :     0.030640
      py      :    -0.015205
      dz2     :     0.058426  d :     0.152765
      dxz     :    -0.004951
      dyz     :    -0.003409
      dx2y2   :     0.103733
      dxy     :    -0.001035
      f0      :    -0.000019  f :    -0.004554
      f+1     :    -0.000090
      f-1     :    -0.001071
      f+2     :    -0.001093
      f-2     :    -0.000523
      f+3     :    -0.002518
      f-3     :     0.000758

  1 O s       :     0.021488  s :     0.021488
      pz      :     0.155680  p :     0.187716
      px      :    -0.011155
      py      :     0.043191
      dz2     :     0.000164  d :     0.000929
      dxz     :     0.000084
      dyz     :     0.000563
      dx2y2   :    -0.000137
      dxy     :     0.000255
      f0      :    -0.000002  f :     0.000126
      f+1     :    -0.000002
      f-1     :     0.000026
      f+2     :     0.000028
      f-2     :     0.000033
      f+3     :     0.000021
      f-3     :     0.000021

  2 O s       :     0.021488  s :     0.021488
      pz      :     0.155680  p :     0.187716
      px      :    -0.011155
      py      :     0.043191
      dz2     :     0.000164  d :     0.000929
      dxz     :     0.000084
      dyz     :     0.000563
      dx2y2   :    -0.000137
      dxy     :     0.000255
      f0      :    -0.000002  f :     0.000126
      f+1     :    -0.000002
      f-1     :     0.000026
      f+2     :     0.000028
      f-2     :     0.000033
      f+3     :     0.000021
      f-3     :     0.000021



                      *****************************
                      * MAYER POPULATION ANALYSIS *
                      *****************************

  NA   - Mulliken gross atomic population
  ZA   - Total nuclear charge
  QA   - Mulliken gross atomic charge
  VA   - Mayer's total valence
  BVA  - Mayer's bonded valence
  FA   - Mayer's free valence

  ATOM       NA         ZA         QA         VA         BVA        FA
  0 P     14.4608    15.0000     0.5392     4.5583     4.0997     0.4586
  1 O      8.2696     8.0000    -0.2696     2.2057     2.1698     0.0359
  2 O      8.2696     8.0000    -0.2696     2.2057     2.1698     0.0359

  Mayer bond orders larger than 0.100000
B(  0-P ,  1-O ) :   2.0498 B(  0-P ,  2-O ) :   2.0498 B(  1-O ,  2-O ) :   0.1199 


-------
TIMINGS
-------

Total SCF time: 0 days 0 hours 0 min 2 sec 

Total time                  ....       2.783 sec
Sum of individual times     ....       2.614 sec  ( 93.9%)

SCF preparation             ....       0.120 sec  (  4.3%)
Fock matrix formation       ....       1.779 sec  ( 63.9%)
  Startup                   ....       0.019 sec  (  1.1% of F)
  Coulomb formation         ....       0.773 sec  ( 43.4% of F)
  XC integration            ....       0.554 sec  ( 31.1% of F)
    Basis function eval.    ....       0.036 sec  (  6.4% of XC)
    Density eval.           ....       0.032 sec  (  5.8% of XC)
    XC-Functional eval.     ....       0.015 sec  (  2.7% of XC)
    XC-Potential eval.      ....       0.081 sec  ( 14.6% of XC)
Diagonalization             ....       0.000 sec  (  0.0%)
Density matrix formation    ....       0.238 sec  (  8.5%)
Total Energy calculation    ....       0.036 sec  (  1.3%)
Population analysis         ....       0.017 sec  (  0.6%)
Orbital Transformation      ....       0.045 sec  (  1.6%)
Orbital Orthonormalization  ....       0.000 sec  (  0.0%)
DIIS solution               ....       0.244 sec  (  8.8%)
SOSCF solution              ....       0.136 sec  (  4.9%)
Finished LeanSCF after   2.9 sec

Maximum memory used throughout the entire LEANSCF-calculation: 13.7 MB


           ************************************************************
           *        Program running with 8 parallel MPI-processes     *
           *              working on a common directory               *
           ************************************************************

------------------------------------------------------------------------------
                         ORCA PROPERTY INTEGRAL CALCULATIONS
------------------------------------------------------------------------------

GBWName                                   ... /cluster/projects/nn14654k/ylvaos/basis_set_n_funcs/functionals/gga_x_N12/PO2/inp/PO2_gga_x_N12_def2tzvp.gbw
Number of atoms                           ...      3
Number of basis functions                 ...     99
Max core memory                           ...   4096 MB

Dipole integrals                          ... YES
Quadrupole integrals                      ... YES
Linear momentum integrals                 ...  NO
Angular momentum integrals                ...  NO
Higher moments length integrals           ...  NO
Higher moments velocity integrals         ...  NO
Kinetic energy integrals                  ...  NO
GIAO right hand sides                     ...  NO
GIAO dipole derivative integrals          ...  NO
SOC integrals                             ...  NO
EPR diamagnetic integrals (GIAO)          ...  NO
EPR gauge integrals                       ...  NO
Field gradient integrals                  ...  NO (   0 nuclei)
Spin-dipole/Fermi contact integrals       ...  NO (   0 nuclei)
Contact density integrals                 ...  NO (   0 nuclei)
Nucleus-orbit integrals                   ...  NO (   0 nuclei)
Geometric perturbations                   ...  NO (   3 nuclei)

Choice of electric origin   ... Center of mass
Position of electric origin ... (  0.0000,  0.0000,  0.0084) 
Choice of magnetic origin   ... GIAO
Position of magnetic origin ... (  0.0000,  0.0000,  0.0000) 

Calculating integrals                     ... Electric Dipole (Length)     done (  0.0 sec)
Calculating integrals                     ... Electric Quadrupole (Length) done (  0.0 sec)

Property integrals calculated in   0.0 sec

Maximum memory used throughout the entire PROPINT-calculation: 6.9 MB
------------------------------------------------------------------------------
                           ORCA ORBITAL LOCALIZATION
------------------------------------------------------------------------------

Input orbitals are from                  ... /cluster/projects/nn14654k/ylvaos/basis_set_n_funcs/functionals/gga_x_N12/PO2/inp/PO2_gga_x_N12_def2tzvp.gbw
Output orbitals are to                   ... /cluster/projects/nn14654k/ylvaos/basis_set_n_funcs/functionals/gga_x_N12/PO2/inp/PO2_gga_x_N12_def2tzvp.loc
Max. number of iterations                ... 128
Localizations seeded randomly            ... on
Convergence tolerance                    ... 1.000e-06
Threshold for strong local MOs           ... 9.500e-01
Threshold for bond MOs                   ... 8.500e-01
Operator                                 ... 0
Orbital range for localization           ... 4 to 15
Localization criterion                   ... NEW-BOYS
Doing the dipole integrals               ... o.k.
Initial value of the localization sum :    30.479192
ITERATION   0 : L=   48.2474727817 DL=  1.78e+01 (AVERGE_DL)=    0.5188606456 
ITERATION   1 : L=   50.0382759826 DL=  1.79e+00 (AVERGE_DL)=    0.1647221352 
ITERATION   2 : L=   50.2452354503 DL=  2.07e-01 (AVERGE_DL)=    0.0559977635 
ITERATION   3 : L=   50.2814449671 DL=  3.62e-02 (AVERGE_DL)=    0.0234228317 
ITERATION   4 : L=   50.2893135696 DL=  7.87e-03 (AVERGE_DL)=    0.0109188483 
ITERATION   5 : L=   50.2911814612 DL=  1.87e-03 (AVERGE_DL)=    0.0053199049 
ITERATION   6 : L=   50.2916514470 DL=  4.70e-04 (AVERGE_DL)=    0.0026685195 
ITERATION   7 : L=   50.2917694178 DL=  1.18e-04 (AVERGE_DL)=    0.0013369507 
ITERATION   8 : L=   50.2917988368 DL=  2.94e-05 (AVERGE_DL)=    0.0006676393 
ITERATION   9 : L=   50.2918060710 DL=  7.23e-06 (AVERGE_DL)=    0.0003310726 
ITERATION  10 : L=   50.2918078205 DL=  1.75e-06 (AVERGE_DL)=    0.0001628100 
ITERATION  11 : L=   50.2918082360 DL=  4.16e-07 (AVERGE_DL)=    0.0000793451 
LOCALIZATION SUM CONVERGED


--------------------------------------------------------------------------------
                    LOCALIZED MOLECULAR ORBITAL COMPOSITIONS
--------------------------------------------------------------------------------

The Mulliken populations for each LMO on each atom are computed
The LMO`s will be ordered according to atom index and type
  (A) Strongly localized MO`s have populations of >=0.950 on one atom
  (B) Two center bond orbitals have populations of >=0.850 on two atoms
  (C) Other MO`s are considered to be `delocalized`

FOUND  -   4 strongly local MO`s
       -   8 two center bond MO`s
       -   0 significantly delocalized MO`s

Rather strongly localized orbitals:
MO   7:   0P  -   1.000393
MO   6:   0P  -   1.001031
MO   5:   0P  -   1.000393
MO   4:   0P  -   1.102751
Bond-like localized orbitals:
MO  15:   2O  -   0.879914  and   0P  -   0.124964
MO  14:   2O  -   0.732444  and   0P  -   0.268579
MO  13:   2O  -   0.947425  and   0P  -   0.052389
MO  12:   2O  -   0.732446  and   0P  -   0.268584
MO  11:   1O  -   0.732449  and   0P  -   0.268579
MO  10:   1O  -   0.879914  and   0P  -   0.124965
MO   9:   1O  -   0.732443  and   0P  -   0.268582
MO   8:   1O  -   0.947424  and   0P  -   0.052390
Localized MO's were stored in: /cluster/projects/nn14654k/ylvaos/basis_set_n_funcs/functionals/gga_x_N12/PO2/inp/PO2_gga_x_N12_def2tzvp.loc
------------------------------------------------------------------------------
                           ORCA ORBITAL LOCALIZATION
------------------------------------------------------------------------------

Input orbitals are from                  ... /cluster/projects/nn14654k/ylvaos/basis_set_n_funcs/functionals/gga_x_N12/PO2/inp/PO2_gga_x_N12_def2tzvp.loc
Output orbitals are to                   ... /cluster/projects/nn14654k/ylvaos/basis_set_n_funcs/functionals/gga_x_N12/PO2/inp/PO2_gga_x_N12_def2tzvp.loc
Max. number of iterations                ... 128
Localizations seeded randomly            ... on
Convergence tolerance                    ... 1.000e-06
Threshold for strong local MOs           ... 9.500e-01
Threshold for bond MOs                   ... 8.500e-01
Operator                                 ... 1
Orbital range for localization           ... 4 to 14
Localization criterion                   ... NEW-BOYS
Doing the dipole integrals               ... o.k.
Initial value of the localization sum :    28.772455
ITERATION   0 : L=   39.3744201138 DL=  1.06e+01 (AVERGE_DL)=    0.4390478336 
ITERATION   1 : L=   42.8476887793 DL=  3.47e+00 (AVERGE_DL)=    0.2512973127 
ITERATION   2 : L=   43.1916973459 DL=  3.44e-01 (AVERGE_DL)=    0.0790866690 
ITERATION   3 : L=   43.2593746934 DL=  6.77e-02 (AVERGE_DL)=    0.0350784439 
ITERATION   4 : L=   43.2647895358 DL=  5.41e-03 (AVERGE_DL)=    0.0099222821 
ITERATION   5 : L=   43.2666702938 DL=  1.88e-03 (AVERGE_DL)=    0.0058477003 
ITERATION   6 : L=   43.2680305677 DL=  1.36e-03 (AVERGE_DL)=    0.0049731533 
ITERATION   7 : L=   43.2691214964 DL=  1.09e-03 (AVERGE_DL)=    0.0044536577 
ITERATION   8 : L=   43.2700043510 DL=  8.83e-04 (AVERGE_DL)=    0.0040064826 
ITERATION   9 : L=   43.2707138536 DL=  7.10e-04 (AVERGE_DL)=    0.0035916636 
ITERATION  10 : L=   43.2712797108 DL=  5.66e-04 (AVERGE_DL)=    0.0032075398 
ITERATION  11 : L=   43.2717281684 DL=  4.48e-04 (AVERGE_DL)=    0.0028554816 
ITERATION  12 : L=   43.2720818815 DL=  3.54e-04 (AVERGE_DL)=    0.0025359707 
ITERATION  13 : L=   43.2723598930 DL=  2.78e-04 (AVERGE_DL)=    0.0022482780 
ITERATION  14 : L=   43.2725778296 DL=  2.18e-04 (AVERGE_DL)=    0.0019905990 
ITERATION  15 : L=   43.2727483688 DL=  1.71e-04 (AVERGE_DL)=    0.0017608841 
ITERATION  16 : L=   43.2728816526 DL=  1.33e-04 (AVERGE_DL)=    0.0015567088 
ITERATION  17 : L=   43.2729857327 DL=  1.04e-04 (AVERGE_DL)=    0.0013756326 
ITERATION  18 : L=   43.2730669687 DL=  8.12e-05 (AVERGE_DL)=    0.0012153265 
ITERATION  19 : L=   43.2731303635 DL=  6.34e-05 (AVERGE_DL)=    0.0010736067 
ITERATION  20 : L=   43.2731798323 DL=  4.95e-05 (AVERGE_DL)=    0.0009483851 
ITERATION  21 : L=   43.2732184390 DL=  3.86e-05 (AVERGE_DL)=    0.0008378177 
ITERATION  22 : L=   43.2732485757 DL=  3.01e-05 (AVERGE_DL)=    0.0007402306 
ITERATION  23 : L=   43.2732721068 DL=  2.35e-05 (AVERGE_DL)=    0.0006540934 
ITERATION  24 : L=   43.2732904879 DL=  1.84e-05 (AVERGE_DL)=    0.0005781018 
ITERATION  25 : L=   43.2733048503 DL=  1.44e-05 (AVERGE_DL)=    0.0005110121 
ITERATION  26 : L=   43.2733160791 DL=  1.12e-05 (AVERGE_DL)=    0.0004518412 
ITERATION  27 : L=   43.2733248607 DL=  8.78e-06 (AVERGE_DL)=    0.0003995811 
ITERATION  28 : L=   43.2733317320 DL=  6.87e-06 (AVERGE_DL)=    0.0003534586 
ITERATION  29 : L=   43.2733371106 DL=  5.38e-06 (AVERGE_DL)=    0.0003127187 
ITERATION  30 : L=   43.2733413240 DL=  4.21e-06 (AVERGE_DL)=    0.0002767790 
ITERATION  31 : L=   43.2733446244 DL=  3.30e-06 (AVERGE_DL)=    0.0002449640 
ITERATION  32 : L=   43.2733472123 DL=  2.59e-06 (AVERGE_DL)=    0.0002169163 
ITERATION  33 : L=   43.2733492413 DL=  2.03e-06 (AVERGE_DL)=    0.0001920699 
ITERATION  34 : L=   43.2733508334 DL=  1.59e-06 (AVERGE_DL)=    0.0001701387 
ITERATION  35 : L=   43.2733520830 DL=  1.25e-06 (AVERGE_DL)=    0.0001507317 
ITERATION  36 : L=   43.2733530642 DL=  9.81e-07 (AVERGE_DL)=    0.0001335653 
LOCALIZATION SUM CONVERGED


--------------------------------------------------------------------------------
                    LOCALIZED MOLECULAR ORBITAL COMPOSITIONS
--------------------------------------------------------------------------------

The Mulliken populations for each LMO on each atom are computed
The LMO`s will be ordered according to atom index and type
  (A) Strongly localized MO`s have populations of >=0.950 on one atom
  (B) Two center bond orbitals have populations of >=0.850 on two atoms
  (C) Other MO`s are considered to be `delocalized`

FOUND  -   3 strongly local MO`s
       -   8 two center bond MO`s
       -   0 significantly delocalized MO`s

Rather strongly localized orbitals:
MO   6:   0P  -   1.001161
MO   5:   0P  -   1.000242
MO   4:   0P  -   1.000242
Bond-like localized orbitals:
MO  14:   2O  -   0.556022  and   0P  -   0.436997
MO  13:   2O  -   0.771646  and   0P  -   0.230368
MO  12:   2O  -   0.771314  and   0P  -   0.230698
MO  11:   2O  -   0.944156  and   0P  -   0.055686
MO  10:   1O  -   0.556016  and   0P  -   0.437003
MO   9:   1O  -   0.771016  and   0P  -   0.230980
MO   8:   1O  -   0.944162  and   0P  -   0.055679
MO   7:   1O  -   0.771945  and   0P  -   0.230083
Localized MO's were stored in: /cluster/projects/nn14654k/ylvaos/basis_set_n_funcs/functionals/gga_x_N12/PO2/inp/PO2_gga_x_N12_def2tzvp.loc

-------------------------   --------------------
FINAL SINGLE POINT ENERGY      -489.924426227664
-------------------------   --------------------



           ************************************************************
           *        Program running with 8 parallel MPI-processes     *
           *              working on a common directory               *
           ************************************************************

------------------------------------------------------------------------------
                              ORCA PROPERTY CALCULATIONS
------------------------------------------------------------------------------

GBWName                                 ... /cluster/projects/nn14654k/ylvaos/basis_set_n_funcs/functionals/gga_x_N12/PO2/inp/PO2_gga_x_N12_def2tzvp.gbw
Number of atoms                         ...      3
Number of basis functions               ...     99
Max core memory                         ...   4096 MB

Electric properties:
Dipole moment                           ... YES
Quadrupole moment                       ... YES
Static polarizability (Dipole/Dipole)   ...  NO
Static polarizability (Dipole/Quad.)    ...  NO
Static polarizability (Quad./Quad.)     ...  NO
Static polarizability (Velocity)        ...  NO
Static hyperpolarizability              ...  NO

Atomic electric properties:
Dipole moment                           ...  NO
Quadrupole moment                       ...  NO
Static polarizability                   ...  NO

Choice of electric origin               ... Center of mass
Position of electric origin             ...     0.000000     0.000000     0.008437

General magnetic properties:
Magnetizability                         ...  NO

EPR properties:
g-Tensor (aka g-matrix)                 ...  NO
Zero-Field splitting spin-orbit         ...  NO
Zero-field splitting spin-spin          ...  NO
Hyperfine couplings                     ...  NO (   0 nuclei)
Quadrupole couplings                    ...  NO (   0 nuclei)
Contact density                         ...  NO (   0 nuclei)

NMR properties:
Chemical shifts                         ...  NO (   0 nuclei)
Spin-rotation constants                 ...  NO (   0 nuclei)
Spin-spin couplings                     ...  NO (   0 nuclei,    0 pairs)

Choice of magnetic origin               ... GIAO
Position of magnetic origin             ...     0.000000     0.000000     0.000000

Properties with geometric perturbations:
SCF Hessian                             ...  NO
IR spectrum                             ...  NO
VCD spectrum                            ...  NO
X-ray spectroscopy properties:
SCF XES/XAS/RIXS spectra                ...  NO

SCF SOC stabilization energy            ...  NO
Diagonal Born-Oppenheimer correction    ...  NO

-------------
DIPOLE MOMENT
-------------

Method             : SCF
Type of density    : Electron Density
Multiplicity       :   2
Irrep              :   0
Energy             :  -489.9244262276642417 Eh
Basis              : AO
                                X                 Y                 Z
Electronic contribution:     -0.000000000      -0.000000000       0.788918289
Nuclear contribution   :      0.000000000       0.000000000      -0.261362976
                        -----------------------------------------
Total Dipole Moment    :     -0.000000000      -0.000000000       0.527555312
                        -----------------------------------------
Magnitude (a.u.)       :      0.527555312
Magnitude (Debye)      :      1.340939038



--------------------
Rotational spectrum 
--------------------
 
Rotational constants in cm-1:             3.442444             0.286393             0.264396 
Rotational constants in MHz :        103201.869580          8585.841533          7926.407020 

Dipole components along the rotational axes: 
x,y,z [a.u.] :    -0.000000     0.527555    -0.000000 
x,y,z [Debye]:    -0.000000     1.340939    -0.000000 

 

Dipole moment calculation done in   0.0 sec 

-----------------
QUADRUPOLE MOMENT
-----------------

Method             : SCF
Type of density    : Electron Density
Multiplicity       :   2
Irrep              :   0
Energy             :  -489.9244262276642417 Eh
Basis              : AO

                XX              YY              ZZ              XY              XZ              YZ
  NUC        0.000000000   105.106420135     8.604299986     0.000000000     0.000000000     0.000000000
  EL       -15.577380515  -126.245351102   -24.871302003     0.000000000     0.000000000     0.000000001
  TOT      -15.577380515   -21.138930967   -16.267002017     0.000000000     0.000000000     0.000000001 (a.u.)
           -20.952109539   -28.432585102   -21.879674044     0.000000000     0.000000000     0.000000002 (Buckingham)

diagonalized tensor:
           -21.138930967   -16.267002017   -15.577380515 (a.u.)
           -28.432585102   -21.879674044   -20.952109539 (Buckingham)
           -14.033386620     5.625346552     8.408040069 (traceless form in Buckingham)

            -0.000000000     0.000000000     1.000000000
             1.000000000    -0.000000000     0.000000000
            -0.000000000    -1.000000000     0.000000000
        
Isotropic quadrupole :   -17.661104499

Quadrupole moment calculation done in   0.0 sec (  0.0 sec for integrals)

Maximum memory used throughout the entire PROP-calculation: 3.4 MB

--------------------------------
SUGGESTED CITATIONS FOR THIS RUN
--------------------------------

Below you find a list of papers that are relevant to this ORCA run
We neither can nor want to force you to cite these papers, but we appreciate if you do
You receive ORCA, which is the product of decades of hard work by many enthusiastic individuals, for free
The only thing we kindly ask in return is that you cite our papers,
We deeply appreciate it, if you show your appreciation for ORCA by not just citing the generic ORCA reference.

Please note that relegating all ORCA citations to the supporting information does *not* help us.
SI sections are not indexed - citations you put there will not count into any citation statistics
But we need these citations in order to attract the funding resources that allow us to do what we are doing

Therefore, if you are a happy ORCA user, please consider citing a few of the papers listed below in the main body of your paper

In addition to the list printed below, the program has created the file /cluster/projects/nn14654k/ylvaos/basis_set_n_funcs/functionals/gga_x_N12/PO2/inp/PO2_gga_x_N12_def2tzvp.bibtex that contains the list in bibtex format
You can import this file easily into all common literature databanks and citation aid programs

It goes without saying that in many instances, there are alternative algorithms to achieve similar
results as the ones you have gotten from ORCA. It is, of course, also the case that in some instances
ORCA just re-implements algorithms worked out by others. We are fully aware of that and we are also
fully appreciative of our colleagues work. Hence this citation list should not be read as indicating
that the listed papers, which are focused on our own work, are the only ones worth citing. It simply
meant to make it easier for users to cite ORCA specific papers. It is not a substitute for doing your
own literature research and citing the relevant literature in a scientifically appropriate manner.

List of essential papers. We consider these as the minimum necessary citations

  1. Neese, F.
     Software update: the ORCA program system, version 6.0
     WIRES Comput. Molec. Sci. 2025 15(1), e70019
     doi.org/10.1002/wcms.70019

List of papers to cite with high priority. The work reported in these papers was absolutely
necessary for this run to complete.
Our perspective: the developers of density functionals and basis sets usually get cited in chemistry papers
Good! But without the algorithms to do something with them, the functionals or basis sets would not do anything.
Hence, in our opinion, the algorithm design and method developments papers are equally worthy of getting cited

  1. Lehtola, S.; Steigemann, C.; Oliveira, M.; Marques, M.
     Recent developments in Libxc - A comprehensive library of functionals for density functional theory
     Software X 2018 7 , 
     doi.org/10.1016/j.softx.2017.11.002
  2. Neese, F.
     The SHARK Integral Generation and Digestion System
     J. Comp. Chem. 2022 44(3), 381
     doi.org/10.1002/jcc.26942

List of suggested additional citations. These are papers that are important in the 'surrounding' of 
of this run, or papers that preceded the highly important papers. If you like your results we are grateful for a citation.

  1. Neese, F.
     The ORCA program system
     WIRES Comput. Molec. Sci. 2012 2(1), 73-78
     doi.org/10.1002/wcms.81
  2. Neese, F.
     Software update: the ORCA program system, version 4.0
     WIRES Comput. Molec. Sci. 2018 8(1), 1-6
     doi.org/10.1002/wcms.1327
  3. Neese, F.; Wennmohs, F.; Becker, U.; Riplinger, C.
     The ORCA quantum chemistry program package
     J. Chem. Phys. 2020 152(22), 224108
     doi.org/10.1063/5.0004608
  4. Neese, F.
     Software update: The ORCA program system—Version 5.0
     WIRES Comput. Molec. Sci. 2022 12(1), e1606
     doi.org/10.1002/wcms.1606

List of optional additional citations

  1. Neese, F.
     Approximate second-order SCF convergence for spin unrestricted wavefunctions
     Chem. Phys. Lett. 2000 325(1-3), 93-98
     doi.org/10.1016/s0009-2614(00)00662-x

Timings for individual modules:

Sum of individual times          ...        4.343 sec (=   0.072 min)
Startup calculation              ...        0.391 sec (=   0.007 min)   9.0 %
SCF iterations                   ...        3.441 sec (=   0.057 min)  79.2 %
Property integrals               ...        0.260 sec (=   0.004 min)   6.0 %
Property calculations            ...        0.243 sec (=   0.004 min)   5.6 %
Orbital localization             ...        0.007 sec (=   0.000 min)   0.2 %
                             ****ORCA TERMINATED NORMALLY****
TOTAL RUN TIME: 0 days 0 hours 0 minutes 5 seconds 140 msec
