
                                 *****************
                                 * O   R   C   A *
                                 *****************

                                            #,                                       
                                            ###                                      
                                            ####                                     
                                            #####                                    
                                            ######                                   
                                           ########,                                 
                                     ,,################,,,,,                         
                               ,,#################################,,                 
                          ,,##########################################,,             
                       ,#########################################, ''#####,          
                    ,#############################################,,   '####,        
                  ,##################################################,,,,####,       
                ,###########''''           ''''###############################       
              ,#####''   ,,,,##########,,,,          '''####'''          '####       
            ,##' ,,,,###########################,,,                        '##       
           ' ,,###''''                  '''############,,,                           
         ,,##''                                '''############,,,,        ,,,,,,###''
      ,#''                                            '''#######################'''  
     '                                                          ''''####''''         
             ,#######,   #######,   ,#######,      ##                                
            ,#'     '#,  ##    ##  ,#'     '#,    #''#        ,####,    ,#,          
            ##       ##  ##   ,#'  ##            #'  '#       #'       ,# #          
            ##       ##  #######   ##           ,######,      #####,      #          
            '#,     ,#'  ##    ##  '#,     ,#' ,#      #,     #,   #      #          
             '#######'   ##     ##  '#######'  #'      '#     '####' #    #          



                #########################################################
                #                        -***-                          #
                #          Department of theory and spectroscopy        #
                #                                                       #
                #                      Frank Neese                      #
                #                                                       #
                #     Directorship, Architecture, Infrastructure        #
                #                    SHARK, DRIVERS                     #
                #        Core code/Algorithms in most modules           #
                #                                                       #
                #        Max Planck Institute fuer Kohlenforschung      #
                #                Kaiser Wilhelm Platz 1                 #
                #                 D-45470 Muelheim/Ruhr                 #
                #                      Germany                          #
                #                                                       #
                #                  All rights reserved                  #
                #                        -***-                          #
                #########################################################


                         Program Version 6.1.1  -  RELEASE   -
                                (GIT: $487d211c$)
                          ($2025-11-21 10:33:24 +0100$)


 With contributions from (in alphabetic order):
[Max-Planck-Institut fuer Kohlenforschung]                               
  Daniel Aravena         : Magnetic Suceptibility                        
  Michael Atanasov       : Ab Initio Ligand Field Theory (pilot matlab implementation)
  Alexander A. Auer      : GIAO ZORA, VPT2 properties, NMR spectrum      
  Ute Becker             : All parallelization in ORCA, NUMFREQ, NUMCALC 
  Giovanni Bistoni       : ED, misc. LED, open-shell LED, HFLD           
  Dmytro Bykov           : pre 5.0 version of the SCF Hessian            
  Marcos Casanova-Páez   : Triplet and SCS-CIS(D). UHF-(DLPNO)-IP/EA/STEOM-CCSD. UHF-CVS-IP/STEOM-CCSD   
  Vijay G. Chilkuri      : MRCI spin determinant printing, contributions to CSF-ICE 
  Pauline Colinet        : FMM embedding                                 
  Dipayan Datta          : RHF DLPNO-CCSD density                        
  Achintya Kumar Dutta   : EOM-CC, STEOM-CC                              
  Nicolas Foglia         : Exact transition moments, OPA infrastructure, MCD improvements    
  Dmitry Ganyushin       : Spin-Orbit,Spin-Spin,Magnetic field MRCI      
  Miquel Garcia-Rates    : C-PCM and meta-GGA Hessian, CCSD/C-PCM, Gaussian charge scheme 
  Tiago L. C. Gouveia    : GS-ROHF, GS-ROCIS                             
  Yang Guo               : DLPNO-NEVPT2, F12-NEVPT2, CIM, IAO-localization        
  Andreas Hansen         : Spin unrestricted coupled pair/coupled cluster methods 
  Ingolf Harden          : AUTO-CI MPn and infrastructure                
  Benjamin Helmich-Paris : MC-RPA, TRAH-(SCF,CASSCF), AVAS, COSX integrals, SCF dyn. polar., MC-PDFT, srDFT 
  Lee Huntington         : MR-EOM, pCC                                   
  Robert Izsak           : Overlap fitted RIJCOSX, COSX-SCS-MP3, EOM     
  Riya Kayal             : Wick's Theorem for AUTO-CI, AUTO-CI UHF-CCSDT 
  Emily Kempfer          : AUTO-CI RHF CISDT and CCSDT, approximate NEVPT4
  Christian Kollmar      : KDIIS, OOCD, Brueckner-CCSD(T), CCSD density, CASPT2, CASPT2-K, improved NEVPT2 
  Axel Koslowski         : Symmetry handling                             
  Simone Kossmann        : meta-GGA functionals, TD-DFT gradient, OOMP2, (MP2 Hessian; deprecated post 5.0) 
  Lucas Lang             : DCDCAS, Hyperfine gauge corrections, ICE-SOC+SSC
  Marvin Lechner         : AUTO-CI (C++ implementation), FIC-MRCC        
  Spencer Leger          : CASSCF response                               
  Dagmar Lenk            : GEPOL surface, SMD, ORCA-2-JSON               
  Dimitrios Liakos       : Extrapolation schemes; Compound Job, Property file
  Dimitrios Manganas     : Further ROCIS development; embedding schemes. LFT, Crystal Embedding 
  Dimitrios Pantazis     : SARC Basis sets                               
  Anastasios Papadopoulos: AUTO-CI, single reference methods and gradients 
  Taras Petrenko         : pre 6.0 DFT Hessian and TD-DFT gradient,  ECA, NRVS 
  Petra Pikulova         : Analytic Raman intensities                    
  Peter Pinski           : DLPNO-MP2, DLPNO-MP2 Gradient                 
  Shashank Vittal Rao    : ES-AILFT, MagRelax                            
  Christoph Reimann      : Effective Core Potentials                     
  Marius Retegan         : Local ZFS, SOC                                
  Christoph Riplinger    : Optimizer, TS searches, QM/MM, DLPNO-CCSD(T), (RO)-DLPNO pert. Triples 
  Michael Roemelt        : Original ROCIS implementation, recursive CI coupling coefficients
  Masaaki Saitow         : Open-shell DLPNO-CCSD energy and density      
  Barbara Sandhoefer     : DKH picture change effects                    
  Yorick L. A. Schmerwitz: GMF and freeze-and-release deltaSCF, NEB S-IDPP initial path                    
  Kantharuban Sivalingam : CASSCF convergence/infrastructure, NEVPT2, NEVPT3, NEVPT4(SD), FIC-MRCI and CEPA variants
  Bernardo de Souza      : ESD, SOC TD-DFT                               
  Georgi L. Stoychev     : AutoAux, RI-MP2 NMR, DLPNO-MP2 response, X2C  
  Van Anh Tran           : RI-MP2 g-tensors                              
  Willem Van den Heuvel  : Paramagnetic NMR                              
  Zikuan Wang            : NOTCH, Electric field optimization            
  Frank Wennmohs         : Technical directorship and infrastructure     
  Hang Xu                : AUTO-CI-Response properties                   
                                                                         
[FACCTs GmbH]                                                            
  Markus Bursch, Nicolas Foglia, Miquel Garcia-Rates, Ingolf Harden, Hagen Neugebauer, Anastasios Papadopoulos, 
  Christoph Riplinger, Bernardo de Souza, Georgi L. Stoychev                                                    
                                                                 
  APM, various basis sets, CI-OPT, improved COSX, DLPNO-Multilevel,           
  DOCKER, DRACO, updates on ESD, Fragmentator, GOAT, IRC, LR-CPCM, L-BFGS, MBIS, meta-GGA TD-DFT gradient, ML-optimized integration grids, 
  MM, NACMEs, nearIR, NEB, NEB-TS, NL-DFT gradient (VV10), 2- and 3-layer-ONIOM, interface openCOSMO-RS, QMMM,   
  Crystal-QMMM, RESP, rigid body optimization, SF, symmetry and pop. for TD-DFT, various functionals, SOLVATOR                                   
                                                                         
[Other institutions]                                                     
  V. Asgeirsson          : NEB                                           
  Christoph Bannwarth    : sTDA-DFT, sTD-DFT, PBEh-3c, B97-3c, D3        
  Giovanni Bistoni       : ETS/NOCV, ADLD/ADEX, COVALED                  
  Martin Brehm           : Molecular dynamics                            
  Ronald Cardenas        : ETS/NOCV                                      
  Martina Colucci        : COVALED                                       
  Sebastian Ehlert       : rSCAN, r2SCAN, r2SCAN-3c, D4, dhf basis sets  
  Marvin Friede          : D4 for Fr, Ra, Ac-Lr                          
  Lars Goerigk           : TD-DFT with DH, B97 family of functionals     
  Stefan Grimme          : VdW corrections, initial TS optimization, DFT functionals, gCP, sTDA/sTD-DF 
  Waldemar Hujo          : DFT-NL                                        
  H. Jonsson             : NEB                                           
  Holger Kruse           : gCP                                           
  Marcel Mueller         : wB97X-3c, vDZP basis set                      
  Hagen Neugebauer       : wr2SCAN, Native XTB                           
  Gianluca Regni         : ADLD/ADEX                                     
  Tobias Risthaus        : pre 6.0 range-separated hybrid DFT and stability analysis
  Lukas Wittmann         : regularized MP2, r2SCAN double-hybrids, wr2SCAN        
                                                                         
We gratefully acknowledge several colleagues who have allowed us to      
interface, adapt or use parts of their codes:                            
  Ed Valeev, F. Pavosevic, A. Kumar             : LibInt (2-el integral package), F12 methods 
  Garnet Chan, S. Sharma, J. Yang, R. Olivares  : DMRG                   
  Ulf Ekstrom                                   : XCFun DFT Library      
  Mihaly Kallay                                 : mrcc  (arbitrary order and MRCC methods)
  Frank Weinhold                                : gennbo (NPA and NBO analysis)           
  Simon Mueller                                 : openCOSMO-RS                            
  Christopher J. Cramer and Donald G. Truhlar   : smd solvation model                     
  S Lehtola, MJT Oliveira, MAL Marques          : LibXC Library                           
  Liviu Ungur et al                             : ANISO software                          


 Your calculation uses the libint2 library for the computation of 2-el integrals
 For citations please refer to: http://libint.valeyev.net

 Your ORCA version has been built with support for libXC version: 7.0.0
 For citations please refer to: https://libxc.gitlab.io

 This ORCA versions uses:
   CBLAS   interface :  Fast vector & matrix operations
   LAPACKE interface :  Fast linear algebra routines
   SCALAPACK package :  Parallel linear algebra routines
   Shared memory     :  Shared parallel matrices
   BLAS/LAPACK       :  OpenBLAS 0.3.29  USE64BITINT DYNAMIC_ARCH NO_AFFINITY Cooperlake SINGLE_THREADED
        Core in use  :  Cooperlake
   Copyright (c) 2011-2014, The OpenBLAS Project


  ***********************************
  * Starting time: Wed May 20 12:39:04 2026
  * Host name:     c1-48
  * Process ID:    1450810
  * Working dir.:  /cluster/projects/nn14654k/ylvaos/basis_set_n_funcs/functionals/gga_x_N12/PO2/out
  ***********************************

Using LibXC functional ID  82 : Minnesota N12 exchange functional
[ 1]  R. Peverati and D. G. Truhlar.,  J. Chem. Theory Comput. 8, 2310 (2012)
Using LibXC functional ID  82 : Minnesota N12 exchange functional
[ 1]  R. Peverati and D. G. Truhlar.,  J. Chem. Theory Comput. 8, 2310 (2012)
Your calculation utilizes LibXC
by S. Lehtola, C. Steigemann, M. J. T. Oliveira & M. A. L. Marques
Please cite in your paper:
Lehtola, S.; Steigemann, C.; Oliveira, M.J.T.; Marques, M. A. L. Software X, 7, (2018), 1.
   

================================================================================

----- Orbital basis set information -----
Your calculation utilizes the basis: pcseg-2
   F. Jensen, J. Chem. Theory Comput. 10, 1074 (2014).

================================================================================
                                        WARNINGS
                       Please study these warnings very carefully!
================================================================================


WARNING: your system is open-shell and RHF/RKS was chosen
  ===> : WILL SWITCH to UHF/UKS


================================================================================
                                       INPUT FILE
================================================================================
NAME = /cluster/projects/nn14654k/ylvaos/basis_set_n_funcs/functionals/gga_x_N12/PO2/inp/PO2_gga_x_N12_pcseg2.inp
|  1> ! dft pcseg-2 TightSCF
|  2> %pal nprocs 8 end
|  3> 
|  4> %loc
|  5>   LocMet NewBoys
|  6>   Occ true
|  7> end
|  8> 
|  9> %method
| 10>   exchange gga_x_N12
| 11>   correlation None
| 12> end
| 13> 
| 14> %elprop
| 15>   Dipole true
| 16>   Quadrupole true
| 17> end
| 18> 
| 19> * xyz 0 2
| 20> P    0.000000000000   0.000000000000   0.287900000000
| 21> O    0.000000000000   1.356300000000  -0.269900000000
| 22> O    0.000000000000  -1.356300000000  -0.269900000000
| 23> *
| 24> 
| 25> 
| 26>                          ****END OF INPUT****
================================================================================

                       ****************************
                       * Single Point Calculation *
                       ****************************

---------------------------------
CARTESIAN COORDINATES (ANGSTROEM)
---------------------------------
  P      0.000000    0.000000    0.287900
  O      0.000000    1.356300   -0.269900
  O      0.000000   -1.356300   -0.269900

----------------------------
CARTESIAN COORDINATES (A.U.)
----------------------------
  NO LB      ZA    FRAG     MASS         X           Y           Z
   0 P    15.0000    0    30.974    0.000000    0.000000    0.544052
   1 O     8.0000    0    15.999    0.000000    2.563036   -0.510037
   2 O     8.0000    0    15.999    0.000000   -2.563036   -0.510037

--------------------------------
INTERNAL COORDINATES (ANGSTROEM)
--------------------------------
 P      0   0   0     0.000000000000     0.00000000     0.00000000
 O      1   0   0     1.466523279733     0.00000000     0.00000000
 O      1   2   0     1.466523279733   135.28860674     0.00000000

---------------------------
INTERNAL COORDINATES (A.U.)
---------------------------
 P      0   0   0     0.000000000000     0.00000000     0.00000000
 O      1   0   0     2.771327367716     0.00000000     0.00000000
 O      1   2   0     2.771327367716   135.28860674     0.00000000

---------------------
BASIS SET INFORMATION
---------------------
There are 2 groups of distinct atoms

 Group   1 Type P   : 15s11p2d1f contracted to 5s4p2d1f pattern {83211/7211/11/1}
 Group   2 Type O   : 11s6p2d1f contracted to 4s3p2d1f pattern {7211/411/11/1}

Atom   0P    basis set group =>   1
Atom   1O    basis set group =>   2
Atom   2O    basis set group =>   2


           ************************************************************
           *        Program running with 8 parallel MPI-processes     *
           *              working on a common directory               *
           ************************************************************
------------------------------------------------------------------------------
                             ORCA STARTUP CALCULATIONS
------------------------------------------------------------------------------
------------------------------------------------------------------------------
                   ___                                                        
                  /   \      - P O W E R E D   B Y -                         
                 /     \                                                     
                 |  |  |   _    _      __       _____    __    __             
                 |  |  |  | |  | |    /  \     |  _  \  |  |  /  |          
                  \  \/   | |  | |   /    \    | | | |  |  | /  /          
                 / \  \   | |__| |  /  /\  \   | |_| |  |  |/  /          
                |  |  |   |  __  | /  /__\  \  |    /   |      \           
                |  |  |   | |  | | |   __   |  |    \   |  |\   \          
                \     /   | |  | | |  |  |  |  | |\  \  |  | \   \       
                 \___/    |_|  |_| |__|  |__|  |_| \__\ |__|  \__/        
                                                                              
                      - O R C A' S   B I G   F R I E N D -                    
                                      &                                       
                       - I N T E G R A L  F E E D E R -                       
                                                                              
 v1 FN, 2020, v2 2021, v3 2022-2024                                           
------------------------------------------------------------------------------


----------------------
SHARK INTEGRAL PACKAGE
----------------------

Number of atoms                             ...      3
Number of basis functions                   ...     94
Number of shells                            ...     32
Maximum angular momentum                    ...      3
Integral batch strategy                     ... SHARK/LIBINT Hybrid
RI-J (if used) integral strategy            ... SPLIT-RIJ (Revised 2003 algorithm where possible)
Printlevel                                  ...      1
Contraction scheme used                     ... SEGMENTED contraction
Prescreening option                         ... SCHWARTZ
   Thresh                                   ... 2.500e-11
   Tcut                                     ... 2.500e-12
   Tpresel                                  ... 2.500e-12 
Coulomb Range Separation                    ... NOT USED
Exchange Range Separation                   ... NOT USED
Multipole approximations                    ... NOT USED
Finite Nucleus Model                        ... NOT USED
CABS basis                                  ... NOT available
Auxiliary Coulomb fitting basis             ... NOT available
Auxiliary J/K fitting basis                 ... NOT available
Auxiliary Correlation fitting basis         ... NOT available
Auxiliary 'external' fitting basis          ... NOT available

Checking pre-screening integrals            ... done (  0.0 sec) Dimension = 32
   => SHARK Basis and OBASIS are compatible. Storing Pre-screening
Shell pair information
Shell pair cut-off parameter TPreSel        ...   2.5e-12
Total number of shell pairs                 ...       528
Shell pairs after pre-screening             ...       521
Total number of primitive shell pairs       ...      2525
Primitive shell pairs kept                  ...      2014
          la=0 lb=0:     88 shell pairs
          la=1 lb=0:    128 shell pairs
          la=1 lb=1:     55 shell pairs
          la=2 lb=0:     76 shell pairs
          la=2 lb=1:     60 shell pairs
          la=2 lb=2:     21 shell pairs
          la=3 lb=0:     39 shell pairs
          la=3 lb=1:     30 shell pairs
          la=3 lb=2:     18 shell pairs
          la=3 lb=3:      6 shell pairs

Checking whether 4 symmetric matrices of dimension 94 fit in memory
:Max Core in MB      =   4096.00
 MB in use           =      2.67
 MB left             =   4093.33
 MB needed           =      0.14
 Data fit in memory  = YES
Calculating Nuclear repulsion               ... done (  0.0 sec) ENN=     99.086296046297 Eh

Diagonalization of the overlap matrix:
Smallest eigenvalue                        ... 5.487e-03
Time for diagonalization                   ...    0.001 sec
Threshold for overlap eigenvalues          ... 1.000e-07
Number of eigenvalues below threshold      ... 0
Time for construction of square roots      ...    0.002 sec
Total time needed                          ...    0.004 sec

-------------------
DFT GRID GENERATION
-------------------

General Integration Accuracy     IntAcc      ... 4.388
Radial Grid Type                 RadialGrid  ... OptM3 with GC (2021)
Angular Grid (max. ang.)         AngularGrid ... 4 (Lebedev-302)
Angular grid pruning method      GridPruning ... 4 (adaptive)
Weight generation scheme         WeightScheme... mBecke (2022)
Basis function cutoff            BFCut       ... 1.0000e-11
Integration weight cutoff        WCut        ... 1.0000e-14
Partially contracted basis set               ... off
Rotationally invariant grid construction     ... off
Angular grids for H and He will be reduced by one unit
Diffuse basis detected: some atoms will have their outermost
                        angular grid increased by 1.

Total number of grid points                  ...    20254
Total number of batches                      ...      318
Average number of points per batch           ...       63
Average number of grid points per atom       ...     6751
Grids setup in   0.1 sec
Initializing property integral containers    ... done (  0.0 sec)

SHARK setup successfully completed in   0.1 seconds

Maximum memory used throughout the entire STARTUP-calculation: 16.0 MB


           ************************************************************
           *        Program running with 8 parallel MPI-processes     *
           *              working on a common directory               *
           ************************************************************
-------------------------------------------------------------------------------
                                 ORCA GUESS
                   Start orbitals & Density for SCF / CASSCF
-------------------------------------------------------------------------------

------------
SCF SETTINGS
------------
Hamiltonian:
 Density Functional     Method          .... DFT(GTOs)
  Functional kind                       .... Exchange
  Functional name                       .... Minnesota N12 exchange functional
  Functional family                     .... GGA
  Functional refs                              
    [ 0] R. Peverati and D. G. Truhlar.,  J. Chem. Theory Comput. 8, 2310 (2012), doi: 10.1021/ct3002656
  Functional external parameters        .... 16
    Parameter  0 _CC00      =  1.000000e+00 : _CC00               
    Parameter  1 _CC01      =  5.078800e-01 : _CC01               
    Parameter  2 _CC02      =  1.682330e-01 : _CC02               
    Parameter  3 _CC03      =  1.288870e-01 : _CC03               
    Parameter  4 _CC10      =  8.602110e-02 : _CC10               
    Parameter  5 _CC11      = -1.710080e+01 : _CC11               
    Parameter  6 _CC12      =  6.508140e+01 : _CC12               
    Parameter  7 _CC13      = -7.017260e+01 : _CC13               
    Parameter  8 _CC20      = -3.907550e-01 : _CC20               
    Parameter  9 _CC21      =  5.133920e+01 : _CC21               
    Parameter 10 _CC22      = -1.662200e+02 : _CC22               
    Parameter 11 _CC23      =  1.427380e+02 : _CC23               
    Parameter 12 _CC30      =  4.036110e-01 : _CC30               
    Parameter 13 _CC31      = -3.446310e+01 : _CC31               
    Parameter 14 _CC32      =  7.616610e+01 : _CC32               
    Parameter 15 _CC33      = -2.418340e+00 : _CC33               
 Correlation Functional Correlation     .... No Correlation
 Gradients option       PostSCFGGA      .... off


General Settings:
 Integral files         IntName         .... /cluster/projects/nn14654k/ylvaos/basis_set_n_funcs/functionals/gga_x_N12/PO2/inp/PO2_gga_x_N12_pcseg2
 Hartree-Fock type      HFTyp           .... UHF
 Total Charge           Charge          ....    0
 Multiplicity           Mult            ....    2
 Number of Electrons    NEL             ....   31
 Basis Dimension        Dim             ....   94
 Nuclear Repulsion      ENuc            ....     99.0862960463 Eh

Convergence Acceleration:
 AO-DIIS                CNVDIIS         .... on
   Start iteration      DIISMaxIt       ....    12
   Startup error        DIISStart       ....  0.200000
   # of expansion vecs  DIISMaxEq       ....     5
   Bias factor          DIISBfac        ....   1.050
   Max. coefficient     DIISMaxC        ....  10.000
 MO-DIIS                CNVKDIIS        .... off
 Trust-Rad. Augm. Hess. CNVTRAH         .... auto
   Auto Start mean grad. ratio tolernc. ....  1.125000
   Auto Start start iteration           ....    50
   Auto Start num. interpolation iter.  ....    10
   Max. Number of Micro iterations      ....    24
   Max. Number of Macro iterations      .... Maxiter - #DIIS iter
   Number of Davidson start vectors     ....     2
   Converg. threshold    (grad. norm)   ....   1.000e-05
   Grad. Scal. Fac. for Micro threshold ....   0.100
   Minimum threshold for Micro iter.    ....   1.000e-02
   NR start threshold (gradient norm)   ....   1.000e-04
   Initial trust radius                 ....   0.400
   Minimum AH scaling param. (alpha)    ....   1.000
   Maximum AH scaling param. (alpha)    .... 1000.000
   Quad. conv. algorithm                .... NR
   White noise on init. David. guess    .... on
   Maximum white noise                  ....   0.010
   Pseudo random numbers                .... off
   Inactive MOs                         .... canonical
   Orbital update algorithm             .... Taylor
   Preconditioner                       .... Diag
   Full preconditioner red. dimension   ....   250
 SOSCF                 CNVSOSCF           .... on
   Start iteration     SOSCFMaxIt         ....   150
   Startup grad/error  SOSCFStart         ....  0.003300
   Hessian update      SOSCFHessUp        .... L-BFGS
   Autom. constraints  SOSCFAutoConstrain .... off
 Level Shifting         CNVShift        .... on
   Level shift para.    LevelShift      ....    0.2500
   Turn off err/grad.   ShiftErr        ....    0.0010
 Zerner damping         CNVZerner       .... off
 Static damping         CNVDamp         .... on
   Fraction old density DampFac         ....    0.7000
   Max. Damping (<1)    DampMax         ....    0.9800
   Min. Damping (>=0)   DampMin         ....    0.0000
   Turn off err/grad.   DampErr         ....    0.1000

SCF Procedure:
 Maximum # iterations   MaxIter         ....   125
 SCF integral mode      SCFMode         .... Direct
   Integral package                     .... SHARK and LIBINT hybrid scheme
 Reset frequency        DirectResetFreq ....    20
 Integral Threshold     Thresh          ....  2.500e-11 Eh
 Primitive CutOff       TCut            ....  2.500e-12 Eh

Convergence Tolerance:
 Convergence Check Mode ConvCheckMode   .... Total+1el-Energy
 Convergence forced     ConvForced      .... 0
 Energy Change          TolE            ....  1.000e-08 Eh
 1-El. energy change                    ....  1.000e-05 Eh
 Orbital Gradient       TolG            ....  1.000e-05
 Orbital Rotation angle TolX            ....  1.000e-05
 DIIS Error             TolErr          ....  5.000e-07

------------------------------
INITIAL GUESS: MODEL POTENTIAL
------------------------------
Loading Hartree-Fock densities                     ... done
Calculating cut-offs                               ... done
Initializing the effective Hamiltonian             ... done
Setting up the integral package (SHARK)            ... done
Starting the Coulomb interaction                   ... done (   0.0 sec)
Making the grid                                    ... done (   0.0 sec)
Mapping shells                                     ... done
Starting the XC term evaluation                    ... done (   0.0 sec)
  promolecular density results
     # of electrons  =     31.000270344
     EX              =    -38.233398680
     EC              =      0.000000000
     EX+EC           =    -38.233398680
Transforming the Hamiltonian                       ... done (   0.0 sec)
Diagonalizing the Hamiltonian                      ... done (   0.0 sec)
Back transforming the eigenvectors                 ... done (   0.0 sec)
Now organizing SCF variables                       ... done
                      ------------------
                      INITIAL GUESS DONE (   0.1 sec)
                      ------------------
             **** ENERGY FILE WAS UPDATED (/cluster/projects/nn14654k/ylvaos/basis_set_n_funcs/functionals/gga_x_N12/PO2/inp/PO2_gga_x_N12_pcseg2.en.tmp) ****
Finished Guess after   0.1 sec
Maximum memory used throughout the entire GUESS-calculation: 6.5 MB


           ************************************************************
           *        Program running with 8 parallel MPI-processes     *
           *              working on a common directory               *
           ************************************************************

-------------------------------------------------------------------------------------------
                                      ORCA LEAN-SCF
                              memory conserving SCF solver
-------------------------------------------------------------------------------------------

----------------------------------------D-I-I-S--------------------------------------------
Iteration    Energy (Eh)           Delta-E    RMSDP     MaxDP     DIISErr   Damp  Time(sec)
-------------------------------------------------------------------------------------------
               ***  Starting incremental Fock matrix formation  ***
    1    -489.6049667377905621     0.00e+00  1.06e-02  9.06e-02  1.88e-01  0.700   0.1
Warning: op=1 Small HOMO/LUMO gap (   0.063) - skipping pre-diagonalization
         Will do a full diagonalization
    2    -489.7875476129948424    -1.83e-01  4.00e-03  2.83e-02  4.48e-02  0.700   0.1
                               ***Turning on AO-DIIS***
    3    -489.8234723749348518    -3.59e-02  1.51e-03  1.54e-02  1.62e-02  0.700   0.1
    4    -489.8508042836056688    -2.73e-02  3.35e-03  6.10e-02  2.30e-02  0.000   0.1
    5    -489.9272928210039595    -7.65e-02  1.23e-03  1.65e-02  1.54e-02  0.000   0.1
    6    -489.9294273753426410    -2.13e-03  4.66e-04  5.17e-03  5.78e-03  0.000   0.1
                              *** Initializing SOSCF ***
---------------------------------------S-O-S-C-F--------------------------------------
Iteration    Energy (Eh)           Delta-E    RMSDP     MaxDP     MaxGrad    Time(sec)
--------------------------------------------------------------------------------------
    7    -489.9297139076268763    -2.87e-04  2.22e-04  3.71e-03  2.37e-03     0.1
               *** Restarting incremental Fock matrix formation ***
    8    -489.9297615146123803    -4.76e-05  2.93e-04  2.87e-03  1.58e-03     0.4
    9    -489.9297333808429471     2.81e-05  1.56e-04  1.52e-03  2.57e-03     0.1
   10    -489.9297743769572548    -4.10e-05  4.92e-05  5.64e-04  1.78e-04     0.1
   11    -489.9297749174546084    -5.40e-07  2.05e-05  3.90e-04  9.58e-05     0.1
   12    -489.9297750786816437    -1.61e-07  1.38e-05  2.74e-04  3.00e-05     0.1
   13    -489.9297750971006167    -1.84e-08  2.64e-06  2.34e-05  1.42e-05     0.1
   14    -489.9297751003595636    -3.26e-09  1.70e-06  3.91e-05  3.17e-06     0.1
                 **** Energy Check signals convergence ****

               *****************************************************
               *                     SUCCESS                       *
               *           SCF CONVERGED AFTER  14 CYCLES          *
               *****************************************************

             **** ENERGY FILE WAS UPDATED (/cluster/projects/nn14654k/ylvaos/basis_set_n_funcs/functionals/gga_x_N12/PO2/inp/PO2_gga_x_N12_pcseg2.en.tmp) ****

----------------
TOTAL SCF ENERGY
----------------

Total Energy       :       -489.92977510052793 Eh          -13331.66695 eV

Components:
Nuclear Repulsion  :         99.08629604629714 Eh            2696.27519 eV
Electronic Energy  :       -589.01607114682497 Eh          -16027.94214 eV
One Electron Energy:       -875.87652433638630 Eh          -23833.81191 eV
Two Electron Energy:        286.86045318956127 Eh            7805.86977 eV

Virial components:
Potential Energy   :       -982.03437216795714 Eh          -26722.51381 eV
Kinetic Energy     :        492.10459706742927 Eh           13390.84686 eV
Virial Ratio       :          1.99558056970030

DFT components:
N(Alpha)           :       16.000003539742 electrons
N(Beta)            :       15.000000064843 electrons
N(Total)           :       31.000003604585 electrons
E(X)               :      -38.567005332511 Eh       
E(C)               :        0.000000000000 Eh       
E(XC)              :      -38.567005332511 Eh       

---------------
SCF CONVERGENCE
---------------

  Last Energy change         ...    3.2589e-09  Tolerance :   1.0000e-08
  Last MAX-Density change    ...    3.9095e-05  Tolerance :   1.0000e-07
  Last RMS-Density change    ...    1.6963e-06  Tolerance :   5.0000e-09
  Last DIIS Error            ...    2.3652e-03  Tolerance :   5.0000e-07
  Last Orbital Gradient      ...    3.1742e-06  Tolerance :   1.0000e-05
  Last Orbital Rotation      ...    2.0966e-05  Tolerance :   1.0000e-05


----------------------
UHF SPIN CONTAMINATION
----------------------

Warning: in a DFT calculation there is little theoretical justification to 
         calculate <S**2> as in Hartree-Fock theory. We will do it anyways
         but you should keep in mind that the values have only limited relevance

Expectation value of <S**2>     :     0.755657
Ideal value S*(S+1) for S=0.5   :     0.750000
Deviation                       :     0.005657

----------------
ORBITAL ENERGIES
----------------
                 SPIN UP ORBITALS
  NO   OCC          E(Eh)            E(eV) 
   0   1.0000     -76.225053     -2074.1891 
   1   1.0000     -18.742041      -509.9969 
   2   1.0000     -18.742034      -509.9967 
   3   1.0000      -6.376175      -173.5045 
   4   1.0000      -4.699946      -127.8920 
   5   1.0000      -4.697428      -127.8235 
   6   1.0000      -4.693537      -127.7176 
   7   1.0000      -0.939389       -25.5621 
   8   1.0000      -0.894998       -24.3541 
   9   1.0000      -0.467835       -12.7304 
  10   1.0000      -0.377774       -10.2798 
  11   1.0000      -0.363894        -9.9021 
  12   1.0000      -0.363116        -9.8809 
  13   1.0000      -0.294766        -8.0210 
  14   1.0000      -0.288863        -7.8603 
  15   1.0000      -0.238416        -6.4876 
  16   0.0000      -0.089586        -2.4378 
  17   0.0000       0.009759         0.2656 
  18   0.0000       0.061287         1.6677 
  19   0.0000       0.139803         3.8042 
  20   0.0000       0.149442         4.0665 
  21   0.0000       0.237945         6.4748 
  22   0.0000       0.272998         7.4287 
  23   0.0000       0.324411         8.8277 
  24   0.0000       0.328991         8.9523 
  25   0.0000       0.333294         9.0694 
  26   0.0000       0.364483         9.9181 

                 SPIN DOWN ORBITALS
  NO   OCC          E(Eh)            E(eV) 
   0   1.0000     -76.222069     -2074.1079 
   1   1.0000     -18.730892      -509.6935 
   2   1.0000     -18.730887      -509.6933 
   3   1.0000      -6.373187      -173.4232 
   4   1.0000      -4.696970      -127.8110 
   5   1.0000      -4.691733      -127.6685 
   6   1.0000      -4.691609      -127.6652 
   7   1.0000      -0.921360       -25.0715 
   8   1.0000      -0.876343       -23.8465 
   9   1.0000      -0.436328       -11.8731 
  10   1.0000      -0.351033        -9.5521 
  11   1.0000      -0.350108        -9.5269 
  12   1.0000      -0.341630        -9.2962 
  13   1.0000      -0.287421        -7.8211 
  14   1.0000      -0.273690        -7.4475 
  15   0.0000      -0.171042        -4.6543 
  16   0.0000      -0.059263        -1.6126 
  17   0.0000       0.025998         0.7075 
  18   0.0000       0.074057         2.0152 
  19   0.0000       0.149867         4.0781 
  20   0.0000       0.171250         4.6600 
  21   0.0000       0.248934         6.7738 
  22   0.0000       0.295109         8.0303 
  23   0.0000       0.335359         9.1256 
  24   0.0000       0.336286         9.1508 
  25   0.0000       0.343317         9.3421 
*Only the first 10 virtual orbitals were printed.

                    ********************************
                    * MULLIKEN POPULATION ANALYSIS *
                    ********************************

--------------------------------------------
MULLIKEN ATOMIC CHARGES AND SPIN POPULATIONS
--------------------------------------------
   0 P :    0.809526    0.674112
   1 O :   -0.404763    0.162944
   2 O :   -0.404763    0.162944
Sum of atomic charges         :   -0.0000000
Sum of atomic spin populations:    1.0000000

-----------------------------------------------------
MULLIKEN REDUCED ORBITAL CHARGES AND SPIN POPULATIONS
-----------------------------------------------------
CHARGE
  0 P s       :     5.545397  s :     5.545397
      pz      :     2.823305  p :     8.152695
      px      :     2.727102
      py      :     2.602288
      dz2     :     0.066246  d :     0.451419
      dxz     :     0.010932
      dyz     :     0.136407
      dx2y2   :     0.103710
      dxy     :     0.134125
      f0      :     0.002785  f :     0.040962
      f+1     :     0.000092
      f-1     :     0.013891
      f+2     :     0.006503
      f-2     :     0.005806
      f+3     :     0.006566
      f-3     :     0.005319

  1 O s       :     3.823444  s :     3.823444
      pz      :     1.556407  p :     4.548080
      px      :     1.547055
      py      :     1.444618
      dz2     :     0.004419  d :     0.030664
      dxz     :     0.001389
      dyz     :     0.008694
      dx2y2   :     0.007665
      dxy     :     0.008497
      f0      :     0.000242  f :     0.002575
      f+1     :     0.000009
      f-1     :     0.000544
      f+2     :     0.000540
      f-2     :     0.000247
      f+3     :     0.000493
      f-3     :     0.000501

  2 O s       :     3.823444  s :     3.823444
      pz      :     1.556407  p :     4.548080
      px      :     1.547055
      py      :     1.444618
      dz2     :     0.004419  d :     0.030664
      dxz     :     0.001389
      dyz     :     0.008694
      dx2y2   :     0.007665
      dxy     :     0.008497
      f0      :     0.000242  f :     0.002575
      f+1     :     0.000009
      f-1     :     0.000544
      f+2     :     0.000540
      f-2     :     0.000247
      f+3     :     0.000493
      f-3     :     0.000501


SPIN
  0 P s       :     0.402563  s :     0.402563
      pz      :     0.186950  p :     0.200571
      px      :     0.040392
      py      :    -0.026771
      dz2     :     0.025119  d :     0.075413
      dxz     :    -0.003993
      dyz     :    -0.000327
      dx2y2   :     0.054312
      dxy     :     0.000302
      f0      :    -0.000135  f :    -0.004435
      f+1     :    -0.000065
      f-1     :    -0.001378
      f+2     :    -0.000350
      f-2     :    -0.000343
      f+3     :    -0.001562
      f-3     :    -0.000603

  1 O s       :    -0.025280  s :    -0.025280
      pz      :     0.166002  p :     0.187844
      px      :    -0.017629
      py      :     0.039470
      dz2     :     0.000003  d :     0.000033
      dxz     :     0.000026
      dyz     :    -0.000250
      dx2y2   :     0.000136
      dxy     :     0.000118
      f0      :     0.000011  f :     0.000347
      f+1     :    -0.000006
      f-1     :     0.000064
      f+2     :     0.000081
      f-2     :     0.000066
      f+3     :     0.000059
      f-3     :     0.000072

  2 O s       :    -0.025280  s :    -0.025280
      pz      :     0.166002  p :     0.187844
      px      :    -0.017629
      py      :     0.039470
      dz2     :     0.000003  d :     0.000033
      dxz     :     0.000026
      dyz     :    -0.000250
      dx2y2   :     0.000136
      dxy     :     0.000118
      f0      :     0.000011  f :     0.000347
      f+1     :    -0.000006
      f-1     :     0.000064
      f+2     :     0.000081
      f-2     :     0.000066
      f+3     :     0.000059
      f-3     :     0.000072



                     *******************************
                     * LOEWDIN POPULATION ANALYSIS *
                     *******************************

-------------------------------------------
LOEWDIN ATOMIC CHARGES AND SPIN POPULATIONS
-------------------------------------------
   0 P :    0.908011    0.584879
   1 O :   -0.454005    0.207560
   2 O :   -0.454005    0.207560

----------------------------------------------------
LOEWDIN REDUCED ORBITAL CHARGES AND SPIN POPULATIONS
----------------------------------------------------
CHARGE
  0 P s       :     4.975055  s :     4.975055
      pz      :     2.880165  p :     8.319889
      px      :     2.695139
      py      :     2.744585
      dz2     :     0.091111  d :     0.666035
      dxz     :     0.011352
      dyz     :     0.206528
      dx2y2   :     0.190986
      dxy     :     0.166059
      f0      :     0.010635  f :     0.131010
      f+1     :     0.000158
      f-1     :     0.038564
      f+2     :     0.024201
      f-2     :     0.016571
      f+3     :     0.016521
      f-3     :     0.024361

  1 O s       :     3.678097  s :     3.678097
      pz      :     1.585345  p :     4.717596
      px      :     1.534592
      py      :     1.597659
      dz2     :     0.005862  d :     0.052492
      dxz     :     0.001552
      dyz     :     0.018487
      dx2y2   :     0.016789
      dxy     :     0.009803
      f0      :     0.000756  f :     0.005821
      f+1     :     0.000022
      f-1     :     0.000869
      f+2     :     0.001623
      f-2     :     0.000342
      f+3     :     0.000789
      f-3     :     0.001420

  2 O s       :     3.678097  s :     3.678097
      pz      :     1.585345  p :     4.717596
      px      :     1.534592
      py      :     1.597659
      dz2     :     0.005862  d :     0.052492
      dxz     :     0.001552
      dyz     :     0.018487
      dx2y2   :     0.016789
      dxy     :     0.009803
      f0      :     0.000756  f :     0.005821
      f+1     :     0.000022
      f-1     :     0.000869
      f+2     :     0.001623
      f-2     :     0.000342
      f+3     :     0.000789
      f-3     :     0.001420


SPIN
  0 P s       :     0.212484  s :     0.212484
      pz      :     0.217929  p :     0.236235
      px      :     0.033216
      py      :    -0.014911
      dz2     :     0.044931  d :     0.137473
      dxz     :    -0.003492
      dyz     :    -0.001184
      dx2y2   :     0.097317
      dxy     :    -0.000100
      f0      :     0.000609  f :    -0.001313
      f+1     :    -0.000056
      f-1     :    -0.000637
      f+2     :     0.000068
      f-2     :    -0.000313
      f+3     :    -0.001646
      f-3     :     0.000661

  1 O s       :     0.019075  s :     0.019075
      pz      :     0.157378  p :     0.187232
      px      :    -0.014272
      py      :     0.044126
      dz2     :     0.000127  d :     0.001025
      dxz     :     0.000088
      dyz     :     0.000642
      dx2y2   :    -0.000116
      dxy     :     0.000285
      f0      :    -0.000012  f :     0.000229
      f+1     :    -0.000004
      f-1     :     0.000080
      f+2     :     0.000023
      f-2     :     0.000057
      f+3     :     0.000042
      f-3     :     0.000042

  2 O s       :     0.019075  s :     0.019075
      pz      :     0.157378  p :     0.187232
      px      :    -0.014272
      py      :     0.044126
      dz2     :     0.000127  d :     0.001025
      dxz     :     0.000088
      dyz     :     0.000642
      dx2y2   :    -0.000116
      dxy     :     0.000285
      f0      :    -0.000012  f :     0.000229
      f+1     :    -0.000004
      f-1     :     0.000080
      f+2     :     0.000023
      f-2     :     0.000057
      f+3     :     0.000042
      f-3     :     0.000042



                      *****************************
                      * MAYER POPULATION ANALYSIS *
                      *****************************

  NA   - Mulliken gross atomic population
  ZA   - Total nuclear charge
  QA   - Mulliken gross atomic charge
  VA   - Mayer's total valence
  BVA  - Mayer's bonded valence
  FA   - Mayer's free valence

  ATOM       NA         ZA         QA         VA         BVA        FA
  0 P     14.1905    15.0000     0.8095     4.2463     3.7572     0.4892
  1 O      8.4048     8.0000    -0.4048     2.0232     1.9854     0.0378
  2 O      8.4048     8.0000    -0.4048     2.0232     1.9854     0.0378

  Mayer bond orders larger than 0.100000
B(  0-P ,  1-O ) :   1.8786 B(  0-P ,  2-O ) :   1.8786 B(  1-O ,  2-O ) :   0.1068 


-------
TIMINGS
-------

Total SCF time: 0 days 0 hours 0 min 2 sec 

Total time                  ....       2.179 sec
Sum of individual times     ....       2.064 sec  ( 94.7%)

SCF preparation             ....       0.068 sec  (  3.1%)
Fock matrix formation       ....       1.583 sec  ( 72.6%)
  Startup                   ....       0.018 sec  (  1.1% of F)
  Coulomb formation         ....       0.646 sec  ( 40.8% of F)
  XC integration            ....       0.413 sec  ( 26.1% of F)
    XC Preparation          ....       0.000 sec  (  0.0% of XC)
    Basis function eval.    ....       0.033 sec  (  8.1% of XC)
    Density eval.           ....       0.030 sec  (  7.2% of XC)
    XC-Functional eval.     ....       0.013 sec  (  3.2% of XC)
    XC-Potential eval.      ....       0.072 sec  ( 17.4% of XC)
Diagonalization             ....       0.000 sec  (  0.0%)
Density matrix formation    ....       0.124 sec  (  5.7%)
Total Energy calculation    ....       0.027 sec  (  1.3%)
Population analysis         ....       0.012 sec  (  0.5%)
Orbital Transformation      ....       0.030 sec  (  1.4%)
Orbital Orthonormalization  ....       0.000 sec  (  0.0%)
DIIS solution               ....       0.082 sec  (  3.8%)
SOSCF solution              ....       0.138 sec  (  6.3%)
Finished LeanSCF after   2.2 sec

Maximum memory used throughout the entire LEANSCF-calculation: 15.7 MB


           ************************************************************
           *        Program running with 8 parallel MPI-processes     *
           *              working on a common directory               *
           ************************************************************

------------------------------------------------------------------------------
                         ORCA PROPERTY INTEGRAL CALCULATIONS
------------------------------------------------------------------------------

GBWName                                   ... /cluster/projects/nn14654k/ylvaos/basis_set_n_funcs/functionals/gga_x_N12/PO2/inp/PO2_gga_x_N12_pcseg2.gbw
Number of atoms                           ...      3
Number of basis functions                 ...     94
Max core memory                           ...   4096 MB

Dipole integrals                          ... YES
Quadrupole integrals                      ... YES
Linear momentum integrals                 ...  NO
Angular momentum integrals                ...  NO
Higher moments length integrals           ...  NO
Higher moments velocity integrals         ...  NO
Kinetic energy integrals                  ...  NO
GIAO right hand sides                     ...  NO
GIAO dipole derivative integrals          ...  NO
SOC integrals                             ...  NO
EPR diamagnetic integrals (GIAO)          ...  NO
EPR gauge integrals                       ...  NO
Field gradient integrals                  ...  NO (   0 nuclei)
Spin-dipole/Fermi contact integrals       ...  NO (   0 nuclei)
Contact density integrals                 ...  NO (   0 nuclei)
Nucleus-orbit integrals                   ...  NO (   0 nuclei)
Geometric perturbations                   ...  NO (   3 nuclei)

Choice of electric origin   ... Center of mass
Position of electric origin ... (  0.0000,  0.0000,  0.0084) 
Choice of magnetic origin   ... GIAO
Position of magnetic origin ... (  0.0000,  0.0000,  0.0000) 

Calculating integrals                     ... Electric Dipole (Length)     done (  0.0 sec)
Calculating integrals                     ... Electric Quadrupole (Length) done (  0.0 sec)

Property integrals calculated in   0.0 sec

Maximum memory used throughout the entire PROPINT-calculation: 6.8 MB
------------------------------------------------------------------------------
                           ORCA ORBITAL LOCALIZATION
------------------------------------------------------------------------------

Input orbitals are from                  ... /cluster/projects/nn14654k/ylvaos/basis_set_n_funcs/functionals/gga_x_N12/PO2/inp/PO2_gga_x_N12_pcseg2.gbw
Output orbitals are to                   ... /cluster/projects/nn14654k/ylvaos/basis_set_n_funcs/functionals/gga_x_N12/PO2/inp/PO2_gga_x_N12_pcseg2.loc
Max. number of iterations                ... 128
Localizations seeded randomly            ... on
Convergence tolerance                    ... 1.000e-06
Threshold for strong local MOs           ... 9.500e-01
Threshold for bond MOs                   ... 8.500e-01
Operator                                 ... 0
Orbital range for localization           ... 4 to 15
Localization criterion                   ... NEW-BOYS
Doing the dipole integrals               ... o.k.
Initial value of the localization sum :    31.793319
ITERATION   0 : L=   48.1425174009 DL=  1.63e+01 (AVERGE_DL)=    0.4977098775 
ITERATION   1 : L=   50.1078772755 DL=  1.97e+00 (AVERGE_DL)=    0.1725635533 
ITERATION   2 : L=   50.3591530719 DL=  2.51e-01 (AVERGE_DL)=    0.0617025853 
ITERATION   3 : L=   50.3992546578 DL=  4.01e-02 (AVERGE_DL)=    0.0246495393 
ITERATION   4 : L=   50.4069745089 DL=  7.72e-03 (AVERGE_DL)=    0.0108151487 
ITERATION   5 : L=   50.4086433707 DL=  1.67e-03 (AVERGE_DL)=    0.0050284974 
ITERATION   6 : L=   50.4090263345 DL=  3.83e-04 (AVERGE_DL)=    0.0024088338 
ITERATION   7 : L=   50.4091142495 DL=  8.79e-05 (AVERGE_DL)=    0.0011541429 
ITERATION   8 : L=   50.4091341088 DL=  1.99e-05 (AVERGE_DL)=    0.0005485419 
ITERATION   9 : L=   50.4091384846 DL=  4.38e-06 (AVERGE_DL)=    0.0002574893 
ITERATION  10 : L=   50.4091394225 DL=  9.38e-07 (AVERGE_DL)=    0.0001192057 
LOCALIZATION SUM CONVERGED


--------------------------------------------------------------------------------
                    LOCALIZED MOLECULAR ORBITAL COMPOSITIONS
--------------------------------------------------------------------------------

The Mulliken populations for each LMO on each atom are computed
The LMO`s will be ordered according to atom index and type
  (A) Strongly localized MO`s have populations of >=0.950 on one atom
  (B) Two center bond orbitals have populations of >=0.850 on two atoms
  (C) Other MO`s are considered to be `delocalized`

FOUND  -   6 strongly local MO`s
       -   6 two center bond MO`s
       -   0 significantly delocalized MO`s

Rather strongly localized orbitals:
MO   9:   2O  -   0.966953
MO   8:   1O  -   0.966955
MO   7:   0P  -   1.129327
MO   6:   0P  -   1.000288
MO   5:   0P  -   0.998987
MO   4:   0P  -   1.000288
Bond-like localized orbitals:
MO  15:   2O  -   0.746165  and   0P  -   0.255566
MO  14:   2O  -   0.897322  and   0P  -   0.107534
MO  13:   2O  -   0.746149  and   0P  -   0.255577
MO  12:   1O  -   0.897317  and   0P  -   0.107538
MO  11:   1O  -   0.746154  and   0P  -   0.255573
MO  10:   1O  -   0.746163  and   0P  -   0.255568
Localized MO's were stored in: /cluster/projects/nn14654k/ylvaos/basis_set_n_funcs/functionals/gga_x_N12/PO2/inp/PO2_gga_x_N12_pcseg2.loc
------------------------------------------------------------------------------
                           ORCA ORBITAL LOCALIZATION
------------------------------------------------------------------------------

Input orbitals are from                  ... /cluster/projects/nn14654k/ylvaos/basis_set_n_funcs/functionals/gga_x_N12/PO2/inp/PO2_gga_x_N12_pcseg2.loc
Output orbitals are to                   ... /cluster/projects/nn14654k/ylvaos/basis_set_n_funcs/functionals/gga_x_N12/PO2/inp/PO2_gga_x_N12_pcseg2.loc
Max. number of iterations                ... 128
Localizations seeded randomly            ... on
Convergence tolerance                    ... 1.000e-06
Threshold for strong local MOs           ... 9.500e-01
Threshold for bond MOs                   ... 8.500e-01
Operator                                 ... 1
Orbital range for localization           ... 4 to 14
Localization criterion                   ... NEW-BOYS
Doing the dipole integrals               ... o.k.
Initial value of the localization sum :    29.020658
ITERATION   0 : L=   39.2518154566 DL=  1.02e+01 (AVERGE_DL)=    0.4313015764 
ITERATION   1 : L=   42.9403313746 DL=  3.69e+00 (AVERGE_DL)=    0.2589670361 
ITERATION   2 : L=   43.2879155278 DL=  3.48e-01 (AVERGE_DL)=    0.0794966155 
ITERATION   3 : L=   43.3692679275 DL=  8.14e-02 (AVERGE_DL)=    0.0384595182 
ITERATION   4 : L=   43.3765509156 DL=  7.28e-03 (AVERGE_DL)=    0.0115073005 
ITERATION   5 : L=   43.3789178029 DL=  2.37e-03 (AVERGE_DL)=    0.0065600544 
ITERATION   6 : L=   43.3804997766 DL=  1.58e-03 (AVERGE_DL)=    0.0053631296 
ITERATION   7 : L=   43.3816974163 DL=  1.20e-03 (AVERGE_DL)=    0.0046663977 
ITERATION   8 : L=   43.3826171528 DL=  9.20e-04 (AVERGE_DL)=    0.0040893130 
ITERATION   9 : L=   43.3833200644 DL=  7.03e-04 (AVERGE_DL)=    0.0035749422 
ITERATION  10 : L=   43.3838538813 DL=  5.34e-04 (AVERGE_DL)=    0.0031154071 
ITERATION  11 : L=   43.3842571666 DL=  4.03e-04 (AVERGE_DL)=    0.0027078515 
ITERATION  12 : L=   43.3845607066 DL=  3.04e-04 (AVERGE_DL)=    0.0023492360 
ITERATION  13 : L=   43.3847885852 DL=  2.28e-04 (AVERGE_DL)=    0.0020354970 
ITERATION  14 : L=   43.3849593837 DL=  1.71e-04 (AVERGE_DL)=    0.0017622219 
ITERATION  15 : L=   43.3850872716 DL=  1.28e-04 (AVERGE_DL)=    0.0015248723 
ITERATION  16 : L=   43.3851829807 DL=  9.57e-05 (AVERGE_DL)=    0.0013191529 
ITERATION  17 : L=   43.3852545956 DL=  7.16e-05 (AVERGE_DL)=    0.0011410912 
ITERATION  18 : L=   43.3853081829 DL=  5.36e-05 (AVERGE_DL)=    0.0009870738 
ITERATION  19 : L=   43.3853482915 DL=  4.01e-05 (AVERGE_DL)=    0.0008539602 
ITERATION  20 : L=   43.3853783194 DL=  3.00e-05 (AVERGE_DL)=    0.0007388927 
ITERATION  21 : L=   43.3854008126 DL=  2.25e-05 (AVERGE_DL)=    0.0006395042 
ITERATION  22 : L=   43.3854176665 DL=  1.69e-05 (AVERGE_DL)=    0.0005535652 
ITERATION  23 : L=   43.3854303034 DL=  1.26e-05 (AVERGE_DL)=    0.0004793361 
ITERATION  24 : L=   43.3854397825 DL=  9.48e-06 (AVERGE_DL)=    0.0004151467 
ITERATION  25 : L=   43.3854468960 DL=  7.11e-06 (AVERGE_DL)=    0.0003596341 
ITERATION  26 : L=   43.3854522380 DL=  5.34e-06 (AVERGE_DL)=    0.0003116531 
ITERATION  27 : L=   43.3854562507 DL=  4.01e-06 (AVERGE_DL)=    0.0002701074 
ITERATION  28 : L=   43.3854592675 DL=  3.02e-06 (AVERGE_DL)=    0.0002342034 
ITERATION  29 : L=   43.3854615363 DL=  2.27e-06 (AVERGE_DL)=    0.0002031033 
ITERATION  30 : L=   43.3854632435 DL=  1.71e-06 (AVERGE_DL)=    0.0001761806 
ITERATION  31 : L=   43.3854645285 DL=  1.29e-06 (AVERGE_DL)=    0.0001528523 
ITERATION  32 : L=   43.3854654962 DL=  9.68e-07 (AVERGE_DL)=    0.0001326399 
LOCALIZATION SUM CONVERGED


--------------------------------------------------------------------------------
                    LOCALIZED MOLECULAR ORBITAL COMPOSITIONS
--------------------------------------------------------------------------------

The Mulliken populations for each LMO on each atom are computed
The LMO`s will be ordered according to atom index and type
  (A) Strongly localized MO`s have populations of >=0.950 on one atom
  (B) Two center bond orbitals have populations of >=0.850 on two atoms
  (C) Other MO`s are considered to be `delocalized`

FOUND  -   5 strongly local MO`s
       -   6 two center bond MO`s
       -   0 significantly delocalized MO`s

Rather strongly localized orbitals:
MO   8:   2O  -   0.961391
MO   7:   1O  -   0.961398
MO   6:   0P  -   0.999601
MO   5:   0P  -   1.000141
MO   4:   0P  -   0.999600
Bond-like localized orbitals:
MO  14:   2O  -   0.574157  and   0P  -   0.417632
MO  13:   2O  -   0.791313  and   0P  -   0.211528
MO  12:   2O  -   0.791047  and   0P  -   0.211793
MO  11:   1O  -   0.574153  and   0P  -   0.417637
MO  10:   1O  -   0.790826  and   0P  -   0.212002
MO   9:   1O  -   0.791533  and   0P  -   0.211319
Localized MO's were stored in: /cluster/projects/nn14654k/ylvaos/basis_set_n_funcs/functionals/gga_x_N12/PO2/inp/PO2_gga_x_N12_pcseg2.loc

-------------------------   --------------------
FINAL SINGLE POINT ENERGY      -489.929775100528
-------------------------   --------------------



           ************************************************************
           *        Program running with 8 parallel MPI-processes     *
           *              working on a common directory               *
           ************************************************************

------------------------------------------------------------------------------
                              ORCA PROPERTY CALCULATIONS
------------------------------------------------------------------------------

GBWName                                 ... /cluster/projects/nn14654k/ylvaos/basis_set_n_funcs/functionals/gga_x_N12/PO2/inp/PO2_gga_x_N12_pcseg2.gbw
Number of atoms                         ...      3
Number of basis functions               ...     94
Max core memory                         ...   4096 MB

Electric properties:
Dipole moment                           ... YES
Quadrupole moment                       ... YES
Static polarizability (Dipole/Dipole)   ...  NO
Static polarizability (Dipole/Quad.)    ...  NO
Static polarizability (Quad./Quad.)     ...  NO
Static polarizability (Velocity)        ...  NO
Static hyperpolarizability              ...  NO

Atomic electric properties:
Dipole moment                           ...  NO
Quadrupole moment                       ...  NO
Static polarizability                   ...  NO

Choice of electric origin               ... Center of mass
Position of electric origin             ...     0.000000     0.000000     0.008437

General magnetic properties:
Magnetizability                         ...  NO

EPR properties:
g-Tensor (aka g-matrix)                 ...  NO
Zero-Field splitting spin-orbit         ...  NO
Zero-field splitting spin-spin          ...  NO
Hyperfine couplings                     ...  NO (   0 nuclei)
Quadrupole couplings                    ...  NO (   0 nuclei)
Contact density                         ...  NO (   0 nuclei)

NMR properties:
Chemical shifts                         ...  NO (   0 nuclei)
Spin-rotation constants                 ...  NO (   0 nuclei)
Spin-spin couplings                     ...  NO (   0 nuclei,    0 pairs)

Choice of magnetic origin               ... GIAO
Position of magnetic origin             ...     0.000000     0.000000     0.000000

Properties with geometric perturbations:
SCF Hessian                             ...  NO
IR spectrum                             ...  NO
VCD spectrum                            ...  NO
X-ray spectroscopy properties:
SCF XES/XAS/RIXS spectra                ...  NO

SCF SOC stabilization energy            ...  NO
Diagonal Born-Oppenheimer correction    ...  NO

-------------
DIPOLE MOMENT
-------------

Method             : SCF
Type of density    : Electron Density
Multiplicity       :   2
Irrep              :   0
Energy             :  -489.9297751005279338 Eh
Basis              : AO
                                X                 Y                 Z
Electronic contribution:      0.000000000      -0.000000001       0.815478098
Nuclear contribution   :      0.000000000       0.000000000      -0.261362976
                        -----------------------------------------
Total Dipole Moment    :      0.000000000      -0.000000001       0.554115121
                        -----------------------------------------
Magnitude (a.u.)       :      0.554115121
Magnitude (Debye)      :      1.408448707



--------------------
Rotational spectrum 
--------------------
 
Rotational constants in cm-1:             3.442444             0.286393             0.264396 
Rotational constants in MHz :        103201.869580          8585.841533          7926.407020 

Dipole components along the rotational axes: 
x,y,z [a.u.] :    -0.000000     0.554115     0.000000 
x,y,z [Debye]:    -0.000000     1.408449     0.000000 

 

Dipole moment calculation done in   0.0 sec 

-----------------
QUADRUPOLE MOMENT
-----------------

Method             : SCF
Type of density    : Electron Density
Multiplicity       :   2
Irrep              :   0
Energy             :  -489.9297751005279338 Eh
Basis              : AO

                XX              YY              ZZ              XY              XZ              YZ
  NUC        0.000000000   105.106420135     8.604299986     0.000000000     0.000000000     0.000000000
  EL       -15.661528428  -126.733793830   -24.985296259     0.000000000     0.000000000     0.000000001
  TOT      -15.661528428   -21.627373695   -16.380996273     0.000000000     0.000000000     0.000000001 (a.u.)
           -21.065291360   -29.089557276   -22.033000218     0.000000000     0.000000000     0.000000002 (Buckingham)

diagonalized tensor:
           -21.627373695   -16.380996273   -15.661528428 (a.u.)
           -29.089557276   -22.033000218   -21.065291360 (Buckingham)
           -15.080822975     6.088848202     8.991974774 (traceless form in Buckingham)

            -0.000000000     0.000000000     1.000000000
             1.000000000    -0.000000000     0.000000000
            -0.000000000    -1.000000000     0.000000000
        
Isotropic quadrupole :   -17.889966132

Quadrupole moment calculation done in   0.0 sec (  0.0 sec for integrals)

Maximum memory used throughout the entire PROP-calculation: 3.3 MB

--------------------------------
SUGGESTED CITATIONS FOR THIS RUN
--------------------------------

Below you find a list of papers that are relevant to this ORCA run
We neither can nor want to force you to cite these papers, but we appreciate if you do
You receive ORCA, which is the product of decades of hard work by many enthusiastic individuals, for free
The only thing we kindly ask in return is that you cite our papers,
We deeply appreciate it, if you show your appreciation for ORCA by not just citing the generic ORCA reference.

Please note that relegating all ORCA citations to the supporting information does *not* help us.
SI sections are not indexed - citations you put there will not count into any citation statistics
But we need these citations in order to attract the funding resources that allow us to do what we are doing

Therefore, if you are a happy ORCA user, please consider citing a few of the papers listed below in the main body of your paper

In addition to the list printed below, the program has created the file /cluster/projects/nn14654k/ylvaos/basis_set_n_funcs/functionals/gga_x_N12/PO2/inp/PO2_gga_x_N12_pcseg2.bibtex that contains the list in bibtex format
You can import this file easily into all common literature databanks and citation aid programs

It goes without saying that in many instances, there are alternative algorithms to achieve similar
results as the ones you have gotten from ORCA. It is, of course, also the case that in some instances
ORCA just re-implements algorithms worked out by others. We are fully aware of that and we are also
fully appreciative of our colleagues work. Hence this citation list should not be read as indicating
that the listed papers, which are focused on our own work, are the only ones worth citing. It simply
meant to make it easier for users to cite ORCA specific papers. It is not a substitute for doing your
own literature research and citing the relevant literature in a scientifically appropriate manner.

List of essential papers. We consider these as the minimum necessary citations

  1. Neese, F.
     Software update: the ORCA program system, version 6.0
     WIRES Comput. Molec. Sci. 2025 15(1), e70019
     doi.org/10.1002/wcms.70019

List of papers to cite with high priority. The work reported in these papers was absolutely
necessary for this run to complete.
Our perspective: the developers of density functionals and basis sets usually get cited in chemistry papers
Good! But without the algorithms to do something with them, the functionals or basis sets would not do anything.
Hence, in our opinion, the algorithm design and method developments papers are equally worthy of getting cited

  1. Lehtola, S.; Steigemann, C.; Oliveira, M.; Marques, M.
     Recent developments in Libxc - A comprehensive library of functionals for density functional theory
     Software X 2018 7 , 
     doi.org/10.1016/j.softx.2017.11.002
  2. Neese, F.
     The SHARK Integral Generation and Digestion System
     J. Comp. Chem. 2022 44(3), 381
     doi.org/10.1002/jcc.26942

List of suggested additional citations. These are papers that are important in the 'surrounding' of 
of this run, or papers that preceded the highly important papers. If you like your results we are grateful for a citation.

  1. Neese, F.
     The ORCA program system
     WIRES Comput. Molec. Sci. 2012 2(1), 73-78
     doi.org/10.1002/wcms.81
  2. Neese, F.
     Software update: the ORCA program system, version 4.0
     WIRES Comput. Molec. Sci. 2018 8(1), 1-6
     doi.org/10.1002/wcms.1327
  3. Neese, F.; Wennmohs, F.; Becker, U.; Riplinger, C.
     The ORCA quantum chemistry program package
     J. Chem. Phys. 2020 152(22), 224108
     doi.org/10.1063/5.0004608
  4. Neese, F.
     Software update: The ORCA program system—Version 5.0
     WIRES Comput. Molec. Sci. 2022 12(1), e1606
     doi.org/10.1002/wcms.1606

List of optional additional citations

  1. Neese, F.
     Approximate second-order SCF convergence for spin unrestricted wavefunctions
     Chem. Phys. Lett. 2000 325(1-3), 93-98
     doi.org/10.1016/s0009-2614(00)00662-x

Timings for individual modules:

Sum of individual times          ...        3.717 sec (=   0.062 min)
Startup calculation              ...        0.409 sec (=   0.007 min)  11.0 %
SCF iterations                   ...        2.764 sec (=   0.046 min)  74.4 %
Property integrals               ...        0.248 sec (=   0.004 min)   6.7 %
Property calculations            ...        0.246 sec (=   0.004 min)   6.6 %
Orbital localization             ...        0.049 sec (=   0.001 min)   1.3 %
                             ****ORCA TERMINATED NORMALLY****
TOTAL RUN TIME: 0 days 0 hours 0 minutes 4 seconds 426 msec
