
                                 *****************
                                 * O   R   C   A *
                                 *****************

                                            #,                                       
                                            ###                                      
                                            ####                                     
                                            #####                                    
                                            ######                                   
                                           ########,                                 
                                     ,,################,,,,,                         
                               ,,#################################,,                 
                          ,,##########################################,,             
                       ,#########################################, ''#####,          
                    ,#############################################,,   '####,        
                  ,##################################################,,,,####,       
                ,###########''''           ''''###############################       
              ,#####''   ,,,,##########,,,,          '''####'''          '####       
            ,##' ,,,,###########################,,,                        '##       
           ' ,,###''''                  '''############,,,                           
         ,,##''                                '''############,,,,        ,,,,,,###''
      ,#''                                            '''#######################'''  
     '                                                          ''''####''''         
             ,#######,   #######,   ,#######,      ##                                
            ,#'     '#,  ##    ##  ,#'     '#,    #''#        ,####,    ,#,          
            ##       ##  ##   ,#'  ##            #'  '#       #'       ,# #          
            ##       ##  #######   ##           ,######,      #####,      #          
            '#,     ,#'  ##    ##  '#,     ,#' ,#      #,     #,   #      #          
             '#######'   ##     ##  '#######'  #'      '#     '####' #    #          



                #########################################################
                #                        -***-                          #
                #          Department of theory and spectroscopy        #
                #                                                       #
                #                      Frank Neese                      #
                #                                                       #
                #     Directorship, Architecture, Infrastructure        #
                #                    SHARK, DRIVERS                     #
                #        Core code/Algorithms in most modules           #
                #                                                       #
                #        Max Planck Institute fuer Kohlenforschung      #
                #                Kaiser Wilhelm Platz 1                 #
                #                 D-45470 Muelheim/Ruhr                 #
                #                      Germany                          #
                #                                                       #
                #                  All rights reserved                  #
                #                        -***-                          #
                #########################################################


                         Program Version 6.1.1  -  RELEASE   -
                                (GIT: $487d211c$)
                          ($2025-11-21 10:33:24 +0100$)


 With contributions from (in alphabetic order):
[Max-Planck-Institut fuer Kohlenforschung]                               
  Daniel Aravena         : Magnetic Suceptibility                        
  Michael Atanasov       : Ab Initio Ligand Field Theory (pilot matlab implementation)
  Alexander A. Auer      : GIAO ZORA, VPT2 properties, NMR spectrum      
  Ute Becker             : All parallelization in ORCA, NUMFREQ, NUMCALC 
  Giovanni Bistoni       : ED, misc. LED, open-shell LED, HFLD           
  Dmytro Bykov           : pre 5.0 version of the SCF Hessian            
  Marcos Casanova-Páez   : Triplet and SCS-CIS(D). UHF-(DLPNO)-IP/EA/STEOM-CCSD. UHF-CVS-IP/STEOM-CCSD   
  Vijay G. Chilkuri      : MRCI spin determinant printing, contributions to CSF-ICE 
  Pauline Colinet        : FMM embedding                                 
  Dipayan Datta          : RHF DLPNO-CCSD density                        
  Achintya Kumar Dutta   : EOM-CC, STEOM-CC                              
  Nicolas Foglia         : Exact transition moments, OPA infrastructure, MCD improvements    
  Dmitry Ganyushin       : Spin-Orbit,Spin-Spin,Magnetic field MRCI      
  Miquel Garcia-Rates    : C-PCM and meta-GGA Hessian, CCSD/C-PCM, Gaussian charge scheme 
  Tiago L. C. Gouveia    : GS-ROHF, GS-ROCIS                             
  Yang Guo               : DLPNO-NEVPT2, F12-NEVPT2, CIM, IAO-localization        
  Andreas Hansen         : Spin unrestricted coupled pair/coupled cluster methods 
  Ingolf Harden          : AUTO-CI MPn and infrastructure                
  Benjamin Helmich-Paris : MC-RPA, TRAH-(SCF,CASSCF), AVAS, COSX integrals, SCF dyn. polar., MC-PDFT, srDFT 
  Lee Huntington         : MR-EOM, pCC                                   
  Robert Izsak           : Overlap fitted RIJCOSX, COSX-SCS-MP3, EOM     
  Riya Kayal             : Wick's Theorem for AUTO-CI, AUTO-CI UHF-CCSDT 
  Emily Kempfer          : AUTO-CI RHF CISDT and CCSDT, approximate NEVPT4
  Christian Kollmar      : KDIIS, OOCD, Brueckner-CCSD(T), CCSD density, CASPT2, CASPT2-K, improved NEVPT2 
  Axel Koslowski         : Symmetry handling                             
  Simone Kossmann        : meta-GGA functionals, TD-DFT gradient, OOMP2, (MP2 Hessian; deprecated post 5.0) 
  Lucas Lang             : DCDCAS, Hyperfine gauge corrections, ICE-SOC+SSC
  Marvin Lechner         : AUTO-CI (C++ implementation), FIC-MRCC        
  Spencer Leger          : CASSCF response                               
  Dagmar Lenk            : GEPOL surface, SMD, ORCA-2-JSON               
  Dimitrios Liakos       : Extrapolation schemes; Compound Job, Property file
  Dimitrios Manganas     : Further ROCIS development; embedding schemes. LFT, Crystal Embedding 
  Dimitrios Pantazis     : SARC Basis sets                               
  Anastasios Papadopoulos: AUTO-CI, single reference methods and gradients 
  Taras Petrenko         : pre 6.0 DFT Hessian and TD-DFT gradient,  ECA, NRVS 
  Petra Pikulova         : Analytic Raman intensities                    
  Peter Pinski           : DLPNO-MP2, DLPNO-MP2 Gradient                 
  Shashank Vittal Rao    : ES-AILFT, MagRelax                            
  Christoph Reimann      : Effective Core Potentials                     
  Marius Retegan         : Local ZFS, SOC                                
  Christoph Riplinger    : Optimizer, TS searches, QM/MM, DLPNO-CCSD(T), (RO)-DLPNO pert. Triples 
  Michael Roemelt        : Original ROCIS implementation, recursive CI coupling coefficients
  Masaaki Saitow         : Open-shell DLPNO-CCSD energy and density      
  Barbara Sandhoefer     : DKH picture change effects                    
  Yorick L. A. Schmerwitz: GMF and freeze-and-release deltaSCF, NEB S-IDPP initial path                    
  Kantharuban Sivalingam : CASSCF convergence/infrastructure, NEVPT2, NEVPT3, NEVPT4(SD), FIC-MRCI and CEPA variants
  Bernardo de Souza      : ESD, SOC TD-DFT                               
  Georgi L. Stoychev     : AutoAux, RI-MP2 NMR, DLPNO-MP2 response, X2C  
  Van Anh Tran           : RI-MP2 g-tensors                              
  Willem Van den Heuvel  : Paramagnetic NMR                              
  Zikuan Wang            : NOTCH, Electric field optimization            
  Frank Wennmohs         : Technical directorship and infrastructure     
  Hang Xu                : AUTO-CI-Response properties                   
                                                                         
[FACCTs GmbH]                                                            
  Markus Bursch, Nicolas Foglia, Miquel Garcia-Rates, Ingolf Harden, Hagen Neugebauer, Anastasios Papadopoulos, 
  Christoph Riplinger, Bernardo de Souza, Georgi L. Stoychev                                                    
                                                                 
  APM, various basis sets, CI-OPT, improved COSX, DLPNO-Multilevel,           
  DOCKER, DRACO, updates on ESD, Fragmentator, GOAT, IRC, LR-CPCM, L-BFGS, MBIS, meta-GGA TD-DFT gradient, ML-optimized integration grids, 
  MM, NACMEs, nearIR, NEB, NEB-TS, NL-DFT gradient (VV10), 2- and 3-layer-ONIOM, interface openCOSMO-RS, QMMM,   
  Crystal-QMMM, RESP, rigid body optimization, SF, symmetry and pop. for TD-DFT, various functionals, SOLVATOR                                   
                                                                         
[Other institutions]                                                     
  V. Asgeirsson          : NEB                                           
  Christoph Bannwarth    : sTDA-DFT, sTD-DFT, PBEh-3c, B97-3c, D3        
  Giovanni Bistoni       : ETS/NOCV, ADLD/ADEX, COVALED                  
  Martin Brehm           : Molecular dynamics                            
  Ronald Cardenas        : ETS/NOCV                                      
  Martina Colucci        : COVALED                                       
  Sebastian Ehlert       : rSCAN, r2SCAN, r2SCAN-3c, D4, dhf basis sets  
  Marvin Friede          : D4 for Fr, Ra, Ac-Lr                          
  Lars Goerigk           : TD-DFT with DH, B97 family of functionals     
  Stefan Grimme          : VdW corrections, initial TS optimization, DFT functionals, gCP, sTDA/sTD-DF 
  Waldemar Hujo          : DFT-NL                                        
  H. Jonsson             : NEB                                           
  Holger Kruse           : gCP                                           
  Marcel Mueller         : wB97X-3c, vDZP basis set                      
  Hagen Neugebauer       : wr2SCAN, Native XTB                           
  Gianluca Regni         : ADLD/ADEX                                     
  Tobias Risthaus        : pre 6.0 range-separated hybrid DFT and stability analysis
  Lukas Wittmann         : regularized MP2, r2SCAN double-hybrids, wr2SCAN        
                                                                         
We gratefully acknowledge several colleagues who have allowed us to      
interface, adapt or use parts of their codes:                            
  Ed Valeev, F. Pavosevic, A. Kumar             : LibInt (2-el integral package), F12 methods 
  Garnet Chan, S. Sharma, J. Yang, R. Olivares  : DMRG                   
  Ulf Ekstrom                                   : XCFun DFT Library      
  Mihaly Kallay                                 : mrcc  (arbitrary order and MRCC methods)
  Frank Weinhold                                : gennbo (NPA and NBO analysis)           
  Simon Mueller                                 : openCOSMO-RS                            
  Christopher J. Cramer and Donald G. Truhlar   : smd solvation model                     
  S Lehtola, MJT Oliveira, MAL Marques          : LibXC Library                           
  Liviu Ungur et al                             : ANISO software                          


 Your calculation uses the libint2 library for the computation of 2-el integrals
 For citations please refer to: http://libint.valeyev.net

 Your ORCA version has been built with support for libXC version: 7.0.0
 For citations please refer to: https://libxc.gitlab.io

 This ORCA versions uses:
   CBLAS   interface :  Fast vector & matrix operations
   LAPACKE interface :  Fast linear algebra routines
   SCALAPACK package :  Parallel linear algebra routines
   Shared memory     :  Shared parallel matrices
   BLAS/LAPACK       :  OpenBLAS 0.3.29  USE64BITINT DYNAMIC_ARCH NO_AFFINITY Cooperlake SINGLE_THREADED
        Core in use  :  Cooperlake
   Copyright (c) 2011-2014, The OpenBLAS Project


  ***********************************
  * Starting time: Fri May 15 14:01:58 2026
  * Host name:     c1-10
  * Process ID:    3371229
  * Working dir.:  /cluster/projects/nn14654k/ylvaos/basis_set_n_funcs/functionals/gga_c_N12/C4H6/out
  ***********************************

Using LibXC functional ID  80 : Minnesota N12 correlation functional
[ 1]  R. Peverati and D. G. Truhlar.,  J. Chem. Theory Comput. 8, 2310 (2012)
Using LibXC functional ID  80 : Minnesota N12 correlation functional
[ 1]  R. Peverati and D. G. Truhlar.,  J. Chem. Theory Comput. 8, 2310 (2012)
Your calculation utilizes LibXC
by S. Lehtola, C. Steigemann, M. J. T. Oliveira & M. A. L. Marques
Please cite in your paper:
Lehtola, S.; Steigemann, C.; Oliveira, M.J.T.; Marques, M. A. L. Software X, 7, (2018), 1.
   

================================================================================

----- Orbital basis set information -----
Your calculation utilizes the basis: pcseg-2
   F. Jensen, J. Chem. Theory Comput. 10, 1074 (2014).

================================================================================
                                        WARNINGS
                       Please study these warnings very carefully!
================================================================================


================================================================================
                                       INPUT FILE
================================================================================
NAME = /cluster/projects/nn14654k/ylvaos/basis_set_n_funcs/functionals/gga_c_N12/C4H6/inp/C4H6_gga_c_N12_pcseg2.inp
|  1> ! dft pcseg-2 TightSCF
|  2> %pal nprocs 8 end
|  3> 
|  4> %loc
|  5>   LocMet NewBoys
|  6>   Occ true
|  7> end
|  8> 
|  9> %method
| 10>   exchange None
| 11>   correlation gga_c_N12
| 12> end
| 13> 
| 14> %elprop
| 15>   Dipole true
| 16>   Quadrupole true
| 17> end
| 18> 
| 19> * xyz 0 1
| 20> C    0.000000000000   0.000000000000   1.632000000000
| 21> C    0.000000000000   0.000000000000   0.300000000000
| 22> C    0.000000000000   0.771000000000  -0.936300000000
| 23> C    0.000000000000  -0.771000000000  -0.936300000000
| 24> H    0.000000000000   0.914000000000   2.222200000000
| 25> H    0.000000000000  -0.914000000000   2.222200000000
| 26> H    0.912300000000   1.305900000000  -1.200300000000
| 27> H   -0.912300000000   1.305900000000  -1.200300000000
| 28> H   -0.912300000000  -1.305900000000  -1.200300000000
| 29> H    0.912300000000  -1.305900000000  -1.200300000000
| 30> *
| 31> 
| 32> 
| 33>                          ****END OF INPUT****
================================================================================

                       ****************************
                       * Single Point Calculation *
                       ****************************

---------------------------------
CARTESIAN COORDINATES (ANGSTROEM)
---------------------------------
  C      0.000000    0.000000    1.632000
  C      0.000000    0.000000    0.300000
  C      0.000000    0.771000   -0.936300
  C      0.000000   -0.771000   -0.936300
  H      0.000000    0.914000    2.222200
  H      0.000000   -0.914000    2.222200
  H      0.912300    1.305900   -1.200300
  H     -0.912300    1.305900   -1.200300
  H     -0.912300   -1.305900   -1.200300
  H      0.912300   -1.305900   -1.200300

----------------------------
CARTESIAN COORDINATES (A.U.)
----------------------------
  NO LB      ZA    FRAG     MASS         X           Y           Z
   0 C     6.0000    0    12.011    0.000000    0.000000    3.084033
   1 C     6.0000    0    12.011    0.000000    0.000000    0.566918
   2 C     6.0000    0    12.011    0.000000    1.456979   -1.769351
   3 C     6.0000    0    12.011    0.000000   -1.456979   -1.769351
   4 H     1.0000    0     1.008    0.000000    1.727210    4.199349
   5 H     1.0000    0     1.008    0.000000   -1.727210    4.199349
   6 H     1.0000    0     1.008    1.723997    2.467793   -2.268238
   7 H     1.0000    0     1.008   -1.723997    2.467793   -2.268238
   8 H     1.0000    0     1.008   -1.723997   -2.467793   -2.268238
   9 H     1.0000    0     1.008    1.723997   -2.467793   -2.268238

--------------------------------
INTERNAL COORDINATES (ANGSTROEM)
--------------------------------
 C      0   0   0     0.000000000000     0.00000000     0.00000000
 C      1   0   0     1.332000000000     0.00000000     0.00000000
 C      2   1   0     1.457010188708   148.05088964     0.00000000
 C      2   1   3     1.457010188708   148.05088964   180.00000000
 H      1   2   3     1.087994503663   122.85166680     0.00000000
 H      1   2   3     1.087994503663   122.85166680   180.00000000
 H      3   2   1     1.090002431190   117.72260444    70.99760541
 H      3   2   1     1.090002431190   117.72260444   289.00239459
 H      4   2   1     1.090002431190   117.72260444    70.99760541
 H      4   2   1     1.090002431190   117.72260444   289.00239459

---------------------------
INTERNAL COORDINATES (A.U.)
---------------------------
 C      0   0   0     0.000000000000     0.00000000     0.00000000
 C      1   0   0     2.517115210383     0.00000000     0.00000000
 C      2   1   0     2.753350230992   148.05088964     0.00000000
 C      2   1   3     2.753350230992   148.05088964   180.00000000
 H      1   2   3     2.056011647134   122.85166680     0.00000000
 H      1   2   3     2.056011647134   122.85166680   180.00000000
 H      3   2   1     2.059806080257   117.72260444    70.99760541
 H      3   2   1     2.059806080257   117.72260444   289.00239459
 H      4   2   1     2.059806080257   117.72260444    70.99760541
 H      4   2   1     2.059806080257   117.72260444   289.00239459

---------------------
BASIS SET INFORMATION
---------------------
There are 2 groups of distinct atoms

 Group   1 Type C   : 11s6p2d1f contracted to 4s3p2d1f pattern {7211/411/11/1}
 Group   2 Type H   : 6s2p1d contracted to 3s2p1d pattern {411/11/1}

Atom   0C    basis set group =>   1
Atom   1C    basis set group =>   1
Atom   2C    basis set group =>   1
Atom   3C    basis set group =>   1
Atom   4H    basis set group =>   2
Atom   5H    basis set group =>   2
Atom   6H    basis set group =>   2
Atom   7H    basis set group =>   2
Atom   8H    basis set group =>   2
Atom   9H    basis set group =>   2


           ************************************************************
           *        Program running with 8 parallel MPI-processes     *
           *              working on a common directory               *
           ************************************************************
------------------------------------------------------------------------------
                             ORCA STARTUP CALCULATIONS
------------------------------------------------------------------------------
------------------------------------------------------------------------------
                   ___                                                        
                  /   \      - P O W E R E D   B Y -                         
                 /     \                                                     
                 |  |  |   _    _      __       _____    __    __             
                 |  |  |  | |  | |    /  \     |  _  \  |  |  /  |          
                  \  \/   | |  | |   /    \    | | | |  |  | /  /          
                 / \  \   | |__| |  /  /\  \   | |_| |  |  |/  /          
                |  |  |   |  __  | /  /__\  \  |    /   |      \           
                |  |  |   | |  | | |   __   |  |    \   |  |\   \          
                \     /   | |  | | |  |  |  |  | |\  \  |  | \   \       
                 \___/    |_|  |_| |__|  |__|  |_| \__\ |__|  \__/        
                                                                              
                      - O R C A' S   B I G   F R I E N D -                    
                                      &                                       
                       - I N T E G R A L  F E E D E R -                       
                                                                              
 v1 FN, 2020, v2 2021, v3 2022-2024                                           
------------------------------------------------------------------------------


----------------------
SHARK INTEGRAL PACKAGE
----------------------

Number of atoms                             ...     10
Number of basis functions                   ...    204
Number of shells                            ...     76
Maximum angular momentum                    ...      3
Integral batch strategy                     ... SHARK/LIBINT Hybrid
RI-J (if used) integral strategy            ... SPLIT-RIJ (Revised 2003 algorithm where possible)
Printlevel                                  ...      1
Contraction scheme used                     ... SEGMENTED contraction
Prescreening option                         ... SCHWARTZ
   Thresh                                   ... 2.500e-11
   Tcut                                     ... 2.500e-12
   Tpresel                                  ... 2.500e-12 
Coulomb Range Separation                    ... NOT USED
Exchange Range Separation                   ... NOT USED
Multipole approximations                    ... NOT USED
Finite Nucleus Model                        ... NOT USED
CABS basis                                  ... NOT available
Auxiliary Coulomb fitting basis             ... NOT available
Auxiliary J/K fitting basis                 ... NOT available
Auxiliary Correlation fitting basis         ... NOT available
Auxiliary 'external' fitting basis          ... NOT available

Checking pre-screening integrals            ... done (  0.0 sec) Dimension = 76
   => SHARK Basis and OBASIS are compatible. Storing Pre-screening
Shell pair information
Shell pair cut-off parameter TPreSel        ...   2.5e-12
Total number of shell pairs                 ...      2926
Shell pairs after pre-screening             ...      2876
Total number of primitive shell pairs       ...      9193
Primitive shell pairs kept                  ...      7379
          la=0 lb=0:    591 shell pairs
          la=1 lb=0:    800 shell pairs
          la=1 lb=1:    292 shell pairs
          la=2 lb=0:    468 shell pairs
          la=2 lb=1:    326 shell pairs
          la=2 lb=2:    101 shell pairs
          la=3 lb=0:    136 shell pairs
          la=3 lb=1:     96 shell pairs
          la=3 lb=2:     56 shell pairs
          la=3 lb=3:     10 shell pairs

Checking whether 4 symmetric matrices of dimension 204 fit in memory
:Max Core in MB      =   4096.00
 MB in use           =      5.64
 MB left             =   4090.36
 MB needed           =      0.64
 Data fit in memory  = YES
Calculating Nuclear repulsion               ... done (  0.0 sec) ENN=    109.249345578353 Eh

Diagonalization of the overlap matrix:
Smallest eigenvalue                        ... 1.816e-04
Time for diagonalization                   ...    0.003 sec
Threshold for overlap eigenvalues          ... 1.000e-07
Number of eigenvalues below threshold      ... 0
Time for construction of square roots      ...    0.003 sec
Total time needed                          ...    0.008 sec

-------------------
DFT GRID GENERATION
-------------------

General Integration Accuracy     IntAcc      ... 4.388
Radial Grid Type                 RadialGrid  ... OptM3 with GC (2021)
Angular Grid (max. ang.)         AngularGrid ... 4 (Lebedev-302)
Angular grid pruning method      GridPruning ... 4 (adaptive)
Weight generation scheme         WeightScheme... mBecke (2022)
Basis function cutoff            BFCut       ... 1.0000e-11
Integration weight cutoff        WCut        ... 1.0000e-14
Partially contracted basis set               ... off
Rotationally invariant grid construction     ... off
Angular grids for H and He will be reduced by one unit

Total number of grid points                  ...    43682
Total number of batches                      ...      687
Average number of points per batch           ...       63
Average number of grid points per atom       ...     4368
Grids setup in   0.1 sec
Initializing property integral containers    ... done (  0.0 sec)

SHARK setup successfully completed in   0.2 seconds

Maximum memory used throughout the entire STARTUP-calculation: 14.5 MB


           ************************************************************
           *        Program running with 8 parallel MPI-processes     *
           *              working on a common directory               *
           ************************************************************
-------------------------------------------------------------------------------
                                 ORCA GUESS
                   Start orbitals & Density for SCF / CASSCF
-------------------------------------------------------------------------------

------------
SCF SETTINGS
------------
Hamiltonian:
 Density Functional     Method          .... DFT(GTOs)
 Exchange Functional    Exchange        .... no Exchange
  Functional kind                       .... Correlation
  Functional name                       .... Minnesota N12 correlation functional
  Functional family                     .... GGA
  Functional refs                              
    [ 0] R. Peverati and D. G. Truhlar.,  J. Chem. Theory Comput. 8, 2310 (2012), doi: 10.1021/ct3002656
  Functional external parameters        .... 10
    Parameter  0 _css0      =  1.000000e+00 : u^0 coefficient for same-spin correlation
    Parameter  1 _css1      = -5.531700e+00 : u^1 coefficient for same-spin correlation
    Parameter  2 _css2      =  3.079580e+01 : u^2 coefficient for same-spin correlation
    Parameter  3 _css3      = -5.641960e+01 : u^3 coefficient for same-spin correlation
    Parameter  4 _css4      =  3.212500e+01 : u^4 coefficient for same-spin correlation
    Parameter  5 _cos0      =  1.000000e+00 : u^0 coefficient for opposite-spin correlation
    Parameter  6 _cos1      =  3.245110e+00 : u^1 coefficient for opposite-spin correlation
    Parameter  7 _cos2      = -2.528930e+01 : u^2 coefficient for opposite-spin correlation
    Parameter  8 _cos3      =  1.444070e+01 : u^3 coefficient for opposite-spin correlation
    Parameter  9 _cos4      =  1.968700e+01 : u^4 coefficient for opposite-spin correlation
 Gradients option       PostSCFGGA      .... off


General Settings:
 Integral files         IntName         .... /cluster/projects/nn14654k/ylvaos/basis_set_n_funcs/functionals/gga_c_N12/C4H6/inp/C4H6_gga_c_N12_pcseg2
 Hartree-Fock type      HFTyp           .... RHF
 Total Charge           Charge          ....    0
 Multiplicity           Mult            ....    1
 Number of Electrons    NEL             ....   30
 Basis Dimension        Dim             ....  204
 Nuclear Repulsion      ENuc            ....    109.2493455784 Eh

Convergence Acceleration:
 AO-DIIS                CNVDIIS         .... on
   Start iteration      DIISMaxIt       ....    12
   Startup error        DIISStart       ....  0.200000
   # of expansion vecs  DIISMaxEq       ....     5
   Bias factor          DIISBfac        ....   1.050
   Max. coefficient     DIISMaxC        ....  10.000
 MO-DIIS                CNVKDIIS        .... off
 Trust-Rad. Augm. Hess. CNVTRAH         .... auto
   Auto Start mean grad. ratio tolernc. ....  1.125000
   Auto Start start iteration           ....    50
   Auto Start num. interpolation iter.  ....    10
   Max. Number of Micro iterations      ....    24
   Max. Number of Macro iterations      .... Maxiter - #DIIS iter
   Number of Davidson start vectors     ....     2
   Converg. threshold    (grad. norm)   ....   1.000e-05
   Grad. Scal. Fac. for Micro threshold ....   0.100
   Minimum threshold for Micro iter.    ....   1.000e-02
   NR start threshold (gradient norm)   ....   1.000e-04
   Initial trust radius                 ....   0.400
   Minimum AH scaling param. (alpha)    ....   1.000
   Maximum AH scaling param. (alpha)    .... 1000.000
   Quad. conv. algorithm                .... NR
   White noise on init. David. guess    .... on
   Maximum white noise                  ....   0.010
   Pseudo random numbers                .... off
   Inactive MOs                         .... canonical
   Orbital update algorithm             .... Taylor
   Preconditioner                       .... Diag
   Full preconditioner red. dimension   ....   250
 SOSCF                 CNVSOSCF           .... on
   Start iteration     SOSCFMaxIt         ....   150
   Startup grad/error  SOSCFStart         ....  0.003300
   Hessian update      SOSCFHessUp        .... L-BFGS
   Autom. constraints  SOSCFAutoConstrain .... off
 Level Shifting         CNVShift        .... on
   Level shift para.    LevelShift      ....    0.2500
   Turn off err/grad.   ShiftErr        ....    0.0010
 Zerner damping         CNVZerner       .... off
 Static damping         CNVDamp         .... on
   Fraction old density DampFac         ....    0.7000
   Max. Damping (<1)    DampMax         ....    0.9800
   Min. Damping (>=0)   DampMin         ....    0.0000
   Turn off err/grad.   DampErr         ....    0.1000

SCF Procedure:
 Maximum # iterations   MaxIter         ....   125
 SCF integral mode      SCFMode         .... Direct
   Integral package                     .... SHARK and LIBINT hybrid scheme
 Reset frequency        DirectResetFreq ....    20
 Integral Threshold     Thresh          ....  2.500e-11 Eh
 Primitive CutOff       TCut            ....  2.500e-12 Eh

Convergence Tolerance:
 Convergence Check Mode ConvCheckMode   .... Total+1el-Energy
 Convergence forced     ConvForced      .... 0
 Energy Change          TolE            ....  1.000e-08 Eh
 1-El. energy change                    ....  1.000e-05 Eh
 Orbital Gradient       TolG            ....  1.000e-05
 Orbital Rotation angle TolX            ....  1.000e-05
 DIIS Error             TolErr          ....  5.000e-07

------------------------------
INITIAL GUESS: MODEL POTENTIAL
------------------------------
Loading Hartree-Fock densities                     ... done
Calculating cut-offs                               ... done
Initializing the effective Hamiltonian             ... done
Setting up the integral package (SHARK)            ... done
Starting the Coulomb interaction                   ... done (   0.0 sec)
Making the grid                                    ... done (   0.0 sec)
Mapping shells                                     ... done
Starting the XC term evaluation                    ... done (   0.0 sec)
  promolecular density results
     # of electrons  =     29.996209296
     EX              =      0.000000000
     EC              =     -1.502432940
     EX+EC           =     -1.502432940
Transforming the Hamiltonian                       ... done (   0.0 sec)
Diagonalizing the Hamiltonian                      ... done (   0.0 sec)
Back transforming the eigenvectors                 ... done (   0.0 sec)
Now organizing SCF variables                       ... done
                      ------------------
                      INITIAL GUESS DONE (   0.1 sec)
                      ------------------
             **** ENERGY FILE WAS UPDATED (/cluster/projects/nn14654k/ylvaos/basis_set_n_funcs/functionals/gga_c_N12/C4H6/inp/C4H6_gga_c_N12_pcseg2.en.tmp) ****
Finished Guess after   0.2 sec
Maximum memory used throughout the entire GUESS-calculation: 10.3 MB


           ************************************************************
           *        Program running with 8 parallel MPI-processes     *
           *              working on a common directory               *
           ************************************************************

-------------------------------------------------------------------------------------------
                                      ORCA LEAN-SCF
                              memory conserving SCF solver
-------------------------------------------------------------------------------------------

----------------------------------------D-I-I-S--------------------------------------------
Iteration    Energy (Eh)           Delta-E    RMSDP     MaxDP     DIISErr   Damp  Time(sec)
-------------------------------------------------------------------------------------------
               ***  Starting incremental Fock matrix formation  ***
    1    -133.7732813847642888     0.00e+00  6.08e-02  1.07e+00  3.27e-01  0.700   0.5
    2    -134.0250926302042558    -2.52e-01  4.96e-02  8.51e-01  1.04e-01  0.700   0.6
                               ***Turning on AO-DIIS***
    3    -134.0778524192826353    -5.28e-02  3.59e-02  6.03e-01  3.50e-02  0.700   0.5
    4    -134.1076681425648189    -2.98e-02  8.41e-02  1.42e+00  5.50e-02  0.000   0.5
    5    -134.1953941860643340    -8.77e-02  5.19e-03  6.37e-02  6.38e-02  0.000   0.5
    6    -134.2107396517961888    -1.53e-02  2.97e-03  3.06e-02  3.49e-02  0.000   0.5
    7    -134.2145889613830718    -3.85e-03  1.34e-03  1.68e-02  1.12e-02  0.000   0.5
    8    -134.2149772010869810    -3.88e-04  7.06e-04  7.44e-03  4.86e-03  0.000   0.5
                              *** Initializing SOSCF ***
---------------------------------------S-O-S-C-F--------------------------------------
Iteration    Energy (Eh)           Delta-E    RMSDP     MaxDP     MaxGrad    Time(sec)
--------------------------------------------------------------------------------------
    9    -134.2150528999105745    -7.57e-05  4.40e-04  4.88e-03  8.80e-04     0.5
               *** Restarting incremental Fock matrix formation ***
   10    -134.2150591144668397    -6.21e-06  4.79e-04  5.43e-03  2.10e-04     0.5
   11    -134.2150592261995143    -1.12e-07  1.79e-04  1.84e-03  3.53e-04     0.5
   12    -134.2150608570395320    -1.63e-06  2.72e-04  3.36e-03  1.21e-04     0.4
   13    -134.2150609954755964    -1.38e-07  4.59e-05  8.50e-04  1.11e-04     0.4
   14    -134.2150610420377461    -4.66e-08  1.41e-04  1.81e-03  8.77e-05     0.4
   15    -134.2150611747950393    -1.33e-07  4.09e-05  5.15e-04  3.79e-05     0.4
   16    -134.2150611755638465    -7.69e-10  2.36e-05  2.50e-04  3.30e-05     0.4
                 **** Energy Check signals convergence ****

               *****************************************************
               *                     SUCCESS                       *
               *           SCF CONVERGED AFTER  16 CYCLES          *
               *****************************************************

             **** ENERGY FILE WAS UPDATED (/cluster/projects/nn14654k/ylvaos/basis_set_n_funcs/functionals/gga_c_N12/C4H6/inp/C4H6_gga_c_N12_pcseg2.en.tmp) ****

----------------
TOTAL SCF ENERGY
----------------

Total Energy       :       -134.21506120056972 Eh           -3652.17749 eV

Components:
Nuclear Repulsion  :        109.24934557835338 Eh            2972.82583 eV
Electronic Energy  :       -243.46440677892312 Eh           -6625.00332 eV
One Electron Energy:       -415.70455439587772 Eh          -11311.89601 eV
Two Electron Energy:        172.24014761695460 Eh            4686.89269 eV

Virial components:
Potential Energy   :       -279.80979534697144 Eh           -7614.01162 eV
Kinetic Energy     :        145.59473414640172 Eh            3961.83413 eV
Virial Ratio       :          1.92184007881501

DFT components:
N(Alpha)           :       14.999944440115 electrons
N(Beta)            :       14.999944440115 electrons
N(Total)           :       29.999888880231 electrons
E(X)               :        0.000000000000 Eh       
E(C)               :       -1.470639233051 Eh       
E(XC)              :       -1.470639233051 Eh       

---------------
SCF CONVERGENCE
---------------

  Last Energy change         ...    7.6881e-10  Tolerance :   1.0000e-08
  Last MAX-Density change    ...    2.4994e-04  Tolerance :   1.0000e-07
  Last RMS-Density change    ...    2.3563e-05  Tolerance :   5.0000e-09
  Last DIIS Error            ...    8.7968e-04  Tolerance :   5.0000e-07
  Last Orbital Gradient      ...    3.3035e-05  Tolerance :   1.0000e-05
  Last Orbital Rotation      ...    8.4575e-05  Tolerance :   1.0000e-05


----------------
ORBITAL ENERGIES
----------------

  NO   OCC          E(Eh)            E(eV) 
   0   2.0000      -8.272244      -225.0992 
   1   2.0000      -8.268554      -224.9988 
   2   2.0000      -8.260204      -224.7716 
   3   2.0000      -8.228858      -223.9186 
   4   2.0000      -0.519108       -14.1257 
   5   2.0000      -0.356957        -9.7133 
   6   2.0000      -0.276781        -7.5316 
   7   2.0000      -0.214281        -5.8309 
   8   2.0000      -0.202094        -5.4993 
   9   2.0000      -0.158426        -4.3110 
  10   2.0000      -0.130280        -3.5451 
  11   2.0000      -0.071844        -1.9550 
  12   2.0000      -0.048977        -1.3327 
  13   2.0000      -0.016614        -0.4521 
  14   2.0000      -0.011176        -0.3041 
  15   0.0000       0.114569         3.1176 
  16   0.0000       0.122216         3.3257 
  17   0.0000       0.140696         3.8285 
  18   0.0000       0.146041         3.9740 
  19   0.0000       0.171114         4.6563 
  20   0.0000       0.187877         5.1124 
  21   0.0000       0.188054         5.1172 
  22   0.0000       0.198175         5.3926 
  23   0.0000       0.233057         6.3418 
  24   0.0000       0.246340         6.7032 
  25   0.0000       0.280995         7.6463 
*Only the first 10 virtual orbitals were printed.

                    ********************************
                    * MULLIKEN POPULATION ANALYSIS *
                    ********************************

-----------------------
MULLIKEN ATOMIC CHARGES
-----------------------
   0 C :    0.018130
   1 C :    0.117517
   2 C :   -0.075152
   3 C :   -0.075152
   4 H :   -0.096598
   5 H :   -0.096598
   6 H :    0.051963
   7 H :    0.051963
   8 H :    0.051963
   9 H :    0.051963
Sum of atomic charges:    0.0000000

--------------------------------
MULLIKEN REDUCED ORBITAL CHARGES
--------------------------------
  0 C s       :     3.154966  s :     3.154966
      pz      :     0.953144  p :     2.820364
      px      :     1.051411
      py      :     0.815808
      dz2     :    -0.007164  d :     0.008398
      dxz     :     0.006235
      dyz     :     0.013984
      dx2y2   :    -0.004733
      dxy     :     0.000075
      f0      :    -0.002151  f :    -0.001858
      f+1     :     0.000621
      f-1     :     0.000679
      f+2     :    -0.000894
      f-2     :     0.000004
      f+3     :     0.000011
      f-3     :    -0.000127

  1 C s       :     2.871823  s :     2.871823
      pz      :     0.844231  p :     2.957930
      px      :     0.977449
      py      :     1.136250
      dz2     :    -0.003472  d :     0.050694
      dxz     :     0.016635
      dyz     :     0.031034
      dx2y2   :     0.000331
      dxy     :     0.006166
      f0      :     0.000683  f :     0.002037
      f+1     :     0.001200
      f-1     :     0.000202
      f+2     :    -0.000403
      f-2     :     0.000356
      f+3     :    -0.000002
      f-3     :     0.000000

  2 C s       :     2.904825  s :     2.904825
      pz      :     1.071517  p :     3.130755
      px      :     1.105504
      py      :     0.953734
      dz2     :     0.010213  d :     0.040155
      dxz     :     0.004845
      dyz     :     0.009837
      dx2y2   :     0.011740
      dxy     :     0.003520
      f0      :    -0.000099  f :    -0.000584
      f+1     :     0.000149
      f-1     :    -0.000034
      f+2     :     0.000395
      f-2     :     0.000259
      f+3     :     0.000283
      f-3     :    -0.001537

  3 C s       :     2.904826  s :     2.904826
      pz      :     1.071517  p :     3.130755
      px      :     1.105504
      py      :     0.953734
      dz2     :     0.010213  d :     0.040155
      dxz     :     0.004845
      dyz     :     0.009837
      dx2y2   :     0.011740
      dxy     :     0.003520
      f0      :    -0.000099  f :    -0.000584
      f+1     :     0.000149
      f-1     :    -0.000034
      f+2     :     0.000395
      f-2     :     0.000259
      f+3     :     0.000283
      f-3     :    -0.001537

  4 H s       :     1.052101  s :     1.052101
      pz      :     0.012797  p :     0.043344
      px      :     0.008781
      py      :     0.021766
      dz2     :     0.000153  d :     0.001152
      dxz     :     0.000170
      dyz     :     0.000259
      dx2y2   :     0.000252
      dxy     :     0.000317

  5 H s       :     1.052101  s :     1.052101
      pz      :     0.012797  p :     0.043344
      px      :     0.008781
      py      :     0.021766
      dz2     :     0.000153  d :     0.001152
      dxz     :     0.000170
      dyz     :     0.000259
      dx2y2   :     0.000252
      dxy     :     0.000317

  6 H s       :     0.909364  s :     0.909364
      pz      :     0.009499  p :     0.037685
      px      :     0.018743
      py      :     0.009443
      dz2     :     0.000139  d :     0.000988
      dxz     :     0.000333
      dyz     :     0.000075
      dx2y2   :     0.000357
      dxy     :     0.000083

  7 H s       :     0.909364  s :     0.909364
      pz      :     0.009499  p :     0.037685
      px      :     0.018743
      py      :     0.009443
      dz2     :     0.000139  d :     0.000988
      dxz     :     0.000333
      dyz     :     0.000075
      dx2y2   :     0.000357
      dxy     :     0.000083

  8 H s       :     0.909364  s :     0.909364
      pz      :     0.009499  p :     0.037685
      px      :     0.018743
      py      :     0.009443
      dz2     :     0.000139  d :     0.000988
      dxz     :     0.000333
      dyz     :     0.000075
      dx2y2   :     0.000357
      dxy     :     0.000083

  9 H s       :     0.909364  s :     0.909364
      pz      :     0.009499  p :     0.037685
      px      :     0.018743
      py      :     0.009443
      dz2     :     0.000139  d :     0.000988
      dxz     :     0.000333
      dyz     :     0.000075
      dx2y2   :     0.000357
      dxy     :     0.000083



                     *******************************
                     * LOEWDIN POPULATION ANALYSIS *
                     *******************************

----------------------
LOEWDIN ATOMIC CHARGES
----------------------
   0 C :   -0.015095
   1 C :   -0.024735
   2 C :    0.051257
   3 C :    0.051257
   4 H :   -0.021053
   5 H :   -0.021053
   6 H :   -0.005144
   7 H :   -0.005144
   8 H :   -0.005144
   9 H :   -0.005144

-------------------------------
LOEWDIN REDUCED ORBITAL CHARGES
-------------------------------
  0 C s       :     2.759083  s :     2.759083
      pz      :     1.056786  p :     3.095751
      px      :     1.002514
      py      :     1.036451
      dz2     :     0.035483  d :     0.147700
      dxz     :     0.020158
      dyz     :     0.084003
      dx2y2   :     0.007920
      dxy     :     0.000137
      f0      :     0.004386  f :     0.012562
      f+1     :     0.001932
      f-1     :     0.004651
      f+2     :     0.000895
      f-2     :     0.000012
      f+3     :     0.000245
      f-3     :     0.000439

  1 C s       :     2.731339  s :     2.731339
      pz      :     1.065447  p :     2.969593
      px      :     0.877415
      py      :     1.026731
      dz2     :     0.091434  d :     0.300684
      dxz     :     0.071277
      dyz     :     0.101683
      dx2y2   :     0.013557
      dxy     :     0.022733
      f0      :     0.009299  f :     0.023120
      f+1     :     0.002203
      f-1     :     0.005269
      f+2     :     0.002240
      f-2     :     0.003659
      f+3     :     0.000388
      f-3     :     0.000063

  2 C s       :     2.685033  s :     2.685033
      pz      :     1.051366  p :     3.049268
      px      :     1.052547
      py      :     0.945355
      dz2     :     0.036351  d :     0.197218
      dxz     :     0.024030
      dyz     :     0.051024
      dx2y2   :     0.033602
      dxy     :     0.052211
      f0      :     0.003870  f :     0.017223
      f+1     :     0.001546
      f-1     :     0.001808
      f+2     :     0.003836
      f-2     :     0.001623
      f+3     :     0.002083
      f-3     :     0.002457

  3 C s       :     2.685033  s :     2.685033
      pz      :     1.051366  p :     3.049268
      px      :     1.052547
      py      :     0.945355
      dz2     :     0.036351  d :     0.197218
      dxz     :     0.024030
      dyz     :     0.051024
      dx2y2   :     0.033602
      dxy     :     0.052211
      f0      :     0.003870  f :     0.017223
      f+1     :     0.001546
      f-1     :     0.001808
      f+2     :     0.003836
      f-2     :     0.001623
      f+3     :     0.002083
      f-3     :     0.002457

  4 H s       :     0.878969  s :     0.878969
      pz      :     0.039161  p :     0.125072
      px      :     0.038040
      py      :     0.047872
      dz2     :     0.003757  d :     0.017012
      dxz     :     0.001478
      dyz     :     0.005183
      dx2y2   :     0.003645
      dxy     :     0.002950

  5 H s       :     0.878969  s :     0.878969
      pz      :     0.039161  p :     0.125072
      px      :     0.038040
      py      :     0.047872
      dz2     :     0.003757  d :     0.017012
      dxz     :     0.001478
      dyz     :     0.005183
      dx2y2   :     0.003645
      dxy     :     0.002950

  6 H s       :     0.854198  s :     0.854198
      pz      :     0.049084  p :     0.132879
      px      :     0.045110
      py      :     0.038685
      dz2     :     0.002366  d :     0.018067
      dxz     :     0.004160
      dyz     :     0.001833
      dx2y2   :     0.004814
      dxy     :     0.004894

  7 H s       :     0.854198  s :     0.854198
      pz      :     0.049084  p :     0.132879
      px      :     0.045110
      py      :     0.038685
      dz2     :     0.002366  d :     0.018067
      dxz     :     0.004160
      dyz     :     0.001833
      dx2y2   :     0.004814
      dxy     :     0.004894

  8 H s       :     0.854198  s :     0.854198
      pz      :     0.049084  p :     0.132879
      px      :     0.045110
      py      :     0.038685
      dz2     :     0.002366  d :     0.018067
      dxz     :     0.004160
      dyz     :     0.001833
      dx2y2   :     0.004814
      dxy     :     0.004894

  9 H s       :     0.854198  s :     0.854198
      pz      :     0.049084  p :     0.132879
      px      :     0.045110
      py      :     0.038685
      dz2     :     0.002366  d :     0.018067
      dxz     :     0.004160
      dyz     :     0.001833
      dx2y2   :     0.004814
      dxy     :     0.004894



                      *****************************
                      * MAYER POPULATION ANALYSIS *
                      *****************************

  NA   - Mulliken gross atomic population
  ZA   - Total nuclear charge
  QA   - Mulliken gross atomic charge
  VA   - Mayer's total valence
  BVA  - Mayer's bonded valence
  FA   - Mayer's free valence

  ATOM       NA         ZA         QA         VA         BVA        FA
  0 C      5.9819     6.0000     0.0181     3.5573     3.5573     0.0000
  1 C      5.8825     6.0000     0.1175     2.6815     2.6815     0.0000
  2 C      6.0752     6.0000    -0.0752     3.4691     3.4691     0.0000
  3 C      6.0752     6.0000    -0.0752     3.4691     3.4691     0.0000
  4 H      1.0966     1.0000    -0.0966     0.9257     0.9257     0.0000
  5 H      1.0966     1.0000    -0.0966     0.9257     0.9257     0.0000
  6 H      0.9480     1.0000     0.0520     0.9399     0.9399     0.0000
  7 H      0.9480     1.0000     0.0520     0.9399     0.9399     0.0000
  8 H      0.9480     1.0000     0.0520     0.9399     0.9399    -0.0000
  9 H      0.9480     1.0000     0.0520     0.9399     0.9399    -0.0000

  Mayer bond orders larger than 0.100000
B(  0-C ,  1-C ) :   1.5921 B(  0-C ,  4-H ) :   1.0779 B(  0-C ,  5-H ) :   1.0779 
B(  1-C ,  2-C ) :   0.7704 B(  1-C ,  3-C ) :   0.7704 B(  1-C ,  4-H ) :  -0.1184 
B(  1-C ,  5-H ) :  -0.1184 B(  2-C ,  3-C ) :   0.7992 B(  2-C ,  6-H ) :   0.9905 
B(  2-C ,  7-H ) :   0.9905 B(  3-C ,  8-H ) :   0.9905 B(  3-C ,  9-H ) :   0.9905 


-------
TIMINGS
-------

Total SCF time: 0 days 0 hours 0 min 8 sec 

Total time                  ....       8.408 sec
Sum of individual times     ....       7.985 sec  ( 95.0%)

SCF preparation             ....       0.070 sec  (  0.8%)
Fock matrix formation       ....       7.419 sec  ( 88.2%)
  Startup                   ....       0.009 sec  (  0.1% of F)
  Coulomb formation         ....       6.750 sec  ( 91.0% of F)
  XC integration            ....       0.861 sec  ( 11.6% of F)
    XC Preparation          ....       0.000 sec  (  0.0% of XC)
    Basis function eval.    ....       0.157 sec  ( 18.2% of XC)
    Density eval.           ....       0.123 sec  ( 14.3% of XC)
    XC-Functional eval.     ....       0.049 sec  (  5.7% of XC)
    XC-Potential eval.      ....       0.255 sec  ( 29.6% of XC)
Diagonalization             ....       0.000 sec  (  0.0%)
Density matrix formation    ....       0.064 sec  (  0.8%)
Total Energy calculation    ....       0.020 sec  (  0.2%)
Population analysis         ....       0.016 sec  (  0.2%)
Orbital Transformation      ....       0.021 sec  (  0.2%)
Orbital Orthonormalization  ....       0.000 sec  (  0.0%)
DIIS solution               ....       0.269 sec  (  3.2%)
SOSCF solution              ....       0.104 sec  (  1.2%)
Finished LeanSCF after   8.4 sec

Maximum memory used throughout the entire LEANSCF-calculation: 17.4 MB


           ************************************************************
           *        Program running with 8 parallel MPI-processes     *
           *              working on a common directory               *
           ************************************************************

------------------------------------------------------------------------------
                         ORCA PROPERTY INTEGRAL CALCULATIONS
------------------------------------------------------------------------------

GBWName                                   ... /cluster/projects/nn14654k/ylvaos/basis_set_n_funcs/functionals/gga_c_N12/C4H6/inp/C4H6_gga_c_N12_pcseg2.gbw
Number of atoms                           ...     10
Number of basis functions                 ...    204
Max core memory                           ...   4096 MB

Dipole integrals                          ... YES
Quadrupole integrals                      ... YES
Linear momentum integrals                 ...  NO
Angular momentum integrals                ...  NO
Higher moments length integrals           ...  NO
Higher moments velocity integrals         ...  NO
Kinetic energy integrals                  ...  NO
GIAO right hand sides                     ...  NO
GIAO dipole derivative integrals          ...  NO
SOC integrals                             ...  NO
EPR diamagnetic integrals (GIAO)          ...  NO
EPR gauge integrals                       ...  NO
Field gradient integrals                  ...  NO (   0 nuclei)
Spin-dipole/Fermi contact integrals       ...  NO (   0 nuclei)
Contact density integrals                 ...  NO (   0 nuclei)
Nucleus-orbit integrals                   ...  NO (   0 nuclei)
Geometric perturbations                   ...  NO (  10 nuclei)

Choice of electric origin   ... Center of mass
Position of electric origin ... (  0.0000,  0.0000,  0.0124) 
Choice of magnetic origin   ... GIAO
Position of magnetic origin ... (  0.0000,  0.0000,  0.0000) 

Calculating integrals                     ... Electric Dipole (Length)     done (  0.0 sec)
Calculating integrals                     ... Electric Quadrupole (Length) done (  0.0 sec)

Property integrals calculated in   0.0 sec

Maximum memory used throughout the entire PROPINT-calculation: 11.1 MB
------------------------------------------------------------------------------
                           ORCA ORBITAL LOCALIZATION
------------------------------------------------------------------------------

Input orbitals are from                  ... /cluster/projects/nn14654k/ylvaos/basis_set_n_funcs/functionals/gga_c_N12/C4H6/inp/C4H6_gga_c_N12_pcseg2.gbw
Output orbitals are to                   ... /cluster/projects/nn14654k/ylvaos/basis_set_n_funcs/functionals/gga_c_N12/C4H6/inp/C4H6_gga_c_N12_pcseg2.loc
Max. number of iterations                ... 128
Localizations seeded randomly            ... on
Convergence tolerance                    ... 1.000e-06
Threshold for strong local MOs           ... 9.500e-01
Threshold for bond MOs                   ... 8.500e-01
Operator                                 ... 0
Orbital range for localization           ... 4 to 14
Localization criterion                   ... NEW-BOYS
Doing the dipole integrals               ... o.k.
Initial value of the localization sum :    38.773875
ITERATION   0 : L=   81.9712714050 DL=  4.32e+01 (AVERGE_DL)=    0.8862320278 
ITERATION   1 : L=   89.5018762094 DL=  7.53e+00 (AVERGE_DL)=    0.3700271441 
ITERATION   2 : L=   89.6761038556 DL=  1.74e-01 (AVERGE_DL)=    0.0562829937 
ITERATION   3 : L=   89.6767728309 DL=  6.69e-04 (AVERGE_DL)=    0.0034875762 
ITERATION   4 : L=   89.6767793110 DL=  6.48e-06 (AVERGE_DL)=    0.0003432489 
ITERATION   5 : L=   89.6767793791 DL=  6.81e-08 (AVERGE_DL)=    0.0000352000 
LOCALIZATION SUM CONVERGED


--------------------------------------------------------------------------------
                    LOCALIZED MOLECULAR ORBITAL COMPOSITIONS
--------------------------------------------------------------------------------

The Mulliken populations for each LMO on each atom are computed
The LMO`s will be ordered according to atom index and type
  (A) Strongly localized MO`s have populations of >=0.950 on one atom
  (B) Two center bond orbitals have populations of >=0.850 on two atoms
  (C) Other MO`s are considered to be `delocalized`

FOUND  -   0 strongly local MO`s
       -  11 two center bond MO`s
       -   0 significantly delocalized MO`s

Bond-like localized orbitals:
MO  14:   9H  -   0.505870  and   3C  -   0.520987
MO  13:   8H  -   0.505870  and   3C  -   0.520987
MO  12:   7H  -   0.505870  and   2C  -   0.520986
MO  11:   6H  -   0.505870  and   2C  -   0.520986
MO  10:   5H  -   0.588980  and   0C  -   0.494308
MO   9:   4H  -   0.588980  and   0C  -   0.494307
MO   8:   3C  -   0.504351  and   2C  -   0.504352
MO   7:   3C  -   0.520203  and   1C  -   0.534824
MO   6:   2C  -   0.520202  and   1C  -   0.534824
MO   5:   1C  -   0.534875  and   0C  -   0.513904
MO   4:   1C  -   0.534874  and   0C  -   0.513904
Localized MO's were stored in: /cluster/projects/nn14654k/ylvaos/basis_set_n_funcs/functionals/gga_c_N12/C4H6/inp/C4H6_gga_c_N12_pcseg2.loc

-------------------------   --------------------
FINAL SINGLE POINT ENERGY      -134.215061200570
-------------------------   --------------------



           ************************************************************
           *        Program running with 8 parallel MPI-processes     *
           *              working on a common directory               *
           ************************************************************

------------------------------------------------------------------------------
                              ORCA PROPERTY CALCULATIONS
------------------------------------------------------------------------------

GBWName                                 ... /cluster/projects/nn14654k/ylvaos/basis_set_n_funcs/functionals/gga_c_N12/C4H6/inp/C4H6_gga_c_N12_pcseg2.gbw
Number of atoms                         ...     10
Number of basis functions               ...    204
Max core memory                         ...   4096 MB

Electric properties:
Dipole moment                           ... YES
Quadrupole moment                       ... YES
Static polarizability (Dipole/Dipole)   ...  NO
Static polarizability (Dipole/Quad.)    ...  NO
Static polarizability (Quad./Quad.)     ...  NO
Static polarizability (Velocity)        ...  NO
Static hyperpolarizability              ...  NO

Atomic electric properties:
Dipole moment                           ...  NO
Quadrupole moment                       ...  NO
Static polarizability                   ...  NO

Choice of electric origin               ... Center of mass
Position of electric origin             ...     0.000000     0.000000     0.012360

General magnetic properties:
Magnetizability                         ...  NO

EPR properties:
g-Tensor (aka g-matrix)                 ...  NO
Zero-Field splitting spin-orbit         ...  NO
Zero-field splitting spin-spin          ...  NO
Hyperfine couplings                     ...  NO (   0 nuclei)
Quadrupole couplings                    ...  NO (   0 nuclei)
Contact density                         ...  NO (   0 nuclei)

NMR properties:
Chemical shifts                         ...  NO (   0 nuclei)
Spin-rotation constants                 ...  NO (   0 nuclei)
Spin-spin couplings                     ...  NO (   0 nuclei,    0 pairs)

Choice of magnetic origin               ... GIAO
Position of magnetic origin             ...     0.000000     0.000000     0.000000

Properties with geometric perturbations:
SCF Hessian                             ...  NO
IR spectrum                             ...  NO
VCD spectrum                            ...  NO
X-ray spectroscopy properties:
SCF XES/XAS/RIXS spectra                ...  NO

SCF SOC stabilization energy            ...  NO
Diagonal Born-Oppenheimer correction    ...  NO

-------------
DIPOLE MOMENT
-------------

Method             : SCF
Type of density    : Electron Density
Multiplicity       :   1
Irrep              :   0
Energy             :  -134.2150612005697212 Eh
Basis              : AO
                                X                 Y                 Z
Electronic contribution:      0.000000031       0.000000035       0.040156680
Nuclear contribution   :      0.000000000       0.000000000      -0.371559272
                        -----------------------------------------
Total Dipole Moment    :      0.000000031       0.000000035      -0.331402592
                        -----------------------------------------
Magnitude (a.u.)       :      0.331402592
Magnitude (Debye)      :      0.842358444



--------------------
Rotational spectrum 
--------------------
 
Rotational constants in cm-1:             0.643527             0.230144             0.181788 
Rotational constants in MHz :         19292.450199          6899.535423          5449.866904 

Dipole components along the rotational axes: 
x,y,z [a.u.] :    -0.331403     0.000000     0.000000 
x,y,z [Debye]:    -0.842358     0.000000     0.000000 

 

Dipole moment calculation done in   0.0 sec 

-----------------
QUADRUPOLE MOMENT
-----------------

Method             : SCF
Type of density    : Electron Density
Multiplicity       :   1
Irrep              :   0
Energy             :  -134.2150612005697212 Eh
Basis              : AO

                XX              YY              ZZ              XY              XZ              YZ
  NUC       11.888664720    55.799971245   152.416444257     0.000000000     0.000000000     0.000000000
  EL       -39.968784736   -84.092898996  -182.096762665     0.000000014    -0.000000004     0.000000155
  TOT      -28.080120016   -28.292927752   -29.680318408     0.000000014    -0.000000004     0.000000155 (a.u.)
           -37.768721762   -38.054955444   -39.921043326     0.000000019    -0.000000005     0.000000209 (Buckingham)

diagonalized tensor:
           -29.680318408   -28.292927752   -28.080120016 (a.u.)
           -39.921043326   -38.054955444   -37.768721762 (Buckingham)
            -4.018409445     1.579854199     2.438555246 (traceless form in Buckingham)

             0.000000002    -0.000000066     1.000000000
            -0.000000112     1.000000000     0.000000066
             1.000000000     0.000000112    -0.000000002
        
Isotropic quadrupole :   -28.684455392

Quadrupole moment calculation done in   0.0 sec (  0.0 sec for integrals)

Maximum memory used throughout the entire PROP-calculation: 8.0 MB

--------------------------------
SUGGESTED CITATIONS FOR THIS RUN
--------------------------------

Below you find a list of papers that are relevant to this ORCA run
We neither can nor want to force you to cite these papers, but we appreciate if you do
You receive ORCA, which is the product of decades of hard work by many enthusiastic individuals, for free
The only thing we kindly ask in return is that you cite our papers,
We deeply appreciate it, if you show your appreciation for ORCA by not just citing the generic ORCA reference.

Please note that relegating all ORCA citations to the supporting information does *not* help us.
SI sections are not indexed - citations you put there will not count into any citation statistics
But we need these citations in order to attract the funding resources that allow us to do what we are doing

Therefore, if you are a happy ORCA user, please consider citing a few of the papers listed below in the main body of your paper

In addition to the list printed below, the program has created the file /cluster/projects/nn14654k/ylvaos/basis_set_n_funcs/functionals/gga_c_N12/C4H6/inp/C4H6_gga_c_N12_pcseg2.bibtex that contains the list in bibtex format
You can import this file easily into all common literature databanks and citation aid programs

It goes without saying that in many instances, there are alternative algorithms to achieve similar
results as the ones you have gotten from ORCA. It is, of course, also the case that in some instances
ORCA just re-implements algorithms worked out by others. We are fully aware of that and we are also
fully appreciative of our colleagues work. Hence this citation list should not be read as indicating
that the listed papers, which are focused on our own work, are the only ones worth citing. It simply
meant to make it easier for users to cite ORCA specific papers. It is not a substitute for doing your
own literature research and citing the relevant literature in a scientifically appropriate manner.

List of essential papers. We consider these as the minimum necessary citations

  1. Neese, F.
     Software update: the ORCA program system, version 6.0
     WIRES Comput. Molec. Sci. 2025 15(1), e70019
     doi.org/10.1002/wcms.70019

List of papers to cite with high priority. The work reported in these papers was absolutely
necessary for this run to complete.
Our perspective: the developers of density functionals and basis sets usually get cited in chemistry papers
Good! But without the algorithms to do something with them, the functionals or basis sets would not do anything.
Hence, in our opinion, the algorithm design and method developments papers are equally worthy of getting cited

  1. Lehtola, S.; Steigemann, C.; Oliveira, M.; Marques, M.
     Recent developments in Libxc - A comprehensive library of functionals for density functional theory
     Software X 2018 7 , 
     doi.org/10.1016/j.softx.2017.11.002
  2. Neese, F.
     The SHARK Integral Generation and Digestion System
     J. Comp. Chem. 2022 44(3), 381
     doi.org/10.1002/jcc.26942

List of suggested additional citations. These are papers that are important in the 'surrounding' of 
of this run, or papers that preceded the highly important papers. If you like your results we are grateful for a citation.

  1. Neese, F.
     The ORCA program system
     WIRES Comput. Molec. Sci. 2012 2(1), 73-78
     doi.org/10.1002/wcms.81
  2. Neese, F.
     Software update: the ORCA program system, version 4.0
     WIRES Comput. Molec. Sci. 2018 8(1), 1-6
     doi.org/10.1002/wcms.1327
  3. Neese, F.; Wennmohs, F.; Becker, U.; Riplinger, C.
     The ORCA quantum chemistry program package
     J. Chem. Phys. 2020 152(22), 224108
     doi.org/10.1063/5.0004608
  4. Neese, F.
     Software update: The ORCA program system—Version 5.0
     WIRES Comput. Molec. Sci. 2022 12(1), e1606
     doi.org/10.1002/wcms.1606

List of optional additional citations

  1. Neese, F.
     Approximate second-order SCF convergence for spin unrestricted wavefunctions
     Chem. Phys. Lett. 2000 325(1-3), 93-98
     doi.org/10.1016/s0009-2614(00)00662-x

Timings for individual modules:

Sum of individual times          ...       10.103 sec (=   0.168 min)
Startup calculation              ...        0.636 sec (=   0.011 min)   6.3 %
SCF iterations                   ...        9.000 sec (=   0.150 min)  89.1 %
Property integrals               ...        0.232 sec (=   0.004 min)   2.3 %
Property calculations            ...        0.230 sec (=   0.004 min)   2.3 %
Orbital localization             ...        0.005 sec (=   0.000 min)   0.0 %
                             ****ORCA TERMINATED NORMALLY****
TOTAL RUN TIME: 0 days 0 hours 0 minutes 10 seconds 857 msec
