
                                 *****************
                                 * O   R   C   A *
                                 *****************

                                            #,                                       
                                            ###                                      
                                            ####                                     
                                            #####                                    
                                            ######                                   
                                           ########,                                 
                                     ,,################,,,,,                         
                               ,,#################################,,                 
                          ,,##########################################,,             
                       ,#########################################, ''#####,          
                    ,#############################################,,   '####,        
                  ,##################################################,,,,####,       
                ,###########''''           ''''###############################       
              ,#####''   ,,,,##########,,,,          '''####'''          '####       
            ,##' ,,,,###########################,,,                        '##       
           ' ,,###''''                  '''############,,,                           
         ,,##''                                '''############,,,,        ,,,,,,###''
      ,#''                                            '''#######################'''  
     '                                                          ''''####''''         
             ,#######,   #######,   ,#######,      ##                                
            ,#'     '#,  ##    ##  ,#'     '#,    #''#        ,####,    ,#,          
            ##       ##  ##   ,#'  ##            #'  '#       #'       ,# #          
            ##       ##  #######   ##           ,######,      #####,      #          
            '#,     ,#'  ##    ##  '#,     ,#' ,#      #,     #,   #      #          
             '#######'   ##     ##  '#######'  #'      '#     '####' #    #          



                #########################################################
                #                        -***-                          #
                #          Department of theory and spectroscopy        #
                #                                                       #
                #                      Frank Neese                      #
                #                                                       #
                #     Directorship, Architecture, Infrastructure        #
                #                    SHARK, DRIVERS                     #
                #        Core code/Algorithms in most modules           #
                #                                                       #
                #        Max Planck Institute fuer Kohlenforschung      #
                #                Kaiser Wilhelm Platz 1                 #
                #                 D-45470 Muelheim/Ruhr                 #
                #                      Germany                          #
                #                                                       #
                #                  All rights reserved                  #
                #                        -***-                          #
                #########################################################


                         Program Version 6.1.1  -  RELEASE   -
                                (GIT: $487d211c$)
                          ($2025-11-21 10:33:24 +0100$)


 With contributions from (in alphabetic order):
[Max-Planck-Institut fuer Kohlenforschung]                               
  Daniel Aravena         : Magnetic Suceptibility                        
  Michael Atanasov       : Ab Initio Ligand Field Theory (pilot matlab implementation)
  Alexander A. Auer      : GIAO ZORA, VPT2 properties, NMR spectrum      
  Ute Becker             : All parallelization in ORCA, NUMFREQ, NUMCALC 
  Giovanni Bistoni       : ED, misc. LED, open-shell LED, HFLD           
  Dmytro Bykov           : pre 5.0 version of the SCF Hessian            
  Marcos Casanova-Páez   : Triplet and SCS-CIS(D). UHF-(DLPNO)-IP/EA/STEOM-CCSD. UHF-CVS-IP/STEOM-CCSD   
  Vijay G. Chilkuri      : MRCI spin determinant printing, contributions to CSF-ICE 
  Pauline Colinet        : FMM embedding                                 
  Dipayan Datta          : RHF DLPNO-CCSD density                        
  Achintya Kumar Dutta   : EOM-CC, STEOM-CC                              
  Nicolas Foglia         : Exact transition moments, OPA infrastructure, MCD improvements    
  Dmitry Ganyushin       : Spin-Orbit,Spin-Spin,Magnetic field MRCI      
  Miquel Garcia-Rates    : C-PCM and meta-GGA Hessian, CCSD/C-PCM, Gaussian charge scheme 
  Tiago L. C. Gouveia    : GS-ROHF, GS-ROCIS                             
  Yang Guo               : DLPNO-NEVPT2, F12-NEVPT2, CIM, IAO-localization        
  Andreas Hansen         : Spin unrestricted coupled pair/coupled cluster methods 
  Ingolf Harden          : AUTO-CI MPn and infrastructure                
  Benjamin Helmich-Paris : MC-RPA, TRAH-(SCF,CASSCF), AVAS, COSX integrals, SCF dyn. polar., MC-PDFT, srDFT 
  Lee Huntington         : MR-EOM, pCC                                   
  Robert Izsak           : Overlap fitted RIJCOSX, COSX-SCS-MP3, EOM     
  Riya Kayal             : Wick's Theorem for AUTO-CI, AUTO-CI UHF-CCSDT 
  Emily Kempfer          : AUTO-CI RHF CISDT and CCSDT, approximate NEVPT4
  Christian Kollmar      : KDIIS, OOCD, Brueckner-CCSD(T), CCSD density, CASPT2, CASPT2-K, improved NEVPT2 
  Axel Koslowski         : Symmetry handling                             
  Simone Kossmann        : meta-GGA functionals, TD-DFT gradient, OOMP2, (MP2 Hessian; deprecated post 5.0) 
  Lucas Lang             : DCDCAS, Hyperfine gauge corrections, ICE-SOC+SSC
  Marvin Lechner         : AUTO-CI (C++ implementation), FIC-MRCC        
  Spencer Leger          : CASSCF response                               
  Dagmar Lenk            : GEPOL surface, SMD, ORCA-2-JSON               
  Dimitrios Liakos       : Extrapolation schemes; Compound Job, Property file
  Dimitrios Manganas     : Further ROCIS development; embedding schemes. LFT, Crystal Embedding 
  Dimitrios Pantazis     : SARC Basis sets                               
  Anastasios Papadopoulos: AUTO-CI, single reference methods and gradients 
  Taras Petrenko         : pre 6.0 DFT Hessian and TD-DFT gradient,  ECA, NRVS 
  Petra Pikulova         : Analytic Raman intensities                    
  Peter Pinski           : DLPNO-MP2, DLPNO-MP2 Gradient                 
  Shashank Vittal Rao    : ES-AILFT, MagRelax                            
  Christoph Reimann      : Effective Core Potentials                     
  Marius Retegan         : Local ZFS, SOC                                
  Christoph Riplinger    : Optimizer, TS searches, QM/MM, DLPNO-CCSD(T), (RO)-DLPNO pert. Triples 
  Michael Roemelt        : Original ROCIS implementation, recursive CI coupling coefficients
  Masaaki Saitow         : Open-shell DLPNO-CCSD energy and density      
  Barbara Sandhoefer     : DKH picture change effects                    
  Yorick L. A. Schmerwitz: GMF and freeze-and-release deltaSCF, NEB S-IDPP initial path                    
  Kantharuban Sivalingam : CASSCF convergence/infrastructure, NEVPT2, NEVPT3, NEVPT4(SD), FIC-MRCI and CEPA variants
  Bernardo de Souza      : ESD, SOC TD-DFT                               
  Georgi L. Stoychev     : AutoAux, RI-MP2 NMR, DLPNO-MP2 response, X2C  
  Van Anh Tran           : RI-MP2 g-tensors                              
  Willem Van den Heuvel  : Paramagnetic NMR                              
  Zikuan Wang            : NOTCH, Electric field optimization            
  Frank Wennmohs         : Technical directorship and infrastructure     
  Hang Xu                : AUTO-CI-Response properties                   
                                                                         
[FACCTs GmbH]                                                            
  Markus Bursch, Nicolas Foglia, Miquel Garcia-Rates, Ingolf Harden, Hagen Neugebauer, Anastasios Papadopoulos, 
  Christoph Riplinger, Bernardo de Souza, Georgi L. Stoychev                                                    
                                                                 
  APM, various basis sets, CI-OPT, improved COSX, DLPNO-Multilevel,           
  DOCKER, DRACO, updates on ESD, Fragmentator, GOAT, IRC, LR-CPCM, L-BFGS, MBIS, meta-GGA TD-DFT gradient, ML-optimized integration grids, 
  MM, NACMEs, nearIR, NEB, NEB-TS, NL-DFT gradient (VV10), 2- and 3-layer-ONIOM, interface openCOSMO-RS, QMMM,   
  Crystal-QMMM, RESP, rigid body optimization, SF, symmetry and pop. for TD-DFT, various functionals, SOLVATOR                                   
                                                                         
[Other institutions]                                                     
  V. Asgeirsson          : NEB                                           
  Christoph Bannwarth    : sTDA-DFT, sTD-DFT, PBEh-3c, B97-3c, D3        
  Giovanni Bistoni       : ETS/NOCV, ADLD/ADEX, COVALED                  
  Martin Brehm           : Molecular dynamics                            
  Ronald Cardenas        : ETS/NOCV                                      
  Martina Colucci        : COVALED                                       
  Sebastian Ehlert       : rSCAN, r2SCAN, r2SCAN-3c, D4, dhf basis sets  
  Marvin Friede          : D4 for Fr, Ra, Ac-Lr                          
  Lars Goerigk           : TD-DFT with DH, B97 family of functionals     
  Stefan Grimme          : VdW corrections, initial TS optimization, DFT functionals, gCP, sTDA/sTD-DF 
  Waldemar Hujo          : DFT-NL                                        
  H. Jonsson             : NEB                                           
  Holger Kruse           : gCP                                           
  Marcel Mueller         : wB97X-3c, vDZP basis set                      
  Hagen Neugebauer       : wr2SCAN, Native XTB                           
  Gianluca Regni         : ADLD/ADEX                                     
  Tobias Risthaus        : pre 6.0 range-separated hybrid DFT and stability analysis
  Lukas Wittmann         : regularized MP2, r2SCAN double-hybrids, wr2SCAN        
                                                                         
We gratefully acknowledge several colleagues who have allowed us to      
interface, adapt or use parts of their codes:                            
  Ed Valeev, F. Pavosevic, A. Kumar             : LibInt (2-el integral package), F12 methods 
  Garnet Chan, S. Sharma, J. Yang, R. Olivares  : DMRG                   
  Ulf Ekstrom                                   : XCFun DFT Library      
  Mihaly Kallay                                 : mrcc  (arbitrary order and MRCC methods)
  Frank Weinhold                                : gennbo (NPA and NBO analysis)           
  Simon Mueller                                 : openCOSMO-RS                            
  Christopher J. Cramer and Donald G. Truhlar   : smd solvation model                     
  S Lehtola, MJT Oliveira, MAL Marques          : LibXC Library                           
  Liviu Ungur et al                             : ANISO software                          


 Your calculation uses the libint2 library for the computation of 2-el integrals
 For citations please refer to: http://libint.valeyev.net

 Your ORCA version has been built with support for libXC version: 7.0.0
 For citations please refer to: https://libxc.gitlab.io

 This ORCA versions uses:
   CBLAS   interface :  Fast vector & matrix operations
   LAPACKE interface :  Fast linear algebra routines
   SCALAPACK package :  Parallel linear algebra routines
   Shared memory     :  Shared parallel matrices
   BLAS/LAPACK       :  OpenBLAS 0.3.29  USE64BITINT DYNAMIC_ARCH NO_AFFINITY Cooperlake SINGLE_THREADED
        Core in use  :  Cooperlake
   Copyright (c) 2011-2014, The OpenBLAS Project


  ***********************************
  * Starting time: Wed May 20 11:53:37 2026
  * Host name:     c1-21
  * Process ID:    2170406
  * Working dir.:  /cluster/projects/nn14654k/ylvaos/basis_set_n_funcs/functionals/gga_c_N12/C4H6/out
  ***********************************

Using LibXC functional ID  80 : Minnesota N12 correlation functional
[ 1]  R. Peverati and D. G. Truhlar.,  J. Chem. Theory Comput. 8, 2310 (2012)
Using LibXC functional ID  80 : Minnesota N12 correlation functional
[ 1]  R. Peverati and D. G. Truhlar.,  J. Chem. Theory Comput. 8, 2310 (2012)
Your calculation utilizes LibXC
by S. Lehtola, C. Steigemann, M. J. T. Oliveira & M. A. L. Marques
Please cite in your paper:
Lehtola, S.; Steigemann, C.; Oliveira, M.J.T.; Marques, M. A. L. Software X, 7, (2018), 1.
   

================================================================================

----- Orbital basis set information -----
Your calculation utilizes the basis: pcseg-4
   F. Jensen, J. Chem. Theory Comput. 10, 1074 (2014).

================================================================================
                                        WARNINGS
                       Please study these warnings very carefully!
================================================================================


WARNING: The basis set has functions with high angular momentum (Lmax>4).
         We might need to increase small grids for safety reasons and
         in general, DEFGRID3 is recommend for such cases.
  ===> : GRIDX1, TD-DFT and the CP-SCF AngGrids will be increased to at least 2


================================================================================
                                       INPUT FILE
================================================================================
NAME = /cluster/projects/nn14654k/ylvaos/basis_set_n_funcs/functionals/gga_c_N12/C4H6/inp/C4H6_gga_c_N12_pcseg4.inp
|  1> ! dft pcseg-4 TightSCF
|  2> %pal nprocs 8 end
|  3> 
|  4> %loc
|  5>   LocMet NewBoys
|  6>   Occ true
|  7> end
|  8> 
|  9> %method
| 10>   exchange None
| 11>   correlation gga_c_N12
| 12> end
| 13> 
| 14> %elprop
| 15>   Dipole true
| 16>   Quadrupole true
| 17> end
| 18> 
| 19> * xyz 0 1
| 20> C    0.000000000000   0.000000000000   1.632000000000
| 21> C    0.000000000000   0.000000000000   0.300000000000
| 22> C    0.000000000000   0.771000000000  -0.936300000000
| 23> C    0.000000000000  -0.771000000000  -0.936300000000
| 24> H    0.000000000000   0.914000000000   2.222200000000
| 25> H    0.000000000000  -0.914000000000   2.222200000000
| 26> H    0.912300000000   1.305900000000  -1.200300000000
| 27> H   -0.912300000000   1.305900000000  -1.200300000000
| 28> H   -0.912300000000  -1.305900000000  -1.200300000000
| 29> H    0.912300000000  -1.305900000000  -1.200300000000
| 30> *
| 31> 
| 32> 
| 33>                          ****END OF INPUT****
================================================================================

                       ****************************
                       * Single Point Calculation *
                       ****************************

---------------------------------
CARTESIAN COORDINATES (ANGSTROEM)
---------------------------------
  C      0.000000    0.000000    1.632000
  C      0.000000    0.000000    0.300000
  C      0.000000    0.771000   -0.936300
  C      0.000000   -0.771000   -0.936300
  H      0.000000    0.914000    2.222200
  H      0.000000   -0.914000    2.222200
  H      0.912300    1.305900   -1.200300
  H     -0.912300    1.305900   -1.200300
  H     -0.912300   -1.305900   -1.200300
  H      0.912300   -1.305900   -1.200300

----------------------------
CARTESIAN COORDINATES (A.U.)
----------------------------
  NO LB      ZA    FRAG     MASS         X           Y           Z
   0 C     6.0000    0    12.011    0.000000    0.000000    3.084033
   1 C     6.0000    0    12.011    0.000000    0.000000    0.566918
   2 C     6.0000    0    12.011    0.000000    1.456979   -1.769351
   3 C     6.0000    0    12.011    0.000000   -1.456979   -1.769351
   4 H     1.0000    0     1.008    0.000000    1.727210    4.199349
   5 H     1.0000    0     1.008    0.000000   -1.727210    4.199349
   6 H     1.0000    0     1.008    1.723997    2.467793   -2.268238
   7 H     1.0000    0     1.008   -1.723997    2.467793   -2.268238
   8 H     1.0000    0     1.008   -1.723997   -2.467793   -2.268238
   9 H     1.0000    0     1.008    1.723997   -2.467793   -2.268238

--------------------------------
INTERNAL COORDINATES (ANGSTROEM)
--------------------------------
 C      0   0   0     0.000000000000     0.00000000     0.00000000
 C      1   0   0     1.332000000000     0.00000000     0.00000000
 C      2   1   0     1.457010188708   148.05088964     0.00000000
 C      2   1   3     1.457010188708   148.05088964   180.00000000
 H      1   2   3     1.087994503663   122.85166680     0.00000000
 H      1   2   3     1.087994503663   122.85166680   180.00000000
 H      3   2   1     1.090002431190   117.72260444    70.99760541
 H      3   2   1     1.090002431190   117.72260444   289.00239459
 H      4   2   1     1.090002431190   117.72260444    70.99760541
 H      4   2   1     1.090002431190   117.72260444   289.00239459

---------------------------
INTERNAL COORDINATES (A.U.)
---------------------------
 C      0   0   0     0.000000000000     0.00000000     0.00000000
 C      1   0   0     2.517115210383     0.00000000     0.00000000
 C      2   1   0     2.753350230992   148.05088964     0.00000000
 C      2   1   3     2.753350230992   148.05088964   180.00000000
 H      1   2   3     2.056011647134   122.85166680     0.00000000
 H      1   2   3     2.056011647134   122.85166680   180.00000000
 H      3   2   1     2.059806080257   117.72260444    70.99760541
 H      3   2   1     2.059806080257   117.72260444   289.00239459
 H      4   2   1     2.059806080257   117.72260444    70.99760541
 H      4   2   1     2.059806080257   117.72260444   289.00239459

---------------------
BASIS SET INFORMATION
---------------------
There are 2 groups of distinct atoms

 Group   1 Type C   : 20s11p6d3f2g1h contracted to 6s5p6d3f2g1h pattern {1241111/71111/111111/111/11/1}
 Group   2 Type H   : 11s6p3d2f1g contracted to 5s6p3d2f1g pattern {71111/111111/111/11/1}

Atom   0C    basis set group =>   1
Atom   1C    basis set group =>   1
Atom   2C    basis set group =>   1
Atom   3C    basis set group =>   1
Atom   4H    basis set group =>   2
Atom   5H    basis set group =>   2
Atom   6H    basis set group =>   2
Atom   7H    basis set group =>   2
Atom   8H    basis set group =>   2
Atom   9H    basis set group =>   2


           ************************************************************
           *        Program running with 8 parallel MPI-processes     *
           *              working on a common directory               *
           ************************************************************
------------------------------------------------------------------------------
                             ORCA STARTUP CALCULATIONS
------------------------------------------------------------------------------
------------------------------------------------------------------------------
                   ___                                                        
                  /   \      - P O W E R E D   B Y -                         
                 /     \                                                     
                 |  |  |   _    _      __       _____    __    __             
                 |  |  |  | |  | |    /  \     |  _  \  |  |  /  |          
                  \  \/   | |  | |   /    \    | | | |  |  | /  /          
                 / \  \   | |__| |  /  /\  \   | |_| |  |  |/  /          
                |  |  |   |  __  | /  /__\  \  |    /   |      \           
                |  |  |   | |  | | |   __   |  |    \   |  |\   \          
                \     /   | |  | | |  |  |  |  | |\  \  |  | \   \       
                 \___/    |_|  |_| |__|  |__|  |_| \__\ |__|  \__/        
                                                                              
                      - O R C A' S   B I G   F R I E N D -                    
                                      &                                       
                       - I N T E G R A L  F E E D E R -                       
                                                                              
 v1 FN, 2020, v2 2021, v3 2022-2024                                           
------------------------------------------------------------------------------


----------------------
SHARK INTEGRAL PACKAGE
----------------------

Number of atoms                             ...     10
Number of basis functions                   ...    770
Number of shells                            ...    194
Maximum angular momentum                    ...      5
Integral batch strategy                     ... SHARK/LIBINT Hybrid
RI-J (if used) integral strategy            ... SPLIT-RIJ (Revised 2003 algorithm where possible)
Printlevel                                  ...      1
Contraction scheme used                     ... SEGMENTED contraction
Prescreening option                         ... SCHWARTZ
   Thresh                                   ... 2.500e-11
   Tcut                                     ... 2.500e-12
   Tpresel                                  ... 2.500e-12 
Coulomb Range Separation                    ... NOT USED
Exchange Range Separation                   ... NOT USED
Multipole approximations                    ... NOT USED
Finite Nucleus Model                        ... NOT USED
CABS basis                                  ... NOT available
Auxiliary Coulomb fitting basis             ... NOT available
Auxiliary J/K fitting basis                 ... NOT available
Auxiliary Correlation fitting basis         ... NOT available
Auxiliary 'external' fitting basis          ... NOT available

Checking pre-screening integrals            ... done (  0.0 sec) Dimension = 194
   => SHARK Basis and OBASIS are compatible. Storing Pre-screening
Shell pair information
Shell pair cut-off parameter TPreSel        ...   2.5e-12
Total number of shell pairs                 ...     18915
Shell pairs after pre-screening             ...     17454
Total number of primitive shell pairs       ...     48703
Primitive shell pairs kept                  ...     35948
          la=0 lb=0:   1447 shell pairs
          la=1 lb=0:   2810 shell pairs
          la=1 lb=1:   1408 shell pairs
          la=2 lb=0:   2190 shell pairs
          la=2 lb=1:   2130 shell pairs
          la=2 lb=2:    866 shell pairs
          la=3 lb=0:   1230 shell pairs
          la=3 lb=1:   1188 shell pairs
          la=3 lb=2:    936 shell pairs
          la=3 lb=3:    274 shell pairs
          la=4 lb=0:    688 shell pairs
          la=4 lb=1:    666 shell pairs
          la=4 lb=2:    520 shell pairs
          la=4 lb=3:    292 shell pairs
          la=4 lb=4:     87 shell pairs
          la=5 lb=0:    210 shell pairs
          la=5 lb=1:    202 shell pairs
          la=5 lb=2:    162 shell pairs
          la=5 lb=3:     90 shell pairs
          la=5 lb=4:     48 shell pairs
          la=5 lb=5:     10 shell pairs

Checking whether 4 symmetric matrices of dimension 770 fit in memory
:Max Core in MB      =   4096.00
 MB in use           =     29.81
 MB left             =   4066.19
 MB needed           =      9.06
 Data fit in memory  = YES
Calculating Nuclear repulsion               ... done (  0.0 sec) ENN=    109.249345578353 Eh

Diagonalization of the overlap matrix:
Smallest eigenvalue                        ... 2.480e-07
Time for diagonalization                   ...    0.050 sec
Threshold for overlap eigenvalues          ... 1.000e-07
Number of eigenvalues below threshold      ... 0

IMPORTANT:
Smallest eigenvalue of S below the DiffSThresh (1.000e-06) while
Thresh>1e-12 and/or TCut>1e-13! In order to avoid SCF convergence issues,
Thresh will be set to at least 1e-12 and TCut to at least 1e-13.
This can be turned off by adding %SCF DiffSThresh -1 END to the input.

Time for construction of square roots      ...    0.032 sec
Total time needed                          ...    0.085 sec

-------------------
DFT GRID GENERATION
-------------------

General Integration Accuracy     IntAcc      ... 4.388
Radial Grid Type                 RadialGrid  ... OptM3 with GC (2021)
Angular Grid (max. ang.)         AngularGrid ... 4 (Lebedev-302)
Angular grid pruning method      GridPruning ... 4 (adaptive)
Weight generation scheme         WeightScheme... mBecke (2022)
Basis function cutoff            BFCut       ... 1.0000e-11
Integration weight cutoff        WCut        ... 1.0000e-14
Partially contracted basis set               ... off
Rotationally invariant grid construction     ... off
Angular grids for H and He will be reduced by one unit
Diffuse basis detected: some atoms will have their outermost
                        angular grid increased by 1.
Core-polarized basis detected: some atoms will have their core
                               angular grid increased.

Total number of grid points                  ...    53104
Total number of batches                      ...      835
Average number of points per batch           ...       63
Average number of grid points per atom       ...     5310
Grids setup in   0.2 sec
Initializing property integral containers    ... done (  0.0 sec)

SHARK setup successfully completed in   0.9 seconds

Maximum memory used throughout the entire STARTUP-calculation: 64.2 MB


           ************************************************************
           *        Program running with 8 parallel MPI-processes     *
           *              working on a common directory               *
           ************************************************************
-------------------------------------------------------------------------------
                                 ORCA GUESS
                   Start orbitals & Density for SCF / CASSCF
-------------------------------------------------------------------------------

------------
SCF SETTINGS
------------
Hamiltonian:
 Density Functional     Method          .... DFT(GTOs)
 Exchange Functional    Exchange        .... no Exchange
  Functional kind                       .... Correlation
  Functional name                       .... Minnesota N12 correlation functional
  Functional family                     .... GGA
  Functional refs                              
    [ 0] R. Peverati and D. G. Truhlar.,  J. Chem. Theory Comput. 8, 2310 (2012), doi: 10.1021/ct3002656
  Functional external parameters        .... 10
    Parameter  0 _css0      =  1.000000e+00 : u^0 coefficient for same-spin correlation
    Parameter  1 _css1      = -5.531700e+00 : u^1 coefficient for same-spin correlation
    Parameter  2 _css2      =  3.079580e+01 : u^2 coefficient for same-spin correlation
    Parameter  3 _css3      = -5.641960e+01 : u^3 coefficient for same-spin correlation
    Parameter  4 _css4      =  3.212500e+01 : u^4 coefficient for same-spin correlation
    Parameter  5 _cos0      =  1.000000e+00 : u^0 coefficient for opposite-spin correlation
    Parameter  6 _cos1      =  3.245110e+00 : u^1 coefficient for opposite-spin correlation
    Parameter  7 _cos2      = -2.528930e+01 : u^2 coefficient for opposite-spin correlation
    Parameter  8 _cos3      =  1.444070e+01 : u^3 coefficient for opposite-spin correlation
    Parameter  9 _cos4      =  1.968700e+01 : u^4 coefficient for opposite-spin correlation
 Gradients option       PostSCFGGA      .... off


General Settings:
 Integral files         IntName         .... /cluster/projects/nn14654k/ylvaos/basis_set_n_funcs/functionals/gga_c_N12/C4H6/inp/C4H6_gga_c_N12_pcseg4
 Hartree-Fock type      HFTyp           .... RHF
 Total Charge           Charge          ....    0
 Multiplicity           Mult            ....    1
 Number of Electrons    NEL             ....   30
 Basis Dimension        Dim             ....  770
 Nuclear Repulsion      ENuc            ....    109.2493455784 Eh

Convergence Acceleration:
 AO-DIIS                CNVDIIS         .... on
   Start iteration      DIISMaxIt       ....    12
   Startup error        DIISStart       ....  0.200000
   # of expansion vecs  DIISMaxEq       ....     5
   Bias factor          DIISBfac        ....   1.050
   Max. coefficient     DIISMaxC        ....  10.000
 MO-DIIS                CNVKDIIS        .... off
 Trust-Rad. Augm. Hess. CNVTRAH         .... auto
   Auto Start mean grad. ratio tolernc. ....  1.125000
   Auto Start start iteration           ....    50
   Auto Start num. interpolation iter.  ....    10
   Max. Number of Micro iterations      ....    24
   Max. Number of Macro iterations      .... Maxiter - #DIIS iter
   Number of Davidson start vectors     ....     2
   Converg. threshold    (grad. norm)   ....   1.000e-05
   Grad. Scal. Fac. for Micro threshold ....   0.100
   Minimum threshold for Micro iter.    ....   1.000e-02
   NR start threshold (gradient norm)   ....   1.000e-04
   Initial trust radius                 ....   0.400
   Minimum AH scaling param. (alpha)    ....   1.000
   Maximum AH scaling param. (alpha)    .... 1000.000
   Quad. conv. algorithm                .... NR
   White noise on init. David. guess    .... on
   Maximum white noise                  ....   0.010
   Pseudo random numbers                .... off
   Inactive MOs                         .... canonical
   Orbital update algorithm             .... Taylor
   Preconditioner                       .... Diag
   Full preconditioner red. dimension   ....   250
 SOSCF                 CNVSOSCF           .... on
   Start iteration     SOSCFMaxIt         ....   150
   Startup grad/error  SOSCFStart         ....  0.003300
   Hessian update      SOSCFHessUp        .... L-BFGS
   Autom. constraints  SOSCFAutoConstrain .... off
 Level Shifting         CNVShift        .... on
   Level shift para.    LevelShift      ....    0.2500
   Turn off err/grad.   ShiftErr        ....    0.0010
 Zerner damping         CNVZerner       .... off
 Static damping         CNVDamp         .... on
   Fraction old density DampFac         ....    0.7000
   Max. Damping (<1)    DampMax         ....    0.9800
   Min. Damping (>=0)   DampMin         ....    0.0000
   Turn off err/grad.   DampErr         ....    0.1000

SCF Procedure:
 Maximum # iterations   MaxIter         ....   125
 SCF integral mode      SCFMode         .... Direct
   Integral package                     .... SHARK and LIBINT hybrid scheme
 Reset frequency        DirectResetFreq ....    20
 Integral Threshold     Thresh          ....  1.000e-12 Eh
 Primitive CutOff       TCut            ....  1.000e-13 Eh

Convergence Tolerance:
 Convergence Check Mode ConvCheckMode   .... Total+1el-Energy
 Convergence forced     ConvForced      .... 0
 Energy Change          TolE            ....  1.000e-08 Eh
 1-El. energy change                    ....  1.000e-05 Eh
 Orbital Gradient       TolG            ....  1.000e-05
 Orbital Rotation angle TolX            ....  1.000e-05
 DIIS Error             TolErr          ....  5.000e-07

------------------------------
INITIAL GUESS: MODEL POTENTIAL
------------------------------
Loading Hartree-Fock densities                     ... done
Calculating cut-offs                               ... done
Initializing the effective Hamiltonian             ... done
Setting up the integral package (SHARK)            ... done
Starting the Coulomb interaction                   ... done (   0.1 sec)
Making the grid                                    ... done (   0.1 sec)
Mapping shells                                     ... done
Starting the XC term evaluation                    ... done (   0.1 sec)
  promolecular density results
     # of electrons  =     29.996393201
     EX              =      0.000000000
     EC              =     -1.502442185
     EX+EC           =     -1.502442185
Transforming the Hamiltonian                       ... done (   0.0 sec)
Diagonalizing the Hamiltonian                      ... done (   0.1 sec)
Back transforming the eigenvectors                 ... done (   0.0 sec)
Now organizing SCF variables                       ... done
                      ------------------
                      INITIAL GUESS DONE (   0.4 sec)
                      ------------------
             **** ENERGY FILE WAS UPDATED (/cluster/projects/nn14654k/ylvaos/basis_set_n_funcs/functionals/gga_c_N12/C4H6/inp/C4H6_gga_c_N12_pcseg4.en.tmp) ****
Finished Guess after   0.6 sec
Maximum memory used throughout the entire GUESS-calculation: 62.3 MB


           ************************************************************
           *        Program running with 8 parallel MPI-processes     *
           *              working on a common directory               *
           ************************************************************

-------------------------------------------------------------------------------------------
                                      ORCA LEAN-SCF
                              memory conserving SCF solver
-------------------------------------------------------------------------------------------

----------------------------------------D-I-I-S--------------------------------------------
Iteration    Energy (Eh)           Delta-E    RMSDP     MaxDP     DIISErr   Damp  Time(sec)
-------------------------------------------------------------------------------------------
               ***  Starting incremental Fock matrix formation  ***
    1    -131.8130570154911538     0.00e+00  1.91e+01  1.66e+03  6.84e-01  0.700  61.2
    2    -133.2865928560079851    -1.47e+00  1.35e+01  1.17e+03  2.58e-01  0.700  59.7
                               ***Turning on AO-DIIS***
    3    -133.7009978357449995    -4.14e-01  9.47e+00  8.22e+02  1.50e-01  0.700  59.2
    4    -133.9026383146201056    -2.02e-01  6.63e+00  5.76e+02  1.65e-01  0.700  58.2
    5    -134.0331756856708125    -1.31e-01  4.64e+00  4.03e+02  1.55e-01  0.700  57.6
    6    -134.1289713512645676    -9.58e-02  3.24e+00  2.81e+02  1.41e-01  0.700  57.9
    7    -134.2045905141166600    -7.56e-02  2.27e+00  1.97e+02  1.26e-01  0.700  57.3
    8    -134.2762484459772736    -7.17e-02  1.58e+00  1.37e+02  9.51e-02  0.700  57.7
    9    -134.3292794279981877    -5.30e-02  3.58e+00  3.09e+02  5.79e-02  0.000  56.8
   10    -134.4314939513756144    -1.02e-01  2.16e-01  2.05e+01  2.74e-02  0.000  58.2
   11    -134.4346199389836443    -3.13e-03  1.92e-01  1.78e+01  1.16e-02  0.000  57.1
   12    -134.4350334262006754    -4.13e-04  1.41e-01  1.28e+01  3.40e-03  0.000  54.2
                              *** Initializing SOSCF ***
---------------------------------------S-O-S-C-F--------------------------------------
Iteration    Energy (Eh)           Delta-E    RMSDP     MaxDP     MaxGrad    Time(sec)
--------------------------------------------------------------------------------------
   13    -134.4351078430823918    -7.44e-05  6.01e-02  5.42e+00  9.45e-04    54.5
               *** Restarting incremental Fock matrix formation ***
   14    -134.4351275647252351    -1.97e-05  1.05e-01  9.36e+00  5.11e-04    60.8
   15    -134.4351362561110363    -8.69e-06  3.92e-02  3.47e+00  2.37e-04    51.5
   16    -134.4351346711398492     1.58e-06  4.88e-02  4.36e+00  3.21e-04    50.6
   17    -134.4351383794994490    -3.71e-06  2.96e-03  2.84e-01  6.19e-05    49.2
   18    -134.4351381811292185     1.98e-07  4.02e-03  3.59e-01  1.31e-04    46.6
   19    -134.4351385212928562    -3.40e-07  2.63e-03  2.49e-01  1.94e-05    42.8
   20    -134.4351385297200636    -8.43e-09  6.34e-04  6.12e-02  1.51e-05    44.2
                 **** Energy Check signals convergence ****

               *****************************************************
               *                     SUCCESS                       *
               *           SCF CONVERGED AFTER  20 CYCLES          *
               *****************************************************

             **** ENERGY FILE WAS UPDATED (/cluster/projects/nn14654k/ylvaos/basis_set_n_funcs/functionals/gga_c_N12/C4H6/inp/C4H6_gga_c_N12_pcseg4.en.tmp) ****

----------------
TOTAL SCF ENERGY
----------------

Total Energy       :       -134.43513854517414 Eh           -3658.16610 eV

Components:
Nuclear Repulsion  :        109.24934557835338 Eh            2972.82583 eV
Electronic Energy  :       -243.68448412352754 Eh           -6630.99193 eV
One Electron Energy:       -414.93061586155358 Eh          -11290.83607 eV
Two Electron Energy:        171.24613173802604 Eh            4659.84415 eV

Virial components:
Potential Energy   :       -272.50853219610565 Eh           -7415.33415 eV
Kinetic Energy     :        138.07339365093154 Eh            3757.16805 eV
Virial Ratio       :          1.97364984658119

DFT components:
N(Alpha)           :       15.000330247292 electrons
N(Beta)            :       15.000330247292 electrons
N(Total)           :       30.000660494583 electrons
E(X)               :        0.000000000000 Eh       
E(C)               :       -1.471409658612 Eh       
E(XC)              :       -1.471409658612 Eh       

---------------
SCF CONVERGENCE
---------------

  Last Energy change         ...    8.4272e-09  Tolerance :   1.0000e-08
  Last MAX-Density change    ...    6.1218e-02  Tolerance :   1.0000e-07
  Last RMS-Density change    ...    6.3388e-04  Tolerance :   5.0000e-09
  Last DIIS Error            ...    9.4500e-04  Tolerance :   5.0000e-07
  Last Orbital Gradient      ...    1.5143e-05  Tolerance :   1.0000e-05
  Last Orbital Rotation      ...    4.0794e-05  Tolerance :   1.0000e-05


----------------
ORBITAL ENERGIES
----------------

  NO   OCC          E(Eh)            E(eV) 
   0   2.0000      -8.393131      -228.3887 
   1   2.0000      -8.390202      -228.3090 
   2   2.0000      -8.390006      -228.3037 
   3   2.0000      -8.371309      -227.7949 
   4   2.0000      -0.532268       -14.4838 
   5   2.0000      -0.370223       -10.0743 
   6   2.0000      -0.285881        -7.7792 
   7   2.0000      -0.222016        -6.0414 
   8   2.0000      -0.207557        -5.6479 
   9   2.0000      -0.165666        -4.5080 
  10   2.0000      -0.137051        -3.7294 
  11   2.0000      -0.077594        -2.1114 
  12   2.0000      -0.055482        -1.5098 
  13   2.0000      -0.025146        -0.6842 
  14   2.0000      -0.018060        -0.4914 
  15   0.0000       0.059777         1.6266 
  16   0.0000       0.069096         1.8802 
  17   0.0000       0.070119         1.9080 
  18   0.0000       0.075385         2.0513 
  19   0.0000       0.091774         2.4973 
  20   0.0000       0.097061         2.6412 
  21   0.0000       0.099279         2.7015 
  22   0.0000       0.114000         3.1021 
  23   0.0000       0.118950         3.2368 
  24   0.0000       0.128727         3.5028 
  25   0.0000       0.136537         3.7154 
*Only the first 10 virtual orbitals were printed.

                    ********************************
                    * MULLIKEN POPULATION ANALYSIS *
                    ********************************

-----------------------
MULLIKEN ATOMIC CHARGES
-----------------------
   0 C :   -0.352207
   1 C :   -2.210538
   2 C :    0.159943
   3 C :    0.159974
   4 H :    0.500587
   5 H :    0.500586
   6 H :    0.310415
   7 H :    0.310413
   8 H :    0.310413
   9 H :    0.310415
Sum of atomic charges:    0.0000000

--------------------------------
MULLIKEN REDUCED ORBITAL CHARGES
--------------------------------
  0 C s       :     2.200853  s :     2.200853
      pz      :     1.788306  p :     3.964961
      px      :     0.918319
      py      :     1.258337
      dz2     :     0.041844  d :     0.179974
      dxz     :    -0.002834
      dyz     :     0.148443
      dx2y2   :    -0.005126
      dxy     :    -0.002352
      f0      :     0.004517  f :     0.005236
      f+1     :     0.000596
      f-1     :    -0.004689
      f+2     :     0.003294
      f-2     :    -0.000126
      f+3     :     0.000309
      f-3     :     0.001335
      g0      :     0.000653  g :     0.001127
      g+1     :     0.000321
      g-1     :    -0.000236
      g+2     :     0.000084
      g-2     :     0.000002
      g+3     :     0.000028
      g-3     :     0.000230
      g+4     :     0.000046
      g-4     :     0.000000
      h0      :     0.000034  h :     0.000056
      h+1     :     0.000005
      h-1     :    -0.000005
      h+2     :     0.000000
      h-2     :    -0.000000
      h+3     :     0.000000
      h-3     :     0.000011
      h+4     :     0.000008
      h-4     :    -0.000000
      h+5     :     0.000000
      h-5     :     0.000003

  1 C s       :     3.559373  s :     3.559373
      pz      :     1.745359  p :     4.015988
      px      :     0.995899
      py      :     1.274730
      dz2     :     0.106818  d :     0.613099
      dxz     :     0.225437
      dyz     :     0.219699
      dx2y2   :     0.041972
      dxy     :     0.019173
      f0      :     0.001730  f :     0.021138
      f+1     :     0.010890
      f-1     :     0.008776
      f+2     :    -0.001623
      f-2     :     0.000731
      f+3     :     0.000481
      f-3     :     0.000153
      g0      :     0.000060  g :     0.000877
      g+1     :    -0.000147
      g-1     :     0.000591
      g+2     :     0.000141
      g-2     :     0.000129
      g+3     :     0.000081
      g-3     :     0.000023
      g+4     :    -0.000012
      g-4     :     0.000012
      h0      :     0.000033  h :     0.000065
      h+1     :    -0.000005
      h-1     :     0.000005
      h+2     :     0.000025
      h-2     :     0.000001
      h+3     :     0.000000
      h-3     :     0.000006
      h+4     :    -0.000000
      h-4     :    -0.000000
      h+5     :    -0.000000
      h-5     :     0.000000

  2 C s       :     1.228667  s :     1.228667
      pz      :     1.543258  p :     4.644901
      px      :     1.317130
      py      :     1.784512
      dz2     :     0.034283  d :    -0.040950
      dxz     :     0.040934
      dyz     :    -0.084777
      dx2y2   :    -0.025532
      dxy     :    -0.005858
      f0      :    -0.002324  f :     0.006642
      f+1     :    -0.001439
      f-1     :     0.004067
      f+2     :     0.002371
      f-2     :     0.000757
      f+3     :    -0.001229
      f-3     :     0.004438
      g0      :    -0.000101  g :     0.000737
      g+1     :     0.000084
      g-1     :     0.000161
      g+2     :     0.000152
      g-2     :     0.000001
      g+3     :    -0.000029
      g-3     :     0.000084
      g+4     :     0.000189
      g-4     :     0.000196
      h0      :     0.000002  h :     0.000061
      h+1     :    -0.000000
      h-1     :     0.000005
      h+2     :     0.000013
      h-2     :     0.000005
      h+3     :    -0.000001
      h-3     :     0.000004
      h+4     :     0.000002
      h-4     :     0.000006
      h+5     :     0.000012
      h-5     :     0.000014

  3 C s       :     1.228613  s :     1.228613
      pz      :     1.543271  p :     4.644925
      px      :     1.317130
      py      :     1.784524
      dz2     :     0.034283  d :    -0.040953
      dxz     :     0.040934
      dyz     :    -0.084779
      dx2y2   :    -0.025533
      dxy     :    -0.005858
      f0      :    -0.002324  f :     0.006642
      f+1     :    -0.001439
      f-1     :     0.004067
      f+2     :     0.002371
      f-2     :     0.000757
      f+3     :    -0.001229
      f-3     :     0.004439
      g0      :    -0.000101  g :     0.000737
      g+1     :     0.000084
      g-1     :     0.000161
      g+2     :     0.000152
      g-2     :     0.000001
      g+3     :    -0.000029
      g-3     :     0.000084
      g+4     :     0.000189
      g-4     :     0.000196
      h0      :     0.000002  h :     0.000061
      h+1     :    -0.000000
      h-1     :     0.000005
      h+2     :     0.000013
      h-2     :     0.000005
      h+3     :    -0.000001
      h-3     :     0.000004
      h+4     :     0.000002
      h-4     :     0.000006
      h+5     :     0.000012
      h-5     :     0.000014

  4 H s       :     0.437626  s :     0.437626
      pz      :     0.008654  p :     0.066847
      px      :     0.007926
      py      :     0.050267
      dz2     :    -0.001744  d :    -0.005292
      dxz     :    -0.002326
      dyz     :    -0.000040
      dx2y2   :     0.004046
      dxy     :    -0.005229
      f0      :     0.000063  f :     0.000238
      f+1     :    -0.000012
      f-1     :     0.000172
      f+2     :     0.000208
      f-2     :    -0.000201
      f+3     :    -0.000129
      f-3     :     0.000139
      g0      :    -0.000001  g :    -0.000006
      g+1     :    -0.000000
      g-1     :    -0.000001
      g+2     :    -0.000001
      g-2     :    -0.000000
      g+3     :    -0.000002
      g-3     :    -0.000001
      g+4     :    -0.000000
      g-4     :    -0.000001

  5 H s       :     0.437627  s :     0.437627
      pz      :     0.008654  p :     0.066847
      px      :     0.007926
      py      :     0.050267
      dz2     :    -0.001744  d :    -0.005292
      dxz     :    -0.002326
      dyz     :    -0.000040
      dx2y2   :     0.004046
      dxy     :    -0.005229
      f0      :     0.000063  f :     0.000238
      f+1     :    -0.000012
      f-1     :     0.000172
      f+2     :     0.000208
      f-2     :    -0.000201
      f+3     :    -0.000129
      f-3     :     0.000139
      g0      :    -0.000001  g :    -0.000006
      g+1     :    -0.000000
      g-1     :    -0.000001
      g+2     :    -0.000001
      g-2     :    -0.000000
      g+3     :    -0.000002
      g-3     :    -0.000001
      g+4     :    -0.000000
      g-4     :    -0.000001

  6 H s       :     0.595041  s :     0.595041
      pz      :     0.015807  p :     0.092151
      px      :     0.033555
      py      :     0.042789
      dz2     :     0.000120  d :     0.001676
      dxz     :    -0.001085
      dyz     :    -0.001052
      dx2y2   :     0.001057
      dxy     :     0.002637
      f0      :     0.000099  f :     0.000722
      f+1     :    -0.000028
      f-1     :    -0.000022
      f+2     :     0.000033
      f-2     :     0.000090
      f+3     :     0.000209
      f-3     :     0.000341
      g0      :    -0.000001  g :    -0.000006
      g+1     :    -0.000000
      g-1     :    -0.000000
      g+2     :    -0.000000
      g-2     :    -0.000001
      g+3     :    -0.000000
      g-3     :    -0.000001
      g+4     :    -0.000001
      g-4     :    -0.000001

  7 H s       :     0.595041  s :     0.595041
      pz      :     0.015808  p :     0.092152
      px      :     0.033555
      py      :     0.042789
      dz2     :     0.000120  d :     0.001677
      dxz     :    -0.001085
      dyz     :    -0.001052
      dx2y2   :     0.001057
      dxy     :     0.002637
      f0      :     0.000099  f :     0.000722
      f+1     :    -0.000028
      f-1     :    -0.000022
      f+2     :     0.000033
      f-2     :     0.000090
      f+3     :     0.000209
      f-3     :     0.000341
      g0      :    -0.000001  g :    -0.000006
      g+1     :    -0.000000
      g-1     :    -0.000000
      g+2     :    -0.000000
      g-2     :    -0.000001
      g+3     :    -0.000000
      g-3     :    -0.000001
      g+4     :    -0.000001
      g-4     :    -0.000001

  8 H s       :     0.595042  s :     0.595042
      pz      :     0.015807  p :     0.092152
      px      :     0.033555
      py      :     0.042789
      dz2     :     0.000120  d :     0.001676
      dxz     :    -0.001085
      dyz     :    -0.001052
      dx2y2   :     0.001057
      dxy     :     0.002637
      f0      :     0.000099  f :     0.000722
      f+1     :    -0.000028
      f-1     :    -0.000022
      f+2     :     0.000033
      f-2     :     0.000090
      f+3     :     0.000209
      f-3     :     0.000341
      g0      :    -0.000001  g :    -0.000006
      g+1     :    -0.000000
      g-1     :    -0.000000
      g+2     :    -0.000000
      g-2     :    -0.000001
      g+3     :    -0.000000
      g-3     :    -0.000001
      g+4     :    -0.000001
      g-4     :    -0.000001

  9 H s       :     0.595042  s :     0.595042
      pz      :     0.015806  p :     0.092150
      px      :     0.033555
      py      :     0.042789
      dz2     :     0.000120  d :     0.001676
      dxz     :    -0.001085
      dyz     :    -0.001052
      dx2y2   :     0.001057
      dxy     :     0.002637
      f0      :     0.000099  f :     0.000722
      f+1     :    -0.000028
      f-1     :    -0.000022
      f+2     :     0.000033
      f-2     :     0.000090
      f+3     :     0.000209
      f-3     :     0.000341
      g0      :    -0.000001  g :    -0.000006
      g+1     :    -0.000000
      g-1     :    -0.000000
      g+2     :    -0.000000
      g-2     :    -0.000001
      g+3     :    -0.000000
      g-3     :    -0.000001
      g+4     :    -0.000001
      g-4     :    -0.000001



                     *******************************
                     * LOEWDIN POPULATION ANALYSIS *
                     *******************************

----------------------
LOEWDIN ATOMIC CHARGES
----------------------
   0 C :    0.563709
   1 C :   -0.119104
   2 C :    0.438398
   3 C :    0.438398
   4 H :   -0.257939
   5 H :   -0.257939
   6 H :   -0.201381
   7 H :   -0.201381
   8 H :   -0.201381
   9 H :   -0.201381

-------------------------------
LOEWDIN REDUCED ORBITAL CHARGES
-------------------------------
  0 C s       :     2.446147  s :     2.446147
      pz      :     0.936615  p :     2.498378
      px      :     0.692666
      py      :     0.869097
      dz2     :     0.100182  d :     0.410412
      dxz     :     0.052951
      dyz     :     0.233417
      dx2y2   :     0.020894
      dxy     :     0.002969
      f0      :     0.017189  f :     0.069653
      f+1     :     0.014382
      f-1     :     0.030676
      f+2     :     0.004180
      f-2     :     0.000314
      f+3     :     0.000550
      f-3     :     0.002362
      g0      :     0.003897  g :     0.011226
      g+1     :     0.002296
      g-1     :     0.004032
      g+2     :     0.000119
      g-2     :     0.000011
      g+3     :     0.000068
      g-3     :     0.000591
      g+4     :     0.000211
      g-4     :     0.000000
      h0      :     0.000147  h :     0.000475
      h+1     :     0.000099
      h-1     :     0.000182
      h+2     :     0.000004
      h-2     :     0.000000
      h+3     :     0.000002
      h-3     :     0.000018
      h+4     :     0.000015
      h-4     :     0.000000
      h+5     :     0.000004
      h-5     :     0.000005

  1 C s       :     2.447032  s :     2.447032
      pz      :     0.999633  p :     2.426982
      px      :     0.640432
      py      :     0.786916
      dz2     :     0.282744  d :     1.066490
      dxz     :     0.286726
      dyz     :     0.345601
      dx2y2   :     0.048154
      dxy     :     0.103265
      f0      :     0.051540  f :     0.155505
      f+1     :     0.016196
      f-1     :     0.039339
      f+2     :     0.014591
      f-2     :     0.029094
      f+3     :     0.004226
      f-3     :     0.000519
      g0      :     0.007633  g :     0.022538
      g+1     :     0.003337
      g-1     :     0.005568
      g+2     :     0.001746
      g-2     :     0.002651
      g+3     :     0.001058
      g-3     :     0.000359
      g+4     :     0.000080
      g-4     :     0.000107
      h0      :     0.000129  h :     0.000558
      h+1     :     0.000068
      h-1     :     0.000152
      h+2     :     0.000050
      h-2     :     0.000066
      h+3     :     0.000050
      h-3     :     0.000020
      h+4     :     0.000010
      h-4     :     0.000012
      h+5     :     0.000001
      h-5     :     0.000000

  2 C s       :     2.374349  s :     2.374349
      pz      :     0.768112  p :     2.350177
      px      :     0.815122
      py      :     0.766944
      dz2     :     0.133312  d :     0.703243
      dxz     :     0.101203
      dyz     :     0.167311
      dx2y2   :     0.094602
      dxy     :     0.206817
      f0      :     0.030779  f :     0.122541
      f+1     :     0.011004
      f-1     :     0.012920
      f+2     :     0.027556
      f-2     :     0.009052
      f+3     :     0.019048
      f-3     :     0.012182
      g0      :     0.001152  g :     0.010912
      g+1     :     0.000536
      g-1     :     0.003261
      g+2     :     0.001009
      g-2     :     0.001120
      g+3     :     0.000365
      g-3     :     0.001656
      g+4     :     0.000573
      g-4     :     0.001240
      h0      :     0.000018  h :     0.000379
      h+1     :     0.000002
      h-1     :     0.000066
      h+2     :     0.000052
      h-2     :     0.000052
      h+3     :     0.000021
      h-3     :     0.000048
      h+4     :     0.000023
      h-4     :     0.000007
      h+5     :     0.000052
      h-5     :     0.000038

  3 C s       :     2.374349  s :     2.374349
      pz      :     0.768112  p :     2.350177
      px      :     0.815122
      py      :     0.766944
      dz2     :     0.133312  d :     0.703243
      dxz     :     0.101203
      dyz     :     0.167311
      dx2y2   :     0.094602
      dxy     :     0.206817
      f0      :     0.030779  f :     0.122541
      f+1     :     0.011004
      f-1     :     0.012920
      f+2     :     0.027556
      f-2     :     0.009052
      f+3     :     0.019048
      f-3     :     0.012182
      g0      :     0.001152  g :     0.010912
      g+1     :     0.000536
      g-1     :     0.003261
      g+2     :     0.001009
      g-2     :     0.001120
      g+3     :     0.000365
      g-3     :     0.001656
      g+4     :     0.000573
      g-4     :     0.001240
      h0      :     0.000018  h :     0.000379
      h+1     :     0.000002
      h-1     :     0.000066
      h+2     :     0.000052
      h-2     :     0.000052
      h+3     :     0.000021
      h-3     :     0.000048
      h+4     :     0.000023
      h-4     :     0.000007
      h+5     :     0.000052
      h-5     :     0.000038

  4 H s       :     0.753993  s :     0.753993
      pz      :     0.099648  p :     0.319780
      px      :     0.095701
      py      :     0.124431
      dz2     :     0.043821  d :     0.155275
      dxz     :     0.016268
      dyz     :     0.039701
      dx2y2   :     0.030564
      dxy     :     0.024921
      f0      :     0.002817  f :     0.028649
      f+1     :     0.000229
      f-1     :     0.009176
      f+2     :     0.006161
      f-2     :     0.003883
      f+3     :     0.002638
      f-3     :     0.003745
      g0      :     0.000020  g :     0.000241
      g+1     :     0.000001
      g-1     :     0.000053
      g+2     :     0.000050
      g-2     :     0.000008
      g+3     :     0.000039
      g-3     :     0.000032
      g+4     :     0.000017
      g-4     :     0.000021

  5 H s       :     0.753993  s :     0.753993
      pz      :     0.099648  p :     0.319780
      px      :     0.095701
      py      :     0.124431
      dz2     :     0.043821  d :     0.155275
      dxz     :     0.016268
      dyz     :     0.039701
      dx2y2   :     0.030564
      dxy     :     0.024921
      f0      :     0.002817  f :     0.028649
      f+1     :     0.000229
      f-1     :     0.009176
      f+2     :     0.006161
      f-2     :     0.003883
      f+3     :     0.002638
      f-3     :     0.003745
      g0      :     0.000020  g :     0.000241
      g+1     :     0.000001
      g-1     :     0.000053
      g+2     :     0.000050
      g-2     :     0.000008
      g+3     :     0.000039
      g-3     :     0.000032
      g+4     :     0.000017
      g-4     :     0.000021

  6 H s       :     0.712242  s :     0.712242
      pz      :     0.101127  p :     0.300395
      px      :     0.111732
      py      :     0.087536
      dz2     :     0.021786  d :     0.158679
      dxz     :     0.034556
      dyz     :     0.019602
      dx2y2   :     0.049995
      dxy     :     0.032741
      f0      :     0.002530  f :     0.029820
      f+1     :     0.004603
      f-1     :     0.002014
      f+2     :     0.001863
      f-2     :     0.005022
      f+3     :     0.007669
      f-3     :     0.006118
      g0      :     0.000025  g :     0.000245
      g+1     :     0.000020
      g-1     :     0.000009
      g+2     :     0.000010
      g-2     :     0.000035
      g+3     :     0.000016
      g-3     :     0.000035
      g+4     :     0.000056
      g-4     :     0.000039

  7 H s       :     0.712242  s :     0.712242
      pz      :     0.101127  p :     0.300395
      px      :     0.111732
      py      :     0.087536
      dz2     :     0.021786  d :     0.158679
      dxz     :     0.034556
      dyz     :     0.019602
      dx2y2   :     0.049995
      dxy     :     0.032741
      f0      :     0.002530  f :     0.029820
      f+1     :     0.004603
      f-1     :     0.002014
      f+2     :     0.001863
      f-2     :     0.005022
      f+3     :     0.007669
      f-3     :     0.006118
      g0      :     0.000025  g :     0.000245
      g+1     :     0.000020
      g-1     :     0.000009
      g+2     :     0.000010
      g-2     :     0.000035
      g+3     :     0.000016
      g-3     :     0.000035
      g+4     :     0.000056
      g-4     :     0.000039

  8 H s       :     0.712242  s :     0.712242
      pz      :     0.101127  p :     0.300395
      px      :     0.111732
      py      :     0.087536
      dz2     :     0.021786  d :     0.158679
      dxz     :     0.034556
      dyz     :     0.019602
      dx2y2   :     0.049995
      dxy     :     0.032741
      f0      :     0.002530  f :     0.029820
      f+1     :     0.004603
      f-1     :     0.002014
      f+2     :     0.001863
      f-2     :     0.005022
      f+3     :     0.007669
      f-3     :     0.006118
      g0      :     0.000025  g :     0.000245
      g+1     :     0.000020
      g-1     :     0.000009
      g+2     :     0.000010
      g-2     :     0.000035
      g+3     :     0.000016
      g-3     :     0.000035
      g+4     :     0.000056
      g-4     :     0.000039

  9 H s       :     0.712242  s :     0.712242
      pz      :     0.101127  p :     0.300395
      px      :     0.111732
      py      :     0.087536
      dz2     :     0.021786  d :     0.158679
      dxz     :     0.034556
      dyz     :     0.019602
      dx2y2   :     0.049995
      dxy     :     0.032741
      f0      :     0.002530  f :     0.029820
      f+1     :     0.004603
      f-1     :     0.002014
      f+2     :     0.001863
      f-2     :     0.005022
      f+3     :     0.007669
      f-3     :     0.006118
      g0      :     0.000025  g :     0.000245
      g+1     :     0.000020
      g-1     :     0.000009
      g+2     :     0.000010
      g-2     :     0.000035
      g+3     :     0.000016
      g-3     :     0.000035
      g+4     :     0.000056
      g-4     :     0.000039



                      *****************************
                      * MAYER POPULATION ANALYSIS *
                      *****************************

  NA   - Mulliken gross atomic population
  ZA   - Total nuclear charge
  QA   - Mulliken gross atomic charge
  VA   - Mayer's total valence
  BVA  - Mayer's bonded valence
  FA   - Mayer's free valence

  ATOM       NA         ZA         QA         VA         BVA        FA
  0 C      6.3522     6.0000    -0.3522     4.7101     4.7101     0.0000
  1 C      8.2105     6.0000    -2.2105     7.7002     7.7002     0.0000
  2 C      5.8401     6.0000     0.1599     3.5316     3.5316    -0.0000
  3 C      5.8400     6.0000     0.1600     3.5315     3.5315     0.0000
  4 H      0.4994     1.0000     0.5006     0.8260     0.8260    -0.0000
  5 H      0.4994     1.0000     0.5006     0.8260     0.8260    -0.0000
  6 H      0.6896     1.0000     0.3104     1.0719     1.0719    -0.0000
  7 H      0.6896     1.0000     0.3104     1.0719     1.0719    -0.0000
  8 H      0.6896     1.0000     0.3104     1.0719     1.0719     0.0000
  9 H      0.6896     1.0000     0.3104     1.0719     1.0719     0.0000

  Mayer bond orders larger than 0.100000
B(  0-C ,  1-C ) :   3.7221 B(  0-C ,  4-H ) :   0.4248 B(  0-C ,  5-H ) :   0.4248 
B(  1-C ,  2-C ) :   0.6583 B(  1-C ,  3-C ) :   0.6583 B(  1-C ,  4-H ) :   0.2835 
B(  1-C ,  5-H ) :   0.2835 B(  1-C ,  6-H ) :   0.5236 B(  1-C ,  7-H ) :   0.5236 
B(  1-C ,  8-H ) :   0.5236 B(  1-C ,  9-H ) :   0.5236 B(  2-C ,  3-C ) :   2.0335 
B(  2-C ,  8-H ) :   0.3535 B(  2-C ,  9-H ) :   0.3535 B(  3-C ,  6-H ) :   0.3535 
B(  3-C ,  7-H ) :   0.3535 

-------
TIMINGS
-------

Total SCF time: 0 days 0 hours 18 min 56 sec 

Total time                  ....    1136.442 sec
Sum of individual times     ....    1095.482 sec  ( 96.4%)

SCF preparation             ....       0.198 sec  (  0.0%)
Fock matrix formation       ....    1091.280 sec  ( 96.0%)
  Startup                   ....       0.037 sec  (  0.0% of F)
  Coulomb formation         ....    1122.635 sec  (102.9% of F)
  XC integration            ....       8.834 sec  (  0.8% of F)
    XC Preparation          ....       0.000 sec  (  0.0% of XC)
    Basis function eval.    ....       0.686 sec  (  7.8% of XC)
    Density eval.           ....       2.055 sec  ( 23.3% of XC)
    XC-Functional eval.     ....       0.076 sec  (  0.9% of XC)
    XC-Potential eval.      ....       4.673 sec  ( 52.9% of XC)
Diagonalization             ....       0.000 sec  (  0.0%)
Density matrix formation    ....       0.350 sec  (  0.0%)
Total Energy calculation    ....       0.122 sec  (  0.0%)
Population analysis         ....       0.092 sec  (  0.0%)
Orbital Transformation      ....       0.281 sec  (  0.0%)
Orbital Orthonormalization  ....       0.000 sec  (  0.0%)
DIIS solution               ....       2.363 sec  (  0.2%)
SOSCF solution              ....       0.796 sec  (  0.1%)
Finished LeanSCF after 1136.5 sec

Maximum memory used throughout the entire LEANSCF-calculation: 108.1 MB


           ************************************************************
           *        Program running with 8 parallel MPI-processes     *
           *              working on a common directory               *
           ************************************************************

------------------------------------------------------------------------------
                         ORCA PROPERTY INTEGRAL CALCULATIONS
------------------------------------------------------------------------------

GBWName                                   ... /cluster/projects/nn14654k/ylvaos/basis_set_n_funcs/functionals/gga_c_N12/C4H6/inp/C4H6_gga_c_N12_pcseg4.gbw
Number of atoms                           ...     10
Number of basis functions                 ...    770
Max core memory                           ...   4096 MB

Dipole integrals                          ... YES
Quadrupole integrals                      ... YES
Linear momentum integrals                 ...  NO
Angular momentum integrals                ...  NO
Higher moments length integrals           ...  NO
Higher moments velocity integrals         ...  NO
Kinetic energy integrals                  ...  NO
GIAO right hand sides                     ...  NO
GIAO dipole derivative integrals          ...  NO
SOC integrals                             ...  NO
EPR diamagnetic integrals (GIAO)          ...  NO
EPR gauge integrals                       ...  NO
Field gradient integrals                  ...  NO (   0 nuclei)
Spin-dipole/Fermi contact integrals       ...  NO (   0 nuclei)
Contact density integrals                 ...  NO (   0 nuclei)
Nucleus-orbit integrals                   ...  NO (   0 nuclei)
Geometric perturbations                   ...  NO (  10 nuclei)

Choice of electric origin   ... Center of mass
Position of electric origin ... (  0.0000,  0.0000,  0.0124) 
Choice of magnetic origin   ... GIAO
Position of magnetic origin ... (  0.0000,  0.0000,  0.0000) 

Calculating integrals                     ... Electric Dipole (Length)     done (  0.0 sec)
Calculating integrals                     ... Electric Quadrupole (Length) done (  0.1 sec)

Property integrals calculated in   0.1 sec

Maximum memory used throughout the entire PROPINT-calculation: 73.5 MB
------------------------------------------------------------------------------
                           ORCA ORBITAL LOCALIZATION
------------------------------------------------------------------------------

Input orbitals are from                  ... /cluster/projects/nn14654k/ylvaos/basis_set_n_funcs/functionals/gga_c_N12/C4H6/inp/C4H6_gga_c_N12_pcseg4.gbw
Output orbitals are to                   ... /cluster/projects/nn14654k/ylvaos/basis_set_n_funcs/functionals/gga_c_N12/C4H6/inp/C4H6_gga_c_N12_pcseg4.loc
Max. number of iterations                ... 128
Localizations seeded randomly            ... on
Convergence tolerance                    ... 1.000e-06
Threshold for strong local MOs           ... 9.500e-01
Threshold for bond MOs                   ... 8.500e-01
Operator                                 ... 0
Orbital range for localization           ... 4 to 14
Localization criterion                   ... NEW-BOYS
Doing the dipole integrals               ... o.k.
Initial value of the localization sum :    32.048192
ITERATION   0 : L=   65.1152208377 DL=  3.31e+01 (AVERGE_DL)=    0.7753829368 
ITERATION   1 : L=   87.7488688299 DL=  2.26e+01 (AVERGE_DL)=    0.6414989264 
ITERATION   2 : L=   89.2582194375 DL=  1.51e+00 (AVERGE_DL)=    0.1656584991 
ITERATION   3 : L=   89.3096383829 DL=  5.14e-02 (AVERGE_DL)=    0.0305759696 
ITERATION   4 : L=   89.3098518838 DL=  2.14e-04 (AVERGE_DL)=    0.0019702370 
ITERATION   5 : L=   89.3098528945 DL=  1.01e-06 (AVERGE_DL)=    0.0001355592 
ITERATION   6 : L=   89.3098529175 DL=  2.30e-08 (AVERGE_DL)=    0.0000204528 
LOCALIZATION SUM CONVERGED


--------------------------------------------------------------------------------
                    LOCALIZED MOLECULAR ORBITAL COMPOSITIONS
--------------------------------------------------------------------------------

The Mulliken populations for each LMO on each atom are computed
The LMO`s will be ordered according to atom index and type
  (A) Strongly localized MO`s have populations of >=0.950 on one atom
  (B) Two center bond orbitals have populations of >=0.850 on two atoms
  (C) Other MO`s are considered to be `delocalized`

FOUND  -   2 strongly local MO`s
       -   3 two center bond MO`s
       -   6 significantly delocalized MO`s

Rather strongly localized orbitals:
MO   5:   3C  -   1.902029
MO   4:   2C  -   1.902000
Bond-like localized orbitals:
MO   8:   3C  -   0.593095  and   2C  -   0.593089
MO   7:   1C  -   0.447765  and   0C  -   0.607468
MO   6:   1C  -   0.447759  and   0C  -   0.607467
More delocalized orbitals:
MO  14:  1C - 0.277 2C - 0.140 3C - 0.273 7H - 0.266
MO  13:  1C - 0.277 2C - 0.273 3C - 0.140 9H - 0.266
MO  12:  0C - 0.450 1C - 0.357 3C --0.119 5H - 0.197
MO  11:  1C - 0.277 2C - 0.273 3C - 0.140 8H - 0.266
MO  10:  0C - 0.450 1C - 0.357 2C --0.119 4H - 0.197
MO   9:  1C - 0.277 2C - 0.140 3C - 0.273 6H - 0.266
Localized MO's were stored in: /cluster/projects/nn14654k/ylvaos/basis_set_n_funcs/functionals/gga_c_N12/C4H6/inp/C4H6_gga_c_N12_pcseg4.loc

-------------------------   --------------------
FINAL SINGLE POINT ENERGY      -134.435138545174
-------------------------   --------------------



           ************************************************************
           *        Program running with 8 parallel MPI-processes     *
           *              working on a common directory               *
           ************************************************************

------------------------------------------------------------------------------
                              ORCA PROPERTY CALCULATIONS
------------------------------------------------------------------------------

GBWName                                 ... /cluster/projects/nn14654k/ylvaos/basis_set_n_funcs/functionals/gga_c_N12/C4H6/inp/C4H6_gga_c_N12_pcseg4.gbw
Number of atoms                         ...     10
Number of basis functions               ...    770
Max core memory                         ...   4096 MB

Electric properties:
Dipole moment                           ... YES
Quadrupole moment                       ... YES
Static polarizability (Dipole/Dipole)   ...  NO
Static polarizability (Dipole/Quad.)    ...  NO
Static polarizability (Quad./Quad.)     ...  NO
Static polarizability (Velocity)        ...  NO
Static hyperpolarizability              ...  NO

Atomic electric properties:
Dipole moment                           ...  NO
Quadrupole moment                       ...  NO
Static polarizability                   ...  NO

Choice of electric origin               ... Center of mass
Position of electric origin             ...     0.000000     0.000000     0.012360

General magnetic properties:
Magnetizability                         ...  NO

EPR properties:
g-Tensor (aka g-matrix)                 ...  NO
Zero-Field splitting spin-orbit         ...  NO
Zero-field splitting spin-spin          ...  NO
Hyperfine couplings                     ...  NO (   0 nuclei)
Quadrupole couplings                    ...  NO (   0 nuclei)
Contact density                         ...  NO (   0 nuclei)

NMR properties:
Chemical shifts                         ...  NO (   0 nuclei)
Spin-rotation constants                 ...  NO (   0 nuclei)
Spin-spin couplings                     ...  NO (   0 nuclei,    0 pairs)

Choice of magnetic origin               ... GIAO
Position of magnetic origin             ...     0.000000     0.000000     0.000000

Properties with geometric perturbations:
SCF Hessian                             ...  NO
IR spectrum                             ...  NO
VCD spectrum                            ...  NO
X-ray spectroscopy properties:
SCF XES/XAS/RIXS spectra                ...  NO

SCF SOC stabilization energy            ...  NO
Diagonal Born-Oppenheimer correction    ...  NO

-------------
DIPOLE MOMENT
-------------

Method             : SCF
Type of density    : Electron Density
Multiplicity       :   1
Irrep              :   0
Energy             :  -134.4351385451741407 Eh
Basis              : AO
                                X                 Y                 Z
Electronic contribution:      0.000000115       0.000000149       0.022935133
Nuclear contribution   :      0.000000000       0.000000000      -0.371559272
                        -----------------------------------------
Total Dipole Moment    :      0.000000115       0.000000149      -0.348624138
                        -----------------------------------------
Magnitude (a.u.)       :      0.348624138
Magnitude (Debye)      :      0.886132138



--------------------
Rotational spectrum 
--------------------
 
Rotational constants in cm-1:             0.643527             0.230144             0.181788 
Rotational constants in MHz :         19292.450199          6899.535423          5449.866904 

Dipole components along the rotational axes: 
x,y,z [a.u.] :    -0.348624     0.000000     0.000000 
x,y,z [Debye]:    -0.886132     0.000000     0.000000 

 

Dipole moment calculation done in   0.0 sec 

-----------------
QUADRUPOLE MOMENT
-----------------

Method             : SCF
Type of density    : Electron Density
Multiplicity       :   1
Irrep              :   0
Energy             :  -134.4351385451741407 Eh
Basis              : AO

                XX              YY              ZZ              XY              XZ              YZ
  NUC       11.888664720    55.799971245   152.416444257     0.000000000     0.000000000     0.000000000
  EL       -41.067012606   -85.097096750  -183.232861436     0.000000076    -0.000001247    -0.000000373
  TOT      -29.178347886   -29.297125505   -30.816417179     0.000000076    -0.000001247    -0.000000373 (a.u.)
           -39.245875806   -39.405635766   -41.449135027     0.000000103    -0.000001677    -0.000000502 (Buckingham)

diagonalized tensor:
           -30.816417179   -29.297125505   -29.178347886 (a.u.)
           -41.449135027   -39.405635766   -39.245875806 (Buckingham)
            -4.246758482     1.883739301     2.363019182 (traceless form in Buckingham)

             0.000000761     0.000000643     1.000000000
             0.000000246    -1.000000000     0.000000643
             1.000000000     0.000000246    -0.000000761
        
Isotropic quadrupole :   -29.763963523

Quadrupole moment calculation done in   0.0 sec (  0.0 sec for integrals)

Maximum memory used throughout the entire PROP-calculation: 72.3 MB

--------------------------------
SUGGESTED CITATIONS FOR THIS RUN
--------------------------------

Below you find a list of papers that are relevant to this ORCA run
We neither can nor want to force you to cite these papers, but we appreciate if you do
You receive ORCA, which is the product of decades of hard work by many enthusiastic individuals, for free
The only thing we kindly ask in return is that you cite our papers,
We deeply appreciate it, if you show your appreciation for ORCA by not just citing the generic ORCA reference.

Please note that relegating all ORCA citations to the supporting information does *not* help us.
SI sections are not indexed - citations you put there will not count into any citation statistics
But we need these citations in order to attract the funding resources that allow us to do what we are doing

Therefore, if you are a happy ORCA user, please consider citing a few of the papers listed below in the main body of your paper

In addition to the list printed below, the program has created the file /cluster/projects/nn14654k/ylvaos/basis_set_n_funcs/functionals/gga_c_N12/C4H6/inp/C4H6_gga_c_N12_pcseg4.bibtex that contains the list in bibtex format
You can import this file easily into all common literature databanks and citation aid programs

It goes without saying that in many instances, there are alternative algorithms to achieve similar
results as the ones you have gotten from ORCA. It is, of course, also the case that in some instances
ORCA just re-implements algorithms worked out by others. We are fully aware of that and we are also
fully appreciative of our colleagues work. Hence this citation list should not be read as indicating
that the listed papers, which are focused on our own work, are the only ones worth citing. It simply
meant to make it easier for users to cite ORCA specific papers. It is not a substitute for doing your
own literature research and citing the relevant literature in a scientifically appropriate manner.

List of essential papers. We consider these as the minimum necessary citations

  1. Neese, F.
     Software update: the ORCA program system, version 6.0
     WIRES Comput. Molec. Sci. 2025 15(1), e70019
     doi.org/10.1002/wcms.70019

List of papers to cite with high priority. The work reported in these papers was absolutely
necessary for this run to complete.
Our perspective: the developers of density functionals and basis sets usually get cited in chemistry papers
Good! But without the algorithms to do something with them, the functionals or basis sets would not do anything.
Hence, in our opinion, the algorithm design and method developments papers are equally worthy of getting cited

  1. Lehtola, S.; Steigemann, C.; Oliveira, M.; Marques, M.
     Recent developments in Libxc - A comprehensive library of functionals for density functional theory
     Software X 2018 7 , 
     doi.org/10.1016/j.softx.2017.11.002
  2. Neese, F.
     The SHARK Integral Generation and Digestion System
     J. Comp. Chem. 2022 44(3), 381
     doi.org/10.1002/jcc.26942

List of suggested additional citations. These are papers that are important in the 'surrounding' of 
of this run, or papers that preceded the highly important papers. If you like your results we are grateful for a citation.

  1. Neese, F.
     The ORCA program system
     WIRES Comput. Molec. Sci. 2012 2(1), 73-78
     doi.org/10.1002/wcms.81
  2. Neese, F.
     Software update: the ORCA program system, version 4.0
     WIRES Comput. Molec. Sci. 2018 8(1), 1-6
     doi.org/10.1002/wcms.1327
  3. Neese, F.; Wennmohs, F.; Becker, U.; Riplinger, C.
     The ORCA quantum chemistry program package
     J. Chem. Phys. 2020 152(22), 224108
     doi.org/10.1063/5.0004608
  4. Neese, F.
     Software update: The ORCA program system—Version 5.0
     WIRES Comput. Molec. Sci. 2022 12(1), e1606
     doi.org/10.1002/wcms.1606

List of optional additional citations

  1. Neese, F.
     Approximate second-order SCF convergence for spin unrestricted wavefunctions
     Chem. Phys. Lett. 2000 325(1-3), 93-98
     doi.org/10.1016/s0009-2614(00)00662-x

Timings for individual modules:

Sum of individual times          ...     1139.469 sec (=  18.991 min)
Startup calculation              ...        1.177 sec (=   0.020 min)   0.1 %
SCF iterations                   ...     1137.505 sec (=  18.958 min)  99.8 %
Property integrals               ...        0.411 sec (=   0.007 min)   0.0 %
Property calculations            ...        0.327 sec (=   0.005 min)   0.0 %
Orbital localization             ...        0.049 sec (=   0.001 min)   0.0 %
                             ****ORCA TERMINATED NORMALLY****
TOTAL RUN TIME: 0 days 0 hours 19 minutes 0 seconds 108 msec
