
                                 *****************
                                 * O   R   C   A *
                                 *****************

                                            #,                                       
                                            ###                                      
                                            ####                                     
                                            #####                                    
                                            ######                                   
                                           ########,                                 
                                     ,,################,,,,,                         
                               ,,#################################,,                 
                          ,,##########################################,,             
                       ,#########################################, ''#####,          
                    ,#############################################,,   '####,        
                  ,##################################################,,,,####,       
                ,###########''''           ''''###############################       
              ,#####''   ,,,,##########,,,,          '''####'''          '####       
            ,##' ,,,,###########################,,,                        '##       
           ' ,,###''''                  '''############,,,                           
         ,,##''                                '''############,,,,        ,,,,,,###''
      ,#''                                            '''#######################'''  
     '                                                          ''''####''''         
             ,#######,   #######,   ,#######,      ##                                
            ,#'     '#,  ##    ##  ,#'     '#,    #''#        ,####,    ,#,          
            ##       ##  ##   ,#'  ##            #'  '#       #'       ,# #          
            ##       ##  #######   ##           ,######,      #####,      #          
            '#,     ,#'  ##    ##  '#,     ,#' ,#      #,     #,   #      #          
             '#######'   ##     ##  '#######'  #'      '#     '####' #    #          



                #########################################################
                #                        -***-                          #
                #          Department of theory and spectroscopy        #
                #                                                       #
                #                      Frank Neese                      #
                #                                                       #
                #     Directorship, Architecture, Infrastructure        #
                #                    SHARK, DRIVERS                     #
                #        Core code/Algorithms in most modules           #
                #                                                       #
                #        Max Planck Institute fuer Kohlenforschung      #
                #                Kaiser Wilhelm Platz 1                 #
                #                 D-45470 Muelheim/Ruhr                 #
                #                      Germany                          #
                #                                                       #
                #                  All rights reserved                  #
                #                        -***-                          #
                #########################################################


                         Program Version 6.1.1  -  RELEASE   -
                                (GIT: $487d211c$)
                          ($2025-11-21 10:33:24 +0100$)


 With contributions from (in alphabetic order):
[Max-Planck-Institut fuer Kohlenforschung]                               
  Daniel Aravena         : Magnetic Suceptibility                        
  Michael Atanasov       : Ab Initio Ligand Field Theory (pilot matlab implementation)
  Alexander A. Auer      : GIAO ZORA, VPT2 properties, NMR spectrum      
  Ute Becker             : All parallelization in ORCA, NUMFREQ, NUMCALC 
  Giovanni Bistoni       : ED, misc. LED, open-shell LED, HFLD           
  Dmytro Bykov           : pre 5.0 version of the SCF Hessian            
  Marcos Casanova-Páez   : Triplet and SCS-CIS(D). UHF-(DLPNO)-IP/EA/STEOM-CCSD. UHF-CVS-IP/STEOM-CCSD   
  Vijay G. Chilkuri      : MRCI spin determinant printing, contributions to CSF-ICE 
  Pauline Colinet        : FMM embedding                                 
  Dipayan Datta          : RHF DLPNO-CCSD density                        
  Achintya Kumar Dutta   : EOM-CC, STEOM-CC                              
  Nicolas Foglia         : Exact transition moments, OPA infrastructure, MCD improvements    
  Dmitry Ganyushin       : Spin-Orbit,Spin-Spin,Magnetic field MRCI      
  Miquel Garcia-Rates    : C-PCM and meta-GGA Hessian, CCSD/C-PCM, Gaussian charge scheme 
  Tiago L. C. Gouveia    : GS-ROHF, GS-ROCIS                             
  Yang Guo               : DLPNO-NEVPT2, F12-NEVPT2, CIM, IAO-localization        
  Andreas Hansen         : Spin unrestricted coupled pair/coupled cluster methods 
  Ingolf Harden          : AUTO-CI MPn and infrastructure                
  Benjamin Helmich-Paris : MC-RPA, TRAH-(SCF,CASSCF), AVAS, COSX integrals, SCF dyn. polar., MC-PDFT, srDFT 
  Lee Huntington         : MR-EOM, pCC                                   
  Robert Izsak           : Overlap fitted RIJCOSX, COSX-SCS-MP3, EOM     
  Riya Kayal             : Wick's Theorem for AUTO-CI, AUTO-CI UHF-CCSDT 
  Emily Kempfer          : AUTO-CI RHF CISDT and CCSDT, approximate NEVPT4
  Christian Kollmar      : KDIIS, OOCD, Brueckner-CCSD(T), CCSD density, CASPT2, CASPT2-K, improved NEVPT2 
  Axel Koslowski         : Symmetry handling                             
  Simone Kossmann        : meta-GGA functionals, TD-DFT gradient, OOMP2, (MP2 Hessian; deprecated post 5.0) 
  Lucas Lang             : DCDCAS, Hyperfine gauge corrections, ICE-SOC+SSC
  Marvin Lechner         : AUTO-CI (C++ implementation), FIC-MRCC        
  Spencer Leger          : CASSCF response                               
  Dagmar Lenk            : GEPOL surface, SMD, ORCA-2-JSON               
  Dimitrios Liakos       : Extrapolation schemes; Compound Job, Property file
  Dimitrios Manganas     : Further ROCIS development; embedding schemes. LFT, Crystal Embedding 
  Dimitrios Pantazis     : SARC Basis sets                               
  Anastasios Papadopoulos: AUTO-CI, single reference methods and gradients 
  Taras Petrenko         : pre 6.0 DFT Hessian and TD-DFT gradient,  ECA, NRVS 
  Petra Pikulova         : Analytic Raman intensities                    
  Peter Pinski           : DLPNO-MP2, DLPNO-MP2 Gradient                 
  Shashank Vittal Rao    : ES-AILFT, MagRelax                            
  Christoph Reimann      : Effective Core Potentials                     
  Marius Retegan         : Local ZFS, SOC                                
  Christoph Riplinger    : Optimizer, TS searches, QM/MM, DLPNO-CCSD(T), (RO)-DLPNO pert. Triples 
  Michael Roemelt        : Original ROCIS implementation, recursive CI coupling coefficients
  Masaaki Saitow         : Open-shell DLPNO-CCSD energy and density      
  Barbara Sandhoefer     : DKH picture change effects                    
  Yorick L. A. Schmerwitz: GMF and freeze-and-release deltaSCF, NEB S-IDPP initial path                    
  Kantharuban Sivalingam : CASSCF convergence/infrastructure, NEVPT2, NEVPT3, NEVPT4(SD), FIC-MRCI and CEPA variants
  Bernardo de Souza      : ESD, SOC TD-DFT                               
  Georgi L. Stoychev     : AutoAux, RI-MP2 NMR, DLPNO-MP2 response, X2C  
  Van Anh Tran           : RI-MP2 g-tensors                              
  Willem Van den Heuvel  : Paramagnetic NMR                              
  Zikuan Wang            : NOTCH, Electric field optimization            
  Frank Wennmohs         : Technical directorship and infrastructure     
  Hang Xu                : AUTO-CI-Response properties                   
                                                                         
[FACCTs GmbH]                                                            
  Markus Bursch, Nicolas Foglia, Miquel Garcia-Rates, Ingolf Harden, Hagen Neugebauer, Anastasios Papadopoulos, 
  Christoph Riplinger, Bernardo de Souza, Georgi L. Stoychev                                                    
                                                                 
  APM, various basis sets, CI-OPT, improved COSX, DLPNO-Multilevel,           
  DOCKER, DRACO, updates on ESD, Fragmentator, GOAT, IRC, LR-CPCM, L-BFGS, MBIS, meta-GGA TD-DFT gradient, ML-optimized integration grids, 
  MM, NACMEs, nearIR, NEB, NEB-TS, NL-DFT gradient (VV10), 2- and 3-layer-ONIOM, interface openCOSMO-RS, QMMM,   
  Crystal-QMMM, RESP, rigid body optimization, SF, symmetry and pop. for TD-DFT, various functionals, SOLVATOR                                   
                                                                         
[Other institutions]                                                     
  V. Asgeirsson          : NEB                                           
  Christoph Bannwarth    : sTDA-DFT, sTD-DFT, PBEh-3c, B97-3c, D3        
  Giovanni Bistoni       : ETS/NOCV, ADLD/ADEX, COVALED                  
  Martin Brehm           : Molecular dynamics                            
  Ronald Cardenas        : ETS/NOCV                                      
  Martina Colucci        : COVALED                                       
  Sebastian Ehlert       : rSCAN, r2SCAN, r2SCAN-3c, D4, dhf basis sets  
  Marvin Friede          : D4 for Fr, Ra, Ac-Lr                          
  Lars Goerigk           : TD-DFT with DH, B97 family of functionals     
  Stefan Grimme          : VdW corrections, initial TS optimization, DFT functionals, gCP, sTDA/sTD-DF 
  Waldemar Hujo          : DFT-NL                                        
  H. Jonsson             : NEB                                           
  Holger Kruse           : gCP                                           
  Marcel Mueller         : wB97X-3c, vDZP basis set                      
  Hagen Neugebauer       : wr2SCAN, Native XTB                           
  Gianluca Regni         : ADLD/ADEX                                     
  Tobias Risthaus        : pre 6.0 range-separated hybrid DFT and stability analysis
  Lukas Wittmann         : regularized MP2, r2SCAN double-hybrids, wr2SCAN        
                                                                         
We gratefully acknowledge several colleagues who have allowed us to      
interface, adapt or use parts of their codes:                            
  Ed Valeev, F. Pavosevic, A. Kumar             : LibInt (2-el integral package), F12 methods 
  Garnet Chan, S. Sharma, J. Yang, R. Olivares  : DMRG                   
  Ulf Ekstrom                                   : XCFun DFT Library      
  Mihaly Kallay                                 : mrcc  (arbitrary order and MRCC methods)
  Frank Weinhold                                : gennbo (NPA and NBO analysis)           
  Simon Mueller                                 : openCOSMO-RS                            
  Christopher J. Cramer and Donald G. Truhlar   : smd solvation model                     
  S Lehtola, MJT Oliveira, MAL Marques          : LibXC Library                           
  Liviu Ungur et al                             : ANISO software                          


 Your calculation uses the libint2 library for the computation of 2-el integrals
 For citations please refer to: http://libint.valeyev.net

 Your ORCA version has been built with support for libXC version: 7.0.0
 For citations please refer to: https://libxc.gitlab.io

 This ORCA versions uses:
   CBLAS   interface :  Fast vector & matrix operations
   LAPACKE interface :  Fast linear algebra routines
   SCALAPACK package :  Parallel linear algebra routines
   Shared memory     :  Shared parallel matrices
   BLAS/LAPACK       :  OpenBLAS 0.3.29  USE64BITINT DYNAMIC_ARCH NO_AFFINITY Cooperlake SINGLE_THREADED
        Core in use  :  Cooperlake
   Copyright (c) 2011-2014, The OpenBLAS Project


  ***********************************
  * Starting time: Wed May 20 11:53:37 2026
  * Host name:     c1-14
  * Process ID:    324226
  * Working dir.:  /cluster/projects/nn14654k/ylvaos/basis_set_n_funcs/functionals/gga_c_N12/C4H6/out
  ***********************************

Using LibXC functional ID  80 : Minnesota N12 correlation functional
[ 1]  R. Peverati and D. G. Truhlar.,  J. Chem. Theory Comput. 8, 2310 (2012)
Using LibXC functional ID  80 : Minnesota N12 correlation functional
[ 1]  R. Peverati and D. G. Truhlar.,  J. Chem. Theory Comput. 8, 2310 (2012)
Your calculation utilizes LibXC
by S. Lehtola, C. Steigemann, M. J. T. Oliveira & M. A. L. Marques
Please cite in your paper:
Lehtola, S.; Steigemann, C.; Oliveira, M.J.T.; Marques, M. A. L. Software X, 7, (2018), 1.
   

================================================================================

----- Orbital basis set information -----
Your calculation utilizes the basis: aug-cc-pVQZ 
    H, B-Ne : Obtained from the ccRepo (grant-hill.group.shef.ac.uk/ccrepo) Feb. 2017
              R. A. Kendall, T. H. Dunning, Jr., R. J. Harrison, J. Chem. Phys. 96, 6796 (1992)
         He : Obtained from the ccRepo (grant-hill.group.shef.ac.uk/ccrepo) Feb. 2017
              D. E. Woon, T. H. Dunning, Jr., J. Chem. Phys. 100, 2975 (1994)
  Li-Be, Na : Obtained from the ccRepo (grant-hill.group.shef.ac.uk/ccrepo) Feb. 2017
              B. P. Prascher, D. E. Woon, K. A. Peterson, T. H. Dunning, Jr., A. K. Wilson, Theor. Chem. Acc. 128, 69 (2011)
         Mg : Obtained from the Peterson Research Group Website (tyr0.chem.wsu.edu/~kipeters) Feb. 2017
              B. P. Prascher, D. E. Woon, K. A. Peterson, T. H. Dunning, Jr., A. K. Wilson, Theor. Chem. Acc. 128, 69 (2011)
      Al-Ar : Obtained from the ccRepo (grant-hill.group.shef.ac.uk/ccrepo) Feb. 2017
              D. E. Woon, T. H. Dunning, Jr., J. Chem. Phys. 98, 1358 (1993)
      Sc-Zn : Obtained from the ccRepo (grant-hill.group.shef.ac.uk/ccrepo) Feb. 2017
              N. B. Balabanov, K. A. Peterson, J. Chem. Phys. 123, 064107 (2005)
              N. B. Balabanov, K. A. Peterson, J. Chem. Phys. 125, 074110 (2006)
      Ga-Kr : Obtained from the ccRepo (grant-hill.group.shef.ac.uk/ccrepo) Feb. 2017
              A. K. Wilson, D. E. Woon, K. A. Peterson, T. H. Dunning, Jr., J. Chem. Phys. 110, 7667 (1999)

================================================================================
                                        WARNINGS
                       Please study these warnings very carefully!
================================================================================


================================================================================
                                       INPUT FILE
================================================================================
NAME = /cluster/projects/nn14654k/ylvaos/basis_set_n_funcs/functionals/gga_c_N12/C4H6/inp/C4H6_gga_c_N12_augccpvqz.inp
|  1> ! dft aug-cc-pVQZ TightSCF
|  2> %pal nprocs 8 end
|  3> 
|  4> %loc
|  5>   LocMet NewBoys
|  6>   Occ true
|  7> end
|  8> 
|  9> %method
| 10>   exchange None
| 11>   correlation gga_c_N12
| 12> end
| 13> 
| 14> %elprop
| 15>   Dipole true
| 16>   Quadrupole true
| 17> end
| 18> 
| 19> * xyz 0 1
| 20> C    0.000000000000   0.000000000000   1.632000000000
| 21> C    0.000000000000   0.000000000000   0.300000000000
| 22> C    0.000000000000   0.771000000000  -0.936300000000
| 23> C    0.000000000000  -0.771000000000  -0.936300000000
| 24> H    0.000000000000   0.914000000000   2.222200000000
| 25> H    0.000000000000  -0.914000000000   2.222200000000
| 26> H    0.912300000000   1.305900000000  -1.200300000000
| 27> H   -0.912300000000   1.305900000000  -1.200300000000
| 28> H   -0.912300000000  -1.305900000000  -1.200300000000
| 29> H    0.912300000000  -1.305900000000  -1.200300000000
| 30> *
| 31> 
| 32> 
| 33>                          ****END OF INPUT****
================================================================================

                       ****************************
                       * Single Point Calculation *
                       ****************************

---------------------------------
CARTESIAN COORDINATES (ANGSTROEM)
---------------------------------
  C      0.000000    0.000000    1.632000
  C      0.000000    0.000000    0.300000
  C      0.000000    0.771000   -0.936300
  C      0.000000   -0.771000   -0.936300
  H      0.000000    0.914000    2.222200
  H      0.000000   -0.914000    2.222200
  H      0.912300    1.305900   -1.200300
  H     -0.912300    1.305900   -1.200300
  H     -0.912300   -1.305900   -1.200300
  H      0.912300   -1.305900   -1.200300

----------------------------
CARTESIAN COORDINATES (A.U.)
----------------------------
  NO LB      ZA    FRAG     MASS         X           Y           Z
   0 C     6.0000    0    12.011    0.000000    0.000000    3.084033
   1 C     6.0000    0    12.011    0.000000    0.000000    0.566918
   2 C     6.0000    0    12.011    0.000000    1.456979   -1.769351
   3 C     6.0000    0    12.011    0.000000   -1.456979   -1.769351
   4 H     1.0000    0     1.008    0.000000    1.727210    4.199349
   5 H     1.0000    0     1.008    0.000000   -1.727210    4.199349
   6 H     1.0000    0     1.008    1.723997    2.467793   -2.268238
   7 H     1.0000    0     1.008   -1.723997    2.467793   -2.268238
   8 H     1.0000    0     1.008   -1.723997   -2.467793   -2.268238
   9 H     1.0000    0     1.008    1.723997   -2.467793   -2.268238

--------------------------------
INTERNAL COORDINATES (ANGSTROEM)
--------------------------------
 C      0   0   0     0.000000000000     0.00000000     0.00000000
 C      1   0   0     1.332000000000     0.00000000     0.00000000
 C      2   1   0     1.457010188708   148.05088964     0.00000000
 C      2   1   3     1.457010188708   148.05088964   180.00000000
 H      1   2   3     1.087994503663   122.85166680     0.00000000
 H      1   2   3     1.087994503663   122.85166680   180.00000000
 H      3   2   1     1.090002431190   117.72260444    70.99760541
 H      3   2   1     1.090002431190   117.72260444   289.00239459
 H      4   2   1     1.090002431190   117.72260444    70.99760541
 H      4   2   1     1.090002431190   117.72260444   289.00239459

---------------------------
INTERNAL COORDINATES (A.U.)
---------------------------
 C      0   0   0     0.000000000000     0.00000000     0.00000000
 C      1   0   0     2.517115210383     0.00000000     0.00000000
 C      2   1   0     2.753350230992   148.05088964     0.00000000
 C      2   1   3     2.753350230992   148.05088964   180.00000000
 H      1   2   3     2.056011647134   122.85166680     0.00000000
 H      1   2   3     2.056011647134   122.85166680   180.00000000
 H      3   2   1     2.059806080257   117.72260444    70.99760541
 H      3   2   1     2.059806080257   117.72260444   289.00239459
 H      4   2   1     2.059806080257   117.72260444    70.99760541
 H      4   2   1     2.059806080257   117.72260444   289.00239459

---------------------
BASIS SET INFORMATION
---------------------
There are 2 groups of distinct atoms

 Group   1 Type C   : 22s7p4d3f2g contracted to 6s5p4d3f2g pattern {991111/31111/1111/111/11}
 Group   2 Type H   : 7s4p3d2f contracted to 5s4p3d2f pattern {31111/1111/111/11}

Atom   0C    basis set group =>   1
Atom   1C    basis set group =>   1
Atom   2C    basis set group =>   1
Atom   3C    basis set group =>   1
Atom   4H    basis set group =>   2
Atom   5H    basis set group =>   2
Atom   6H    basis set group =>   2
Atom   7H    basis set group =>   2
Atom   8H    basis set group =>   2
Atom   9H    basis set group =>   2


           ************************************************************
           *        Program running with 8 parallel MPI-processes     *
           *              working on a common directory               *
           ************************************************************
------------------------------------------------------------------------------
                             ORCA STARTUP CALCULATIONS
------------------------------------------------------------------------------
------------------------------------------------------------------------------
                   ___                                                        
                  /   \      - P O W E R E D   B Y -                         
                 /     \                                                     
                 |  |  |   _    _      __       _____    __    __             
                 |  |  |  | |  | |    /  \     |  _  \  |  |  /  |          
                  \  \/   | |  | |   /    \    | | | |  |  | /  /          
                 / \  \   | |__| |  /  /\  \   | |_| |  |  |/  /          
                |  |  |   |  __  | /  /__\  \  |    /   |      \           
                |  |  |   | |  | | |   __   |  |    \   |  |\   \          
                \     /   | |  | | |  |  |  |  | |\  \  |  | \   \       
                 \___/    |_|  |_| |__|  |__|  |_| \__\ |__|  \__/        
                                                                              
                      - O R C A' S   B I G   F R I E N D -                    
                                      &                                       
                       - I N T E G R A L  F E E D E R -                       
                                                                              
 v1 FN, 2020, v2 2021, v3 2022-2024                                           
------------------------------------------------------------------------------


----------------------
SHARK INTEGRAL PACKAGE
----------------------

Number of atoms                             ...     10
Number of basis functions                   ...    624
Number of shells                            ...    192
Maximum angular momentum                    ...      4
Integral batch strategy                     ... SHARK/LIBINT Hybrid
RI-J (if used) integral strategy            ... SPLIT-RIJ (Revised 2003 algorithm where possible)
Printlevel                                  ...      1
Contraction scheme used                     ... PARTIAL GENERAL contraction
Prescreening option                         ... SCHWARTZ
   Thresh                                   ... 2.500e-11
   Tcut                                     ... 2.500e-12
   Tpresel                                  ... 2.500e-12 
Coulomb Range Separation                    ... NOT USED
Exchange Range Separation                   ... NOT USED
Multipole approximations                    ... NOT USED
Finite Nucleus Model                        ... NOT USED
CABS basis                                  ... NOT available
Auxiliary Coulomb fitting basis             ... NOT available
Auxiliary J/K fitting basis                 ... NOT available
Auxiliary Correlation fitting basis         ... NOT available
Auxiliary 'external' fitting basis          ... NOT available

Checking pre-screening integrals            ... done (  0.0 sec) Dimension = 192
Save PGC pre-screening integrals            ... done (  0.0 sec) Dimension = 192
Calculate PGC overlap integrals             ... done (  0.0 sec) Dimension = 164
Calculating pre-screening integrals (ORCA)  ... done (  0.1 sec) Dimension = 164
Shell pair information
Shell pair cut-off parameter TPreSel        ...   2.5e-12
Total number of shell pairs                 ...     18528
Shell pairs after pre-screening             ...     17064
Total number of primitive shell pairs       ...     22608
Primitive shell pairs kept                  ...     19829
          la=0 lb=0:   2745 shell pairs
          la=1 lb=0:   3310 shell pairs
          la=1 lb=1:    964 shell pairs
          la=2 lb=0:   2560 shell pairs
          la=2 lb=1:   1444 shell pairs
          la=2 lb=2:    577 shell pairs
          la=3 lb=0:   1834 shell pairs
          la=3 lb=1:   1036 shell pairs
          la=3 lb=2:    796 shell pairs
          la=3 lb=3:    296 shell pairs
          la=4 lb=0:    650 shell pairs
          la=4 lb=1:    352 shell pairs
          la=4 lb=2:    272 shell pairs
          la=4 lb=3:    192 shell pairs
          la=4 lb=4:     36 shell pairs

Checking whether 4 symmetric matrices of dimension 624 fit in memory
:Max Core in MB      =   4096.00
 MB in use           =     24.28
 MB left             =   4071.72
 MB needed           =      5.95
 Data fit in memory  = YES
Calculating Nuclear repulsion               ... done (  0.0 sec) ENN=    109.249345578353 Eh

Diagonalization of the overlap matrix:
Smallest eigenvalue                        ... 2.286e-06
Time for diagonalization                   ...    0.025 sec
Threshold for overlap eigenvalues          ... 1.000e-07
Number of eigenvalues below threshold      ... 0
Time for construction of square roots      ...    0.014 sec
Total time needed                          ...    0.042 sec

-------------------
DFT GRID GENERATION
-------------------

General Integration Accuracy     IntAcc      ... 4.388
Radial Grid Type                 RadialGrid  ... OptM3 with GC (2021)
Angular Grid (max. ang.)         AngularGrid ... 4 (Lebedev-302)
Angular grid pruning method      GridPruning ... 4 (adaptive)
Weight generation scheme         WeightScheme... mBecke (2022)
Basis function cutoff            BFCut       ... 1.0000e-11
Integration weight cutoff        WCut        ... 1.0000e-14
Partially contracted basis set               ... off
Rotationally invariant grid construction     ... off
Angular grids for H and He will be reduced by one unit
Diffuse basis detected: some atoms will have their outermost
                        angular grid increased by 1.

Total number of grid points                  ...    46048
Total number of batches                      ...      725
Average number of points per batch           ...       63
Average number of grid points per atom       ...     4605

---------------------
SHARK GRID GENERATION
---------------------

General Integration Accuracy     IntAcc      ... 4.388
Radial Grid Type                 RadialGrid  ... OptM3 with GC (2021)
Angular Grid (max. ang.)         AngularGrid ... 4 (Lebedev-302)
Angular grid pruning method      GridPruning ... 4 (adaptive)
Weight generation scheme         WeightScheme... mBecke (2022)
Basis function cutoff            BFCut       ... 1.0000e-11
Integration weight cutoff        WCut        ... 1.0000e-14
Partially contracted basis set               ... off
Rotationally invariant grid construction     ... off
Angular grids for H and He will be reduced by one unit
Diffuse basis detected: some atoms will have their outermost
                        angular grid increased by 1.
Steep s-basis detected: some atoms will have their radial
                        grid points doubled.

Total number of grid points                  ...    71641
Total number of batches                      ...     1124
Average number of points per batch           ...       63
Average number of grid points per atom       ...     7164
Grids setup in   0.5 sec
Initializing property integral containers    ... done (  0.0 sec)

SHARK setup successfully completed in   0.9 seconds

Maximum memory used throughout the entire STARTUP-calculation: 50.3 MB


           ************************************************************
           *        Program running with 8 parallel MPI-processes     *
           *              working on a common directory               *
           ************************************************************
-------------------------------------------------------------------------------
                                 ORCA GUESS
                   Start orbitals & Density for SCF / CASSCF
-------------------------------------------------------------------------------

------------
SCF SETTINGS
------------
Hamiltonian:
 Density Functional     Method          .... DFT(GTOs)
 Exchange Functional    Exchange        .... no Exchange
  Functional kind                       .... Correlation
  Functional name                       .... Minnesota N12 correlation functional
  Functional family                     .... GGA
  Functional refs                              
    [ 0] R. Peverati and D. G. Truhlar.,  J. Chem. Theory Comput. 8, 2310 (2012), doi: 10.1021/ct3002656
  Functional external parameters        .... 10
    Parameter  0 _css0      =  1.000000e+00 : u^0 coefficient for same-spin correlation
    Parameter  1 _css1      = -5.531700e+00 : u^1 coefficient for same-spin correlation
    Parameter  2 _css2      =  3.079580e+01 : u^2 coefficient for same-spin correlation
    Parameter  3 _css3      = -5.641960e+01 : u^3 coefficient for same-spin correlation
    Parameter  4 _css4      =  3.212500e+01 : u^4 coefficient for same-spin correlation
    Parameter  5 _cos0      =  1.000000e+00 : u^0 coefficient for opposite-spin correlation
    Parameter  6 _cos1      =  3.245110e+00 : u^1 coefficient for opposite-spin correlation
    Parameter  7 _cos2      = -2.528930e+01 : u^2 coefficient for opposite-spin correlation
    Parameter  8 _cos3      =  1.444070e+01 : u^3 coefficient for opposite-spin correlation
    Parameter  9 _cos4      =  1.968700e+01 : u^4 coefficient for opposite-spin correlation
 Gradients option       PostSCFGGA      .... off


General Settings:
 Integral files         IntName         .... /cluster/projects/nn14654k/ylvaos/basis_set_n_funcs/functionals/gga_c_N12/C4H6/inp/C4H6_gga_c_N12_augccpvqz
 Hartree-Fock type      HFTyp           .... RHF
 Total Charge           Charge          ....    0
 Multiplicity           Mult            ....    1
 Number of Electrons    NEL             ....   30
 Basis Dimension        Dim             ....  596
 Nuclear Repulsion      ENuc            ....    109.2493455784 Eh

Convergence Acceleration:
 AO-DIIS                CNVDIIS         .... on
   Start iteration      DIISMaxIt       ....    12
   Startup error        DIISStart       ....  0.200000
   # of expansion vecs  DIISMaxEq       ....     5
   Bias factor          DIISBfac        ....   1.050
   Max. coefficient     DIISMaxC        ....  10.000
 MO-DIIS                CNVKDIIS        .... off
 Trust-Rad. Augm. Hess. CNVTRAH         .... auto
   Auto Start mean grad. ratio tolernc. ....  1.125000
   Auto Start start iteration           ....    50
   Auto Start num. interpolation iter.  ....    10
   Max. Number of Micro iterations      ....    24
   Max. Number of Macro iterations      .... Maxiter - #DIIS iter
   Number of Davidson start vectors     ....     2
   Converg. threshold    (grad. norm)   ....   1.000e-05
   Grad. Scal. Fac. for Micro threshold ....   0.100
   Minimum threshold for Micro iter.    ....   1.000e-02
   NR start threshold (gradient norm)   ....   1.000e-04
   Initial trust radius                 ....   0.400
   Minimum AH scaling param. (alpha)    ....   1.000
   Maximum AH scaling param. (alpha)    .... 1000.000
   Quad. conv. algorithm                .... NR
   White noise on init. David. guess    .... on
   Maximum white noise                  ....   0.010
   Pseudo random numbers                .... off
   Inactive MOs                         .... canonical
   Orbital update algorithm             .... Taylor
   Preconditioner                       .... Diag
   Full preconditioner red. dimension   ....   250
 SOSCF                 CNVSOSCF           .... on
   Start iteration     SOSCFMaxIt         ....   150
   Startup grad/error  SOSCFStart         ....  0.003300
   Hessian update      SOSCFHessUp        .... L-BFGS
   Autom. constraints  SOSCFAutoConstrain .... off
 Level Shifting         CNVShift        .... on
   Level shift para.    LevelShift      ....    0.2500
   Turn off err/grad.   ShiftErr        ....    0.0010
 Zerner damping         CNVZerner       .... off
 Static damping         CNVDamp         .... on
   Fraction old density DampFac         ....    0.7000
   Max. Damping (<1)    DampMax         ....    0.9800
   Min. Damping (>=0)   DampMin         ....    0.0000
   Turn off err/grad.   DampErr         ....    0.1000

SCF Procedure:
 Maximum # iterations   MaxIter         ....   125
 SCF integral mode      SCFMode         .... Direct
   Integral package                     .... SHARK and LIBINT hybrid scheme
 Reset frequency        DirectResetFreq ....    20
 Integral Threshold     Thresh          ....  2.500e-11 Eh
 Primitive CutOff       TCut            ....  2.500e-12 Eh

Convergence Tolerance:
 Convergence Check Mode ConvCheckMode   .... Total+1el-Energy
 Convergence forced     ConvForced      .... 0
 Energy Change          TolE            ....  1.000e-08 Eh
 1-El. energy change                    ....  1.000e-05 Eh
 Orbital Gradient       TolG            ....  1.000e-05
 Orbital Rotation angle TolX            ....  1.000e-05
 DIIS Error             TolErr          ....  5.000e-07

------------------------------
INITIAL GUESS: MODEL POTENTIAL
------------------------------
Loading Hartree-Fock densities                     ... done
Calculating cut-offs                               ... done
Initializing the effective Hamiltonian             ... done
Setting up the integral package (SHARK)            ... done
Starting the Coulomb interaction                   ... done (   0.1 sec)
Making the grid                                    ... done (   0.1 sec)
Mapping shells                                     ... done
Starting the XC term evaluation                    ... done (   0.1 sec)
  promolecular density results
     # of electrons  =     29.996393201
     EX              =      0.000000000
     EC              =     -1.502442185
     EX+EC           =     -1.502442185
Transforming the Hamiltonian                       ... done (   0.0 sec)
Diagonalizing the Hamiltonian                      ... done (   0.0 sec)
Back transforming the eigenvectors                 ... done (   0.0 sec)
Now organizing SCF variables                       ... done
                      ------------------
                      INITIAL GUESS DONE (   0.3 sec)
                      ------------------
             **** ENERGY FILE WAS UPDATED (/cluster/projects/nn14654k/ylvaos/basis_set_n_funcs/functionals/gga_c_N12/C4H6/inp/C4H6_gga_c_N12_augccpvqz.en.tmp) ****
Finished Guess after   0.4 sec
Maximum memory used throughout the entire GUESS-calculation: 41.5 MB


           ************************************************************
           *        Program running with 8 parallel MPI-processes     *
           *              working on a common directory               *
           ************************************************************

-------------------------------------------------------------------------------------------
                                      ORCA LEAN-SCF
                              memory conserving SCF solver
-------------------------------------------------------------------------------------------

----------------------------------------D-I-I-S--------------------------------------------
Iteration    Energy (Eh)           Delta-E    RMSDP     MaxDP     DIISErr   Damp  Time(sec)
-------------------------------------------------------------------------------------------
               ***  Starting incremental Fock matrix formation  ***
    1    -130.0034656817243786     0.00e+00  2.00e+00  1.76e+02  6.10e-01  0.700  22.4
Warning: op=0 Small HOMO/LUMO gap (   0.030) - skipping pre-diagonalization
         Will do a full diagonalization
    2    -132.4718163361960706    -2.47e+00  1.40e+00  1.23e+02  1.91e-01  0.700  22.2
                               ***Turning on AO-DIIS***
    3    -133.3205563696246827    -8.49e-01  9.83e-01  8.64e+01  1.09e-01  0.700  22.0
    4    -133.6968750160459081    -3.76e-01  6.88e-01  6.05e+01  1.18e-01  0.700  21.7
    5    -133.9004850471128520    -2.04e-01  4.81e-01  4.23e+01  1.47e-01  0.700  21.6
    6    -134.0277401369801851    -1.27e-01  3.37e-01  2.96e+01  1.54e-01  0.700  21.5
    7    -134.1161552463045155    -8.84e-02  2.36e-01  2.07e+01  1.57e-01  0.700  21.4
    8    -134.1821743790435448    -6.60e-02  1.65e-01  1.45e+01  1.50e-01  0.700  21.2
    9    -134.2615767780651481    -7.94e-02  1.15e-01  1.01e+01  9.33e-02  0.700  21.2
   10    -134.3154991782242860    -5.39e-02  2.68e-01  2.36e+01  5.38e-02  0.000  21.0
   11    -134.4189060906755344    -1.03e-01  2.02e-02  6.64e-01  2.19e-02  0.000  21.8
   12    -134.4221629883251694    -3.26e-03  5.44e-03  2.31e-01  8.18e-03  0.000  21.4
                              *** Initializing SOSCF ***
---------------------------------------S-O-S-C-F--------------------------------------
Iteration    Energy (Eh)           Delta-E    RMSDP     MaxDP     MaxGrad    Time(sec)
--------------------------------------------------------------------------------------
   13    -134.4226485496631653    -4.86e-04  2.17e-03  6.91e-02  3.07e-03    20.6
               *** Restarting incremental Fock matrix formation ***
   14    -134.4227860835616752    -1.38e-04  4.64e-03  1.61e-01  1.67e-03    22.0
   15    -134.4228543920767720    -6.83e-05  7.14e-03  3.75e-01  1.27e-03    20.3
   16    -134.4228612202876434    -6.83e-06  1.62e-03  3.10e-02  1.18e-03    20.3
   17    -134.4228892784636855    -2.81e-05  7.52e-04  4.42e-02  1.46e-04    20.2
   18    -134.4228883552804064     9.23e-07  1.63e-04  4.64e-03  1.94e-04    19.2
   19    -134.4228902888749531    -1.93e-06  3.15e-04  1.89e-02  3.29e-05    18.2
   20    -134.4228902903097378    -1.43e-09  1.44e-05  3.87e-04  3.57e-05    18.5
                 **** Energy Check signals convergence ****

               *****************************************************
               *                     SUCCESS                       *
               *           SCF CONVERGED AFTER  20 CYCLES          *
               *****************************************************

             **** ENERGY FILE WAS UPDATED (/cluster/projects/nn14654k/ylvaos/basis_set_n_funcs/functionals/gga_c_N12/C4H6/inp/C4H6_gga_c_N12_augccpvqz.en.tmp) ****

----------------
TOTAL SCF ENERGY
----------------

Total Energy       :       -134.42289033758294 Eh           -3657.83281 eV

Components:
Nuclear Repulsion  :        109.24934557835338 Eh            2972.82583 eV
Electronic Energy  :       -243.67223591593631 Eh           -6630.65864 eV
One Electron Energy:       -414.89896426297952 Eh          -11289.97479 eV
Two Electron Energy:        171.22672834704321 Eh            4659.31615 eV

Virial components:
Potential Energy   :       -272.41359487743887 Eh           -7412.75077 eV
Kinetic Energy     :        137.99070453985590 Eh            3754.91797 eV
Virial Ratio       :          1.97414453231346

DFT components:
N(Alpha)           :       14.999133415485 electrons
N(Beta)            :       14.999133415485 electrons
N(Total)           :       29.998266830970 electrons
E(X)               :        0.000000000000 Eh       
E(C)               :       -1.470549786728 Eh       
E(XC)              :       -1.470549786728 Eh       

---------------
SCF CONVERGENCE
---------------

  Last Energy change         ...    1.4348e-09  Tolerance :   1.0000e-08
  Last MAX-Density change    ...    3.8665e-04  Tolerance :   1.0000e-07
  Last RMS-Density change    ...    1.4377e-05  Tolerance :   5.0000e-09
  Last DIIS Error            ...    3.0665e-03  Tolerance :   5.0000e-07
  Last Orbital Gradient      ...    3.5693e-05  Tolerance :   1.0000e-05
  Last Orbital Rotation      ...    3.9065e-05  Tolerance :   1.0000e-05


----------------
ORBITAL ENERGIES
----------------

  NO   OCC          E(Eh)            E(eV) 
   0   2.0000      -8.388647      -228.2667 
   1   2.0000      -8.386449      -228.2069 
   2   2.0000      -8.386438      -228.2066 
   3   2.0000      -8.367138      -227.6814 
   4   2.0000      -0.534085       -14.5332 
   5   2.0000      -0.372108       -10.1256 
   6   2.0000      -0.287589        -7.8257 
   7   2.0000      -0.223696        -6.0871 
   8   2.0000      -0.209282        -5.6949 
   9   2.0000      -0.167496        -4.5578 
  10   2.0000      -0.138898        -3.7796 
  11   2.0000      -0.079156        -2.1539 
  12   2.0000      -0.057293        -1.5590 
  13   2.0000      -0.027006        -0.7349 
  14   2.0000      -0.019983        -0.5438 
  15   0.0000       0.023805         0.6478 
  16   0.0000       0.028373         0.7721 
  17   0.0000       0.032859         0.8941 
  18   0.0000       0.034969         0.9516 
  19   0.0000       0.048471         1.3190 
  20   0.0000       0.049848         1.3564 
  21   0.0000       0.063255         1.7213 
  22   0.0000       0.084096         2.2884 
  23   0.0000       0.085755         2.3335 
  24   0.0000       0.103138         2.8065 
  25   0.0000       0.103560         2.8180 
*Only the first 10 virtual orbitals were printed.

                    ********************************
                    * MULLIKEN POPULATION ANALYSIS *
                    ********************************

-----------------------
MULLIKEN ATOMIC CHARGES
-----------------------
   0 C :   -1.786008
   1 C :    0.491448
   2 C :   -1.015524
   3 C :   -1.015452
   4 H :    0.713370
   5 H :    0.713340
   6 H :    0.474771
   7 H :    0.474640
   8 H :    0.474767
   9 H :    0.474649
Sum of atomic charges:    0.0000000

--------------------------------
MULLIKEN REDUCED ORBITAL CHARGES
--------------------------------
  0 C s       :     3.994296  s :     3.994296
      pz      :     0.656318  p :     3.629066
      px      :     1.394712
      py      :     1.578036
      dz2     :     0.014435  d :     0.168191
      dxz     :     0.020016
      dyz     :     0.106966
      dx2y2   :     0.021792
      dxy     :     0.004982
      f0      :     0.003812  f :    -0.001020
      f+1     :    -0.001318
      f-1     :    -0.005691
      f+2     :     0.002549
      f-2     :    -0.001718
      f+3     :     0.000094
      f-3     :     0.001253
      g0      :    -0.006550  g :    -0.004524
      g+1     :     0.000033
      g-1     :     0.002449
      g+2     :     0.000152
      g-2     :    -0.000030
      g+3     :     0.000000
      g-3     :    -0.000611
      g+4     :     0.000030
      g-4     :     0.000001

  1 C s       :     3.907062  s :     3.907062
      pz      :     0.288141  p :     1.867377
      px      :     1.048849
      py      :     0.530386
      dz2     :    -0.050405  d :    -0.311059
      dxz     :    -0.214838
      dyz     :    -0.055909
      dx2y2   :    -0.012425
      dxy     :     0.022517
      f0      :     0.008755  f :     0.061779
      f+1     :    -0.001123
      f-1     :     0.040598
      f+2     :     0.016439
      f-2     :    -0.001310
      f+3     :    -0.002058
      f-3     :     0.000477
      g0      :    -0.002862  g :    -0.016606
      g+1     :     0.000920
      g-1     :    -0.014518
      g+2     :    -0.004317
      g-2     :     0.002842
      g+3     :     0.000449
      g-3     :     0.000745
      g+4     :     0.000147
      g-4     :    -0.000012

  2 C s       :     4.151633  s :     4.151633
      pz      :     0.990177  p :     2.889530
      px      :     1.264492
      py      :     0.634861
      dz2     :     0.003605  d :    -0.041981
      dxz     :    -0.069324
      dyz     :    -0.000941
      dx2y2   :    -0.033692
      dxy     :     0.058372
      f0      :     0.003420  f :     0.014411
      f+1     :    -0.007977
      f-1     :    -0.001685
      f+2     :     0.003244
      f-2     :     0.005175
      f+3     :     0.003694
      f-3     :     0.008541
      g0      :     0.000890  g :     0.001931
      g+1     :    -0.000096
      g-1     :    -0.000059
      g+2     :    -0.001928
      g-2     :    -0.000580
      g+3     :    -0.000130
      g-3     :     0.002131
      g+4     :     0.000281
      g-4     :     0.001423

  3 C s       :     4.151534  s :     4.151534
      pz      :     0.990176  p :     2.889546
      px      :     1.264493
      py      :     0.634877
      dz2     :     0.003608  d :    -0.041971
      dxz     :    -0.069319
      dyz     :    -0.000941
      dx2y2   :    -0.033693
      dxy     :     0.058374
      f0      :     0.003420  f :     0.014411
      f+1     :    -0.007977
      f-1     :    -0.001685
      f+2     :     0.003244
      f-2     :     0.005175
      f+3     :     0.003694
      f-3     :     0.008541
      g0      :     0.000890  g :     0.001931
      g+1     :    -0.000096
      g-1     :    -0.000059
      g+2     :    -0.001928
      g-2     :    -0.000580
      g+3     :    -0.000130
      g-3     :     0.002131
      g+4     :     0.000281
      g-4     :     0.001423

  4 H s       :     0.226965  s :     0.226965
      pz      :    -0.013352  p :     0.060730
      px      :     0.010084
      py      :     0.063998
      dz2     :     0.003233  d :     0.000216
      dxz     :    -0.001858
      dyz     :    -0.003343
      dx2y2   :     0.001633
      dxy     :     0.000549
      f0      :     0.000078  f :    -0.001280
      f+1     :     0.000020
      f-1     :     0.000218
      f+2     :    -0.001174
      f-2     :    -0.000022
      f+3     :     0.000281
      f-3     :    -0.000681

  5 H s       :     0.226995  s :     0.226995
      pz      :    -0.013353  p :     0.060731
      px      :     0.010085
      py      :     0.063999
      dz2     :     0.003233  d :     0.000215
      dxz     :    -0.001858
      dyz     :    -0.003342
      dx2y2   :     0.001633
      dxy     :     0.000549
      f0      :     0.000078  f :    -0.001280
      f+1     :     0.000020
      f-1     :     0.000218
      f+2     :    -0.001174
      f-2     :    -0.000022
      f+3     :     0.000281
      f-3     :    -0.000681

  6 H s       :     0.412027  s :     0.412027
      pz      :     0.024330  p :     0.110709
      px      :     0.049289
      py      :     0.037090
      dz2     :    -0.001591  d :     0.003510
      dxz     :     0.001827
      dyz     :    -0.001582
      dx2y2   :     0.004516
      dxy     :     0.000341
      f0      :     0.000014  f :    -0.001017
      f+1     :     0.000092
      f-1     :    -0.000136
      f+2     :     0.000278
      f-2     :    -0.000373
      f+3     :     0.000325
      f-3     :    -0.001216

  7 H s       :     0.412144  s :     0.412144
      pz      :     0.024330  p :     0.110722
      px      :     0.049300
      py      :     0.037092
      dz2     :    -0.001591  d :     0.003511
      dxz     :     0.001827
      dyz     :    -0.001582
      dx2y2   :     0.004516
      dxy     :     0.000341
      f0      :     0.000014  f :    -0.001017
      f+1     :     0.000092
      f-1     :    -0.000136
      f+2     :     0.000278
      f-2     :    -0.000373
      f+3     :     0.000325
      f-3     :    -0.001216

  8 H s       :     0.412027  s :     0.412027
      pz      :     0.024330  p :     0.110712
      px      :     0.049292
      py      :     0.037090
      dz2     :    -0.001591  d :     0.003511
      dxz     :     0.001826
      dyz     :    -0.001582
      dx2y2   :     0.004516
      dxy     :     0.000341
      f0      :     0.000014  f :    -0.001017
      f+1     :     0.000092
      f-1     :    -0.000136
      f+2     :     0.000278
      f-2     :    -0.000374
      f+3     :     0.000325
      f-3     :    -0.001216

  9 H s       :     0.412133  s :     0.412133
      pz      :     0.024330  p :     0.110724
      px      :     0.049302
      py      :     0.037093
      dz2     :    -0.001591  d :     0.003510
      dxz     :     0.001826
      dyz     :    -0.001582
      dx2y2   :     0.004516
      dxy     :     0.000341
      f0      :     0.000014  f :    -0.001017
      f+1     :     0.000092
      f-1     :    -0.000136
      f+2     :     0.000278
      f-2     :    -0.000373
      f+3     :     0.000325
      f-3     :    -0.001216



                     *******************************
                     * LOEWDIN POPULATION ANALYSIS *
                     *******************************

----------------------
LOEWDIN ATOMIC CHARGES
----------------------
   0 C :    0.837253
   1 C :   -0.064695
   2 C :    0.601115
   3 C :    0.601115
   4 H :   -0.393149
   5 H :   -0.393149
   6 H :   -0.297122
   7 H :   -0.297122
   8 H :   -0.297122
   9 H :   -0.297122

-------------------------------
LOEWDIN REDUCED ORBITAL CHARGES
-------------------------------
  0 C s       :     2.447318  s :     2.447318
      pz      :     0.800343  p :     2.104130
      px      :     0.557342
      py      :     0.746446
      dz2     :     0.096692  d :     0.394894
      dxz     :     0.055948
      dyz     :     0.215794
      dx2y2   :     0.020095
      dxy     :     0.006365
      f0      :     0.045664  f :     0.159756
      f+1     :     0.031651
      f-1     :     0.063153
      f+2     :     0.009190
      f-2     :     0.004384
      f+3     :     0.000224
      f-3     :     0.005490
      g0      :     0.021345  g :     0.056649
      g+1     :     0.009942
      g-1     :     0.021709
      g+2     :     0.000958
      g-2     :     0.000253
      g+3     :     0.000156
      g-3     :     0.001937
      g+4     :     0.000341
      g-4     :     0.000008

  1 C s       :     2.389197  s :     2.389197
      pz      :     0.878772  p :     2.039699
      px      :     0.511712
      py      :     0.649215
      dz2     :     0.279896  d :     1.047851
      dxz     :     0.277758
      dyz     :     0.343604
      dx2y2   :     0.042825
      dxy     :     0.103768
      f0      :     0.120409  f :     0.453916
      f+1     :     0.041222
      f-1     :     0.140935
      f+2     :     0.038275
      f-2     :     0.101163
      f+3     :     0.010930
      f-3     :     0.000980
      g0      :     0.040066  g :     0.134033
      g+1     :     0.012765
      g-1     :     0.032260
      g+2     :     0.014949
      g-2     :     0.022274
      g+3     :     0.008031
      g-3     :     0.002324
      g+4     :     0.000269
      g-4     :     0.001095

  2 C s       :     2.367608  s :     2.367608
      pz      :     0.624867  p :     1.944137
      px      :     0.675230
      py      :     0.644040
      dz2     :     0.132330  d :     0.680015
      dxz     :     0.101975
      dyz     :     0.155316
      dx2y2   :     0.089388
      dxy     :     0.201004
      f0      :     0.072440  f :     0.319769
      f+1     :     0.033300
      f-1     :     0.049005
      f+2     :     0.058559
      f-2     :     0.021547
      f+3     :     0.058191
      f-3     :     0.026726
      g0      :     0.009309  g :     0.087357
      g+1     :     0.003665
      g-1     :     0.024253
      g+2     :     0.009652
      g-2     :     0.007942
      g+3     :     0.002769
      g-3     :     0.011242
      g+4     :     0.005699
      g-4     :     0.012827

  3 C s       :     2.367608  s :     2.367608
      pz      :     0.624867  p :     1.944137
      px      :     0.675230
      py      :     0.644040
      dz2     :     0.132330  d :     0.680015
      dxz     :     0.101975
      dyz     :     0.155316
      dx2y2   :     0.089388
      dxy     :     0.201004
      f0      :     0.072440  f :     0.319769
      f+1     :     0.033300
      f-1     :     0.049005
      f+2     :     0.058559
      f-2     :     0.021547
      f+3     :     0.058191
      f-3     :     0.026726
      g0      :     0.009309  g :     0.087357
      g+1     :     0.003665
      g-1     :     0.024253
      g+2     :     0.009652
      g-2     :     0.007942
      g+3     :     0.002769
      g-3     :     0.011242
      g+4     :     0.005699
      g-4     :     0.012827

  4 H s       :     0.655479  s :     0.655479
      pz      :     0.114576  p :     0.396922
      px      :     0.122700
      py      :     0.159646
      dz2     :     0.066616  d :     0.242108
      dxz     :     0.027587
      dyz     :     0.059940
      dx2y2   :     0.052182
      dxy     :     0.035783
      f0      :     0.008413  f :     0.098640
      f+1     :     0.002258
      f-1     :     0.040348
      f+2     :     0.014825
      f-2     :     0.011990
      f+3     :     0.007544
      f-3     :     0.013262

  5 H s       :     0.655479  s :     0.655479
      pz      :     0.114576  p :     0.396922
      px      :     0.122700
      py      :     0.159646
      dz2     :     0.066616  d :     0.242108
      dxz     :     0.027587
      dyz     :     0.059940
      dx2y2   :     0.052182
      dxy     :     0.035783
      f0      :     0.008413  f :     0.098640
      f+1     :     0.002258
      f-1     :     0.040348
      f+2     :     0.014825
      f-2     :     0.011990
      f+3     :     0.007544
      f-3     :     0.013262

  6 H s       :     0.601833  s :     0.601833
      pz      :     0.111415  p :     0.351086
      px      :     0.133925
      py      :     0.105746
      dz2     :     0.036286  d :     0.240162
      dxz     :     0.047570
      dyz     :     0.030447
      dx2y2   :     0.078507
      dxy     :     0.047352
      f0      :     0.007882  f :     0.104041
      f+1     :     0.016682
      f-1     :     0.008968
      f+2     :     0.007216
      f-2     :     0.016963
      f+3     :     0.032943
      f-3     :     0.013387

  7 H s       :     0.601833  s :     0.601833
      pz      :     0.111415  p :     0.351086
      px      :     0.133925
      py      :     0.105746
      dz2     :     0.036286  d :     0.240162
      dxz     :     0.047570
      dyz     :     0.030447
      dx2y2   :     0.078507
      dxy     :     0.047352
      f0      :     0.007882  f :     0.104041
      f+1     :     0.016682
      f-1     :     0.008968
      f+2     :     0.007216
      f-2     :     0.016963
      f+3     :     0.032943
      f-3     :     0.013387

  8 H s       :     0.601833  s :     0.601833
      pz      :     0.111415  p :     0.351086
      px      :     0.133925
      py      :     0.105746
      dz2     :     0.036286  d :     0.240162
      dxz     :     0.047570
      dyz     :     0.030447
      dx2y2   :     0.078507
      dxy     :     0.047352
      f0      :     0.007882  f :     0.104041
      f+1     :     0.016682
      f-1     :     0.008968
      f+2     :     0.007216
      f-2     :     0.016963
      f+3     :     0.032943
      f-3     :     0.013387

  9 H s       :     0.601833  s :     0.601833
      pz      :     0.111415  p :     0.351086
      px      :     0.133925
      py      :     0.105746
      dz2     :     0.036286  d :     0.240162
      dxz     :     0.047570
      dyz     :     0.030447
      dx2y2   :     0.078507
      dxy     :     0.047352
      f0      :     0.007882  f :     0.104041
      f+1     :     0.016682
      f-1     :     0.008968
      f+2     :     0.007216
      f-2     :     0.016963
      f+3     :     0.032943
      f-3     :     0.013387



                      *****************************
                      * MAYER POPULATION ANALYSIS *
                      *****************************

  NA   - Mulliken gross atomic population
  ZA   - Total nuclear charge
  QA   - Mulliken gross atomic charge
  VA   - Mayer's total valence
  BVA  - Mayer's bonded valence
  FA   - Mayer's free valence

  ATOM       NA         ZA         QA         VA         BVA        FA
  0 C      7.7860     6.0000    -1.7860     1.9172     1.9172    -0.0000
  1 C      5.5086     6.0000     0.4914     2.1391     2.1391     0.0000
  2 C      7.0155     6.0000    -1.0155     2.1289     2.1289     0.0000
  3 C      7.0155     6.0000    -1.0155     2.1291     2.1291     0.0000
  4 H      0.2866     1.0000     0.7134     0.4024     0.4024    -0.0000
  5 H      0.2867     1.0000     0.7133     0.4024     0.4024     0.0000
  6 H      0.5252     1.0000     0.4748     0.8752     0.8752     0.0000
  7 H      0.5254     1.0000     0.4746     0.8754     0.8754     0.0000
  8 H      0.5252     1.0000     0.4748     0.8752     0.8752    -0.0000
  9 H      0.5254     1.0000     0.4746     0.8754     0.8754     0.0000

  Mayer bond orders larger than 0.100000
B(  0-C ,  1-C ) :   1.3473 B(  0-C ,  2-C ) :  -0.1518 B(  0-C ,  3-C ) :  -0.1518 
B(  0-C ,  4-H ) :   0.3477 B(  0-C ,  5-H ) :   0.3478 B(  1-C ,  2-C ) :   0.6141 
B(  1-C ,  3-C ) :   0.6143 B(  2-C ,  3-C ) :   0.1017 B(  2-C ,  6-H ) :   0.8200 
B(  2-C ,  7-H ) :   0.8203 B(  3-C ,  8-H ) :   0.8200 B(  3-C ,  9-H ) :   0.8203 
B(  6-H ,  7-H ) :   0.1003 B(  8-H ,  9-H ) :   0.1003 

-------
TIMINGS
-------

Total SCF time: 0 days 0 hours 7 min 15 sec 

Total time                  ....     435.313 sec
Sum of individual times     ....     418.990 sec  ( 96.3%)

SCF preparation             ....       0.117 sec  (  0.0%)
Fock matrix formation       ....     416.597 sec  ( 95.7%)
  Startup                   ....       0.024 sec  (  0.0% of F)
  Coulomb formation         ....     425.892 sec  (102.2% of F)
  XC integration            ....       6.604 sec  (  1.6% of F)
    XC Preparation          ....       0.000 sec  (  0.0% of XC)
    Basis function eval.    ....       0.599 sec  (  9.1% of XC)
    Density eval.           ....       1.532 sec  ( 23.2% of XC)
    XC-Functional eval.     ....       0.068 sec  (  1.0% of XC)
    XC-Potential eval.      ....       4.032 sec  ( 61.0% of XC)
Diagonalization             ....       0.000 sec  (  0.0%)
Density matrix formation    ....       0.224 sec  (  0.1%)
Total Energy calculation    ....       0.080 sec  (  0.0%)
Population analysis         ....       0.052 sec  (  0.0%)
Orbital Transformation      ....       0.162 sec  (  0.0%)
Orbital Orthonormalization  ....       0.000 sec  (  0.0%)
DIIS solution               ....       1.354 sec  (  0.3%)
SOSCF solution              ....       0.403 sec  (  0.1%)
Finished LeanSCF after 435.4 sec

Maximum memory used throughout the entire LEANSCF-calculation: 52.3 MB


           ************************************************************
           *        Program running with 8 parallel MPI-processes     *
           *              working on a common directory               *
           ************************************************************

------------------------------------------------------------------------------
                         ORCA PROPERTY INTEGRAL CALCULATIONS
------------------------------------------------------------------------------

GBWName                                   ... /cluster/projects/nn14654k/ylvaos/basis_set_n_funcs/functionals/gga_c_N12/C4H6/inp/C4H6_gga_c_N12_augccpvqz.gbw
Number of atoms                           ...     10
Number of basis functions                 ...    624
Max core memory                           ...   4096 MB

Dipole integrals                          ... YES
Quadrupole integrals                      ... YES
Linear momentum integrals                 ...  NO
Angular momentum integrals                ...  NO
Higher moments length integrals           ...  NO
Higher moments velocity integrals         ...  NO
Kinetic energy integrals                  ...  NO
GIAO right hand sides                     ...  NO
GIAO dipole derivative integrals          ...  NO
SOC integrals                             ...  NO
EPR diamagnetic integrals (GIAO)          ...  NO
EPR gauge integrals                       ...  NO
Field gradient integrals                  ...  NO (   0 nuclei)
Spin-dipole/Fermi contact integrals       ...  NO (   0 nuclei)
Contact density integrals                 ...  NO (   0 nuclei)
Nucleus-orbit integrals                   ...  NO (   0 nuclei)
Geometric perturbations                   ...  NO (  10 nuclei)

Choice of electric origin   ... Center of mass
Position of electric origin ... (  0.0000,  0.0000,  0.0124) 
Choice of magnetic origin   ... GIAO
Position of magnetic origin ... (  0.0000,  0.0000,  0.0000) 

Calculating integrals                     ... Electric Dipole (Length)     done (  0.0 sec)
Calculating integrals                     ... Electric Quadrupole (Length) done (  0.0 sec)

Property integrals calculated in   0.1 sec

Maximum memory used throughout the entire PROPINT-calculation: 48.3 MB
------------------------------------------------------------------------------
                           ORCA ORBITAL LOCALIZATION
------------------------------------------------------------------------------

Input orbitals are from                  ... /cluster/projects/nn14654k/ylvaos/basis_set_n_funcs/functionals/gga_c_N12/C4H6/inp/C4H6_gga_c_N12_augccpvqz.gbw
Output orbitals are to                   ... /cluster/projects/nn14654k/ylvaos/basis_set_n_funcs/functionals/gga_c_N12/C4H6/inp/C4H6_gga_c_N12_augccpvqz.loc
Max. number of iterations                ... 128
Localizations seeded randomly            ... on
Convergence tolerance                    ... 1.000e-06
Threshold for strong local MOs           ... 9.500e-01
Threshold for bond MOs                   ... 8.500e-01
Operator                                 ... 0
Orbital range for localization           ... 4 to 14
Localization criterion                   ... NEW-BOYS
Doing the dipole integrals               ... o.k.
Initial value of the localization sum :    54.161886
ITERATION   0 : L=   83.0895393310 DL=  2.89e+01 (AVERGE_DL)=    0.7252291611 
ITERATION   1 : L=   89.1607508987 DL=  6.07e+00 (AVERGE_DL)=    0.3322433820 
ITERATION   2 : L=   89.2129972593 DL=  5.22e-02 (AVERGE_DL)=    0.0308209966 
ITERATION   3 : L=   89.2134648606 DL=  4.68e-04 (AVERGE_DL)=    0.0029157920 
ITERATION   4 : L=   89.2134708713 DL=  6.01e-06 (AVERGE_DL)=    0.0003305825 
ITERATION   5 : L=   89.2134709792 DL=  1.08e-07 (AVERGE_DL)=    0.0000442946 
LOCALIZATION SUM CONVERGED


--------------------------------------------------------------------------------
                    LOCALIZED MOLECULAR ORBITAL COMPOSITIONS
--------------------------------------------------------------------------------

The Mulliken populations for each LMO on each atom are computed
The LMO`s will be ordered according to atom index and type
  (A) Strongly localized MO`s have populations of >=0.950 on one atom
  (B) Two center bond orbitals have populations of >=0.850 on two atoms
  (C) Other MO`s are considered to be `delocalized`

FOUND  -   0 strongly local MO`s
       -  11 two center bond MO`s
       -   0 significantly delocalized MO`s

Bond-like localized orbitals:
MO  14:   3C  -   0.528268  and   2C  -   0.528264
MO  13:   3C  -   0.436800  and   1C  -   0.636320
MO  12:   3C  -   0.944729  and   0C  -  -0.011939
MO  11:   3C  -   0.944752  and   0C  -  -0.011944
MO  10:   2C  -   0.436809  and   1C  -   0.636309
MO   9:   2C  -   0.944748  and   0C  -  -0.011948
MO   8:   2C  -  -0.014824  and   0C  -   0.938800
MO   7:   2C  -   0.022529  and   0C  -   0.938799
MO   6:   2C  -   0.944781  and   0C  -  -0.011950
MO   5:   1C  -   0.618825  and   0C  -   0.566189
MO   4:   1C  -   0.618830  and   0C  -   0.566178
Localized MO's were stored in: /cluster/projects/nn14654k/ylvaos/basis_set_n_funcs/functionals/gga_c_N12/C4H6/inp/C4H6_gga_c_N12_augccpvqz.loc

-------------------------   --------------------
FINAL SINGLE POINT ENERGY      -134.422890337583
-------------------------   --------------------



           ************************************************************
           *        Program running with 8 parallel MPI-processes     *
           *              working on a common directory               *
           ************************************************************

------------------------------------------------------------------------------
                              ORCA PROPERTY CALCULATIONS
------------------------------------------------------------------------------

GBWName                                 ... /cluster/projects/nn14654k/ylvaos/basis_set_n_funcs/functionals/gga_c_N12/C4H6/inp/C4H6_gga_c_N12_augccpvqz.gbw
Number of atoms                         ...     10
Number of basis functions               ...    624
Max core memory                         ...   4096 MB

Electric properties:
Dipole moment                           ... YES
Quadrupole moment                       ... YES
Static polarizability (Dipole/Dipole)   ...  NO
Static polarizability (Dipole/Quad.)    ...  NO
Static polarizability (Quad./Quad.)     ...  NO
Static polarizability (Velocity)        ...  NO
Static hyperpolarizability              ...  NO

Atomic electric properties:
Dipole moment                           ...  NO
Quadrupole moment                       ...  NO
Static polarizability                   ...  NO

Choice of electric origin               ... Center of mass
Position of electric origin             ...     0.000000     0.000000     0.012360

General magnetic properties:
Magnetizability                         ...  NO

EPR properties:
g-Tensor (aka g-matrix)                 ...  NO
Zero-Field splitting spin-orbit         ...  NO
Zero-field splitting spin-spin          ...  NO
Hyperfine couplings                     ...  NO (   0 nuclei)
Quadrupole couplings                    ...  NO (   0 nuclei)
Contact density                         ...  NO (   0 nuclei)

NMR properties:
Chemical shifts                         ...  NO (   0 nuclei)
Spin-rotation constants                 ...  NO (   0 nuclei)
Spin-spin couplings                     ...  NO (   0 nuclei,    0 pairs)

Choice of magnetic origin               ... GIAO
Position of magnetic origin             ...     0.000000     0.000000     0.000000

Properties with geometric perturbations:
SCF Hessian                             ...  NO
IR spectrum                             ...  NO
VCD spectrum                            ...  NO
X-ray spectroscopy properties:
SCF XES/XAS/RIXS spectra                ...  NO

SCF SOC stabilization energy            ...  NO
Diagonal Born-Oppenheimer correction    ...  NO

-------------
DIPOLE MOMENT
-------------

Method             : SCF
Type of density    : Electron Density
Multiplicity       :   1
Irrep              :   0
Energy             :  -134.4228903375829418 Eh
Basis              : AO
                                X                 Y                 Z
Electronic contribution:     -0.000000060       0.000000050       0.013188626
Nuclear contribution   :      0.000000000       0.000000000      -0.371559272
                        -----------------------------------------
Total Dipole Moment    :     -0.000000060       0.000000050      -0.358370645
                        -----------------------------------------
Magnitude (a.u.)       :      0.358370645
Magnitude (Debye)      :      0.910905790



--------------------
Rotational spectrum 
--------------------
 
Rotational constants in cm-1:             0.643527             0.230144             0.181788 
Rotational constants in MHz :         19292.450199          6899.535423          5449.866904 

Dipole components along the rotational axes: 
x,y,z [a.u.] :    -0.358371     0.000000    -0.000000 
x,y,z [Debye]:    -0.910906     0.000000    -0.000000 

 

Dipole moment calculation done in   0.0 sec 

-----------------
QUADRUPOLE MOMENT
-----------------

Method             : SCF
Type of density    : Electron Density
Multiplicity       :   1
Irrep              :   0
Energy             :  -134.4228903375829418 Eh
Basis              : AO

                XX              YY              ZZ              XY              XZ              YZ
  NUC       11.888664720    55.799971245   152.416444257     0.000000000     0.000000000     0.000000000
  EL       -41.521907735   -85.729373775  -183.683950801     0.000000328    -0.000000250     0.000001968
  TOT      -29.633243015   -29.929402530   -31.267506544     0.000000328    -0.000000250     0.000001968 (a.u.)
           -39.857725312   -40.256069989   -42.055865650     0.000000441    -0.000000336     0.000002647 (Buckingham)

diagonalized tensor:
           -31.267506544   -29.929402530   -29.633243015 (a.u.)
           -42.055865650   -40.256069989   -39.857725312 (Buckingham)
            -3.997935998     1.401450985     2.596485014 (traceless form in Buckingham)

             0.000000153    -0.000001106     1.000000000
            -0.000001471     1.000000000     0.000001106
             1.000000000     0.000001471    -0.000000153
        
Isotropic quadrupole :   -30.276717363

Quadrupole moment calculation done in   0.0 sec (  0.0 sec for integrals)

Maximum memory used throughout the entire PROP-calculation: 46.2 MB

--------------------------------
SUGGESTED CITATIONS FOR THIS RUN
--------------------------------

Below you find a list of papers that are relevant to this ORCA run
We neither can nor want to force you to cite these papers, but we appreciate if you do
You receive ORCA, which is the product of decades of hard work by many enthusiastic individuals, for free
The only thing we kindly ask in return is that you cite our papers,
We deeply appreciate it, if you show your appreciation for ORCA by not just citing the generic ORCA reference.

Please note that relegating all ORCA citations to the supporting information does *not* help us.
SI sections are not indexed - citations you put there will not count into any citation statistics
But we need these citations in order to attract the funding resources that allow us to do what we are doing

Therefore, if you are a happy ORCA user, please consider citing a few of the papers listed below in the main body of your paper

In addition to the list printed below, the program has created the file /cluster/projects/nn14654k/ylvaos/basis_set_n_funcs/functionals/gga_c_N12/C4H6/inp/C4H6_gga_c_N12_augccpvqz.bibtex that contains the list in bibtex format
You can import this file easily into all common literature databanks and citation aid programs

It goes without saying that in many instances, there are alternative algorithms to achieve similar
results as the ones you have gotten from ORCA. It is, of course, also the case that in some instances
ORCA just re-implements algorithms worked out by others. We are fully aware of that and we are also
fully appreciative of our colleagues work. Hence this citation list should not be read as indicating
that the listed papers, which are focused on our own work, are the only ones worth citing. It simply
meant to make it easier for users to cite ORCA specific papers. It is not a substitute for doing your
own literature research and citing the relevant literature in a scientifically appropriate manner.

List of essential papers. We consider these as the minimum necessary citations

  1. Neese, F.
     Software update: the ORCA program system, version 6.0
     WIRES Comput. Molec. Sci. 2025 15(1), e70019
     doi.org/10.1002/wcms.70019

List of papers to cite with high priority. The work reported in these papers was absolutely
necessary for this run to complete.
Our perspective: the developers of density functionals and basis sets usually get cited in chemistry papers
Good! But without the algorithms to do something with them, the functionals or basis sets would not do anything.
Hence, in our opinion, the algorithm design and method developments papers are equally worthy of getting cited

  1. Lehtola, S.; Steigemann, C.; Oliveira, M.; Marques, M.
     Recent developments in Libxc - A comprehensive library of functionals for density functional theory
     Software X 2018 7 , 
     doi.org/10.1016/j.softx.2017.11.002
  2. Neese, F.
     The SHARK Integral Generation and Digestion System
     J. Comp. Chem. 2022 44(3), 381
     doi.org/10.1002/jcc.26942

List of suggested additional citations. These are papers that are important in the 'surrounding' of 
of this run, or papers that preceded the highly important papers. If you like your results we are grateful for a citation.

  1. Neese, F.
     The ORCA program system
     WIRES Comput. Molec. Sci. 2012 2(1), 73-78
     doi.org/10.1002/wcms.81
  2. Neese, F.
     Software update: the ORCA program system, version 4.0
     WIRES Comput. Molec. Sci. 2018 8(1), 1-6
     doi.org/10.1002/wcms.1327
  3. Neese, F.; Wennmohs, F.; Becker, U.; Riplinger, C.
     The ORCA quantum chemistry program package
     J. Chem. Phys. 2020 152(22), 224108
     doi.org/10.1063/5.0004608
  4. Neese, F.
     Software update: The ORCA program system—Version 5.0
     WIRES Comput. Molec. Sci. 2022 12(1), e1606
     doi.org/10.1002/wcms.1606

List of optional additional citations

  1. Neese, F.
     Approximate second-order SCF convergence for spin unrestricted wavefunctions
     Chem. Phys. Lett. 2000 325(1-3), 93-98
     doi.org/10.1016/s0009-2614(00)00662-x

Timings for individual modules:

Sum of individual times          ...      438.119 sec (=   7.302 min)
Startup calculation              ...        1.225 sec (=   0.020 min)   0.3 %
SCF iterations                   ...      436.191 sec (=   7.270 min)  99.6 %
Property integrals               ...        0.373 sec (=   0.006 min)   0.1 %
Property calculations            ...        0.304 sec (=   0.005 min)   0.1 %
Orbital localization             ...        0.026 sec (=   0.000 min)   0.0 %
                             ****ORCA TERMINATED NORMALLY****
TOTAL RUN TIME: 0 days 0 hours 7 minutes 18 seconds 706 msec
