
                                 *****************
                                 * O   R   C   A *
                                 *****************

                                            #,                                       
                                            ###                                      
                                            ####                                     
                                            #####                                    
                                            ######                                   
                                           ########,                                 
                                     ,,################,,,,,                         
                               ,,#################################,,                 
                          ,,##########################################,,             
                       ,#########################################, ''#####,          
                    ,#############################################,,   '####,        
                  ,##################################################,,,,####,       
                ,###########''''           ''''###############################       
              ,#####''   ,,,,##########,,,,          '''####'''          '####       
            ,##' ,,,,###########################,,,                        '##       
           ' ,,###''''                  '''############,,,                           
         ,,##''                                '''############,,,,        ,,,,,,###''
      ,#''                                            '''#######################'''  
     '                                                          ''''####''''         
             ,#######,   #######,   ,#######,      ##                                
            ,#'     '#,  ##    ##  ,#'     '#,    #''#        ,####,    ,#,          
            ##       ##  ##   ,#'  ##            #'  '#       #'       ,# #          
            ##       ##  #######   ##           ,######,      #####,      #          
            '#,     ,#'  ##    ##  '#,     ,#' ,#      #,     #,   #      #          
             '#######'   ##     ##  '#######'  #'      '#     '####' #    #          



                #########################################################
                #                        -***-                          #
                #          Department of theory and spectroscopy        #
                #                                                       #
                #                      Frank Neese                      #
                #                                                       #
                #     Directorship, Architecture, Infrastructure        #
                #                    SHARK, DRIVERS                     #
                #        Core code/Algorithms in most modules           #
                #                                                       #
                #        Max Planck Institute fuer Kohlenforschung      #
                #                Kaiser Wilhelm Platz 1                 #
                #                 D-45470 Muelheim/Ruhr                 #
                #                      Germany                          #
                #                                                       #
                #                  All rights reserved                  #
                #                        -***-                          #
                #########################################################


                         Program Version 6.1.1  -  RELEASE   -
                                (GIT: $487d211c$)
                          ($2025-11-21 10:33:24 +0100$)


 With contributions from (in alphabetic order):
[Max-Planck-Institut fuer Kohlenforschung]                               
  Daniel Aravena         : Magnetic Suceptibility                        
  Michael Atanasov       : Ab Initio Ligand Field Theory (pilot matlab implementation)
  Alexander A. Auer      : GIAO ZORA, VPT2 properties, NMR spectrum      
  Ute Becker             : All parallelization in ORCA, NUMFREQ, NUMCALC 
  Giovanni Bistoni       : ED, misc. LED, open-shell LED, HFLD           
  Dmytro Bykov           : pre 5.0 version of the SCF Hessian            
  Marcos Casanova-Páez   : Triplet and SCS-CIS(D). UHF-(DLPNO)-IP/EA/STEOM-CCSD. UHF-CVS-IP/STEOM-CCSD   
  Vijay G. Chilkuri      : MRCI spin determinant printing, contributions to CSF-ICE 
  Pauline Colinet        : FMM embedding                                 
  Dipayan Datta          : RHF DLPNO-CCSD density                        
  Achintya Kumar Dutta   : EOM-CC, STEOM-CC                              
  Nicolas Foglia         : Exact transition moments, OPA infrastructure, MCD improvements    
  Dmitry Ganyushin       : Spin-Orbit,Spin-Spin,Magnetic field MRCI      
  Miquel Garcia-Rates    : C-PCM and meta-GGA Hessian, CCSD/C-PCM, Gaussian charge scheme 
  Tiago L. C. Gouveia    : GS-ROHF, GS-ROCIS                             
  Yang Guo               : DLPNO-NEVPT2, F12-NEVPT2, CIM, IAO-localization        
  Andreas Hansen         : Spin unrestricted coupled pair/coupled cluster methods 
  Ingolf Harden          : AUTO-CI MPn and infrastructure                
  Benjamin Helmich-Paris : MC-RPA, TRAH-(SCF,CASSCF), AVAS, COSX integrals, SCF dyn. polar., MC-PDFT, srDFT 
  Lee Huntington         : MR-EOM, pCC                                   
  Robert Izsak           : Overlap fitted RIJCOSX, COSX-SCS-MP3, EOM     
  Riya Kayal             : Wick's Theorem for AUTO-CI, AUTO-CI UHF-CCSDT 
  Emily Kempfer          : AUTO-CI RHF CISDT and CCSDT, approximate NEVPT4
  Christian Kollmar      : KDIIS, OOCD, Brueckner-CCSD(T), CCSD density, CASPT2, CASPT2-K, improved NEVPT2 
  Axel Koslowski         : Symmetry handling                             
  Simone Kossmann        : meta-GGA functionals, TD-DFT gradient, OOMP2, (MP2 Hessian; deprecated post 5.0) 
  Lucas Lang             : DCDCAS, Hyperfine gauge corrections, ICE-SOC+SSC
  Marvin Lechner         : AUTO-CI (C++ implementation), FIC-MRCC        
  Spencer Leger          : CASSCF response                               
  Dagmar Lenk            : GEPOL surface, SMD, ORCA-2-JSON               
  Dimitrios Liakos       : Extrapolation schemes; Compound Job, Property file
  Dimitrios Manganas     : Further ROCIS development; embedding schemes. LFT, Crystal Embedding 
  Dimitrios Pantazis     : SARC Basis sets                               
  Anastasios Papadopoulos: AUTO-CI, single reference methods and gradients 
  Taras Petrenko         : pre 6.0 DFT Hessian and TD-DFT gradient,  ECA, NRVS 
  Petra Pikulova         : Analytic Raman intensities                    
  Peter Pinski           : DLPNO-MP2, DLPNO-MP2 Gradient                 
  Shashank Vittal Rao    : ES-AILFT, MagRelax                            
  Christoph Reimann      : Effective Core Potentials                     
  Marius Retegan         : Local ZFS, SOC                                
  Christoph Riplinger    : Optimizer, TS searches, QM/MM, DLPNO-CCSD(T), (RO)-DLPNO pert. Triples 
  Michael Roemelt        : Original ROCIS implementation, recursive CI coupling coefficients
  Masaaki Saitow         : Open-shell DLPNO-CCSD energy and density      
  Barbara Sandhoefer     : DKH picture change effects                    
  Yorick L. A. Schmerwitz: GMF and freeze-and-release deltaSCF, NEB S-IDPP initial path                    
  Kantharuban Sivalingam : CASSCF convergence/infrastructure, NEVPT2, NEVPT3, NEVPT4(SD), FIC-MRCI and CEPA variants
  Bernardo de Souza      : ESD, SOC TD-DFT                               
  Georgi L. Stoychev     : AutoAux, RI-MP2 NMR, DLPNO-MP2 response, X2C  
  Van Anh Tran           : RI-MP2 g-tensors                              
  Willem Van den Heuvel  : Paramagnetic NMR                              
  Zikuan Wang            : NOTCH, Electric field optimization            
  Frank Wennmohs         : Technical directorship and infrastructure     
  Hang Xu                : AUTO-CI-Response properties                   
                                                                         
[FACCTs GmbH]                                                            
  Markus Bursch, Nicolas Foglia, Miquel Garcia-Rates, Ingolf Harden, Hagen Neugebauer, Anastasios Papadopoulos, 
  Christoph Riplinger, Bernardo de Souza, Georgi L. Stoychev                                                    
                                                                 
  APM, various basis sets, CI-OPT, improved COSX, DLPNO-Multilevel,           
  DOCKER, DRACO, updates on ESD, Fragmentator, GOAT, IRC, LR-CPCM, L-BFGS, MBIS, meta-GGA TD-DFT gradient, ML-optimized integration grids, 
  MM, NACMEs, nearIR, NEB, NEB-TS, NL-DFT gradient (VV10), 2- and 3-layer-ONIOM, interface openCOSMO-RS, QMMM,   
  Crystal-QMMM, RESP, rigid body optimization, SF, symmetry and pop. for TD-DFT, various functionals, SOLVATOR                                   
                                                                         
[Other institutions]                                                     
  V. Asgeirsson          : NEB                                           
  Christoph Bannwarth    : sTDA-DFT, sTD-DFT, PBEh-3c, B97-3c, D3        
  Giovanni Bistoni       : ETS/NOCV, ADLD/ADEX, COVALED                  
  Martin Brehm           : Molecular dynamics                            
  Ronald Cardenas        : ETS/NOCV                                      
  Martina Colucci        : COVALED                                       
  Sebastian Ehlert       : rSCAN, r2SCAN, r2SCAN-3c, D4, dhf basis sets  
  Marvin Friede          : D4 for Fr, Ra, Ac-Lr                          
  Lars Goerigk           : TD-DFT with DH, B97 family of functionals     
  Stefan Grimme          : VdW corrections, initial TS optimization, DFT functionals, gCP, sTDA/sTD-DF 
  Waldemar Hujo          : DFT-NL                                        
  H. Jonsson             : NEB                                           
  Holger Kruse           : gCP                                           
  Marcel Mueller         : wB97X-3c, vDZP basis set                      
  Hagen Neugebauer       : wr2SCAN, Native XTB                           
  Gianluca Regni         : ADLD/ADEX                                     
  Tobias Risthaus        : pre 6.0 range-separated hybrid DFT and stability analysis
  Lukas Wittmann         : regularized MP2, r2SCAN double-hybrids, wr2SCAN        
                                                                         
We gratefully acknowledge several colleagues who have allowed us to      
interface, adapt or use parts of their codes:                            
  Ed Valeev, F. Pavosevic, A. Kumar             : LibInt (2-el integral package), F12 methods 
  Garnet Chan, S. Sharma, J. Yang, R. Olivares  : DMRG                   
  Ulf Ekstrom                                   : XCFun DFT Library      
  Mihaly Kallay                                 : mrcc  (arbitrary order and MRCC methods)
  Frank Weinhold                                : gennbo (NPA and NBO analysis)           
  Simon Mueller                                 : openCOSMO-RS                            
  Christopher J. Cramer and Donald G. Truhlar   : smd solvation model                     
  S Lehtola, MJT Oliveira, MAL Marques          : LibXC Library                           
  Liviu Ungur et al                             : ANISO software                          


 Your calculation uses the libint2 library for the computation of 2-el integrals
 For citations please refer to: http://libint.valeyev.net

 Your ORCA version has been built with support for libXC version: 7.0.0
 For citations please refer to: https://libxc.gitlab.io

 This ORCA versions uses:
   CBLAS   interface :  Fast vector & matrix operations
   LAPACKE interface :  Fast linear algebra routines
   SCALAPACK package :  Parallel linear algebra routines
   Shared memory     :  Shared parallel matrices
   BLAS/LAPACK       :  OpenBLAS 0.3.29  USE64BITINT DYNAMIC_ARCH NO_AFFINITY Cooperlake SINGLE_THREADED
        Core in use  :  Cooperlake
   Copyright (c) 2011-2014, The OpenBLAS Project


  ***********************************
  * Starting time: Wed May 20 12:35:45 2026
  * Host name:     c1-51
  * Process ID:    2960293
  * Working dir.:  /cluster/projects/nn14654k/ylvaos/basis_set_n_funcs/functionals/gga_c_pbe/LiS/out
  ***********************************

Using LibXC functional ID 130 : Perdew, Burke & Ernzerhof
[ 1]  J. P. Perdew, K. Burke, and M. Ernzerhof.,  Phys. Rev. Lett. 77, 3865 (1996)
[ 2]  J. P. Perdew, K. Burke, and M. Ernzerhof.,  Phys. Rev. Lett. 78, 1396 (1997)
Using LibXC functional ID 130 : Perdew, Burke & Ernzerhof
[ 1]  J. P. Perdew, K. Burke, and M. Ernzerhof.,  Phys. Rev. Lett. 77, 3865 (1996)
[ 2]  J. P. Perdew, K. Burke, and M. Ernzerhof.,  Phys. Rev. Lett. 78, 1396 (1997)
Your calculation utilizes LibXC
by S. Lehtola, C. Steigemann, M. J. T. Oliveira & M. A. L. Marques
Please cite in your paper:
Lehtola, S.; Steigemann, C.; Oliveira, M.J.T.; Marques, M. A. L. Software X, 7, (2018), 1.
   

================================================================================

----- Orbital basis set information -----
Your calculation utilizes the basis: pc-4
   H, C-F              : F. Jensen, J. Chem. Phys. 115, 9113 (2001).
                         F. Jensen, J. Chem. Phys. 116, 7372 (2002).
                         F. Jensen, J. Chem. Phys. 117, 9234 (2002).
   Si-Cl               : F. Jensen, T. Helgaker, J. Chem. Phys. 121, 3463 (2004).
   He-B, Ne-Mg, Al, Ar : F. Jensen, J. Phys. Chem. A 111, 11198 (2007).
   K, Ca, Ga-Kr        : F. Jensen, J. Chem. Phys. 136, 094110 (2012).
   Sc-Zn               : F. Jensen, J. Chem. Phys. 138, 014107 (2013).

================================================================================
                                        WARNINGS
                       Please study these warnings very carefully!
================================================================================


WARNING: The basis set has functions with high angular momentum (Lmax>4).
         We might need to increase small grids for safety reasons and
         in general, DEFGRID3 is recommend for such cases.
  ===> : GRIDX1, TD-DFT and the CP-SCF AngGrids will be increased to at least 2


WARNING: your system is open-shell and RHF/RKS was chosen
  ===> : WILL SWITCH to UHF/UKS


================================================================================
                                       INPUT FILE
================================================================================
NAME = /cluster/projects/nn14654k/ylvaos/basis_set_n_funcs/functionals/gga_c_pbe/LiS/inp/LiS_gga_c_pbe_pc4.inp
|  1> ! dft pc-4 TightSCF
|  2> %pal nprocs 8 end
|  3> 
|  4> %loc
|  5>   LocMet NewBoys
|  6>   Occ true
|  7> end
|  8> 
|  9> %method
| 10>   exchange None
| 11>   correlation gga_c_pbe
| 12> end
| 13> 
| 14> %elprop
| 15>   Dipole true
| 16>   Quadrupole true
| 17> end
| 18> 
| 19> * xyz 0 2
| 20> Li    0.000000000000   0.000000000000  -1.074850000000
| 21> S    0.000000000000   0.000000000000   1.074850000000
| 22> *
| 23> 
| 24> 
| 25>                          ****END OF INPUT****
================================================================================

                       ****************************
                       * Single Point Calculation *
                       ****************************

---------------------------------
CARTESIAN COORDINATES (ANGSTROEM)
---------------------------------
  Li     0.000000    0.000000   -1.074850
  S      0.000000    0.000000    1.074850

----------------------------
CARTESIAN COORDINATES (A.U.)
----------------------------
  NO LB      ZA    FRAG     MASS         X           Y           Z
   0 Li    3.0000    0     6.941    0.000000    0.000000   -2.031172
   1 S    16.0000    0    32.060    0.000000    0.000000    2.031172

--------------------------------
INTERNAL COORDINATES (ANGSTROEM)
--------------------------------
 Li     0   0   0     0.000000000000     0.00000000     0.00000000
 S      1   0   0     2.149700000000     0.00000000     0.00000000

---------------------------
INTERNAL COORDINATES (A.U.)
---------------------------
 Li     0   0   0     0.000000000000     0.00000000     0.00000000
 S      1   0   0     4.062344270091     0.00000000     0.00000000

---------------------
BASIS SET INFORMATION
---------------------
There are 2 groups of distinct atoms

 Group   1 Type Li  : 30s8p3d2f1g contracted to 8s4p3d2f1g pattern {1212111111/5111/111/11/1}
 Group   2 Type S   : 43s26p6d3f2g1h contracted to 7s6p6d3f2g1h pattern {1512121111/11111111/111111/111/11/1}

Atom   0Li   basis set group =>   1
Atom   1S    basis set group =>   2


           ************************************************************
           *        Program running with 8 parallel MPI-processes     *
           *              working on a common directory               *
           ************************************************************
------------------------------------------------------------------------------
                             ORCA STARTUP CALCULATIONS
------------------------------------------------------------------------------
------------------------------------------------------------------------------
                   ___                                                        
                  /   \      - P O W E R E D   B Y -                         
                 /     \                                                     
                 |  |  |   _    _      __       _____    __    __             
                 |  |  |  | |  | |    /  \     |  _  \  |  |  /  |          
                  \  \/   | |  | |   /    \    | | | |  |  | /  /          
                 / \  \   | |__| |  /  /\  \   | |_| |  |  |/  /          
                |  |  |   |  __  | /  /__\  \  |    /   |      \           
                |  |  |   | |  | | |   __   |  |    \   |  |\   \          
                \     /   | |  | | |  |  |  |  | |\  \  |  | \   \       
                 \___/    |_|  |_| |__|  |__|  |_| \__\ |__|  \__/        
                                                                              
                      - O R C A' S   B I G   F R I E N D -                    
                                      &                                       
                       - I N T E G R A L  F E E D E R -                       
                                                                              
 v1 FN, 2020, v2 2021, v3 2022-2024                                           
------------------------------------------------------------------------------


----------------------
SHARK INTEGRAL PACKAGE
----------------------

Number of atoms                             ...      2
Number of basis functions                   ...    163
Number of shells                            ...     43
Maximum angular momentum                    ...      5
Integral batch strategy                     ... SHARK/LIBINT Hybrid
RI-J (if used) integral strategy            ... SPLIT-RIJ (Revised 2003 algorithm where possible)
Printlevel                                  ...      1
Contraction scheme used                     ... SEGMENTED contraction
Prescreening option                         ... SCHWARTZ
   Thresh                                   ... 2.500e-11
   Tcut                                     ... 2.500e-12
   Tpresel                                  ... 2.500e-12 
Coulomb Range Separation                    ... NOT USED
Exchange Range Separation                   ... NOT USED
Multipole approximations                    ... NOT USED
Finite Nucleus Model                        ... NOT USED
CABS basis                                  ... NOT available
Auxiliary Coulomb fitting basis             ... NOT available
Auxiliary J/K fitting basis                 ... NOT available
Auxiliary Correlation fitting basis         ... NOT available
Auxiliary 'external' fitting basis          ... NOT available

Checking pre-screening integrals            ... done (  0.0 sec) Dimension = 43
   => SHARK Basis and OBASIS are compatible. Storing Pre-screening
Shell pair information
Shell pair cut-off parameter TPreSel        ...   2.5e-12
Total number of shell pairs                 ...       946
Shell pairs after pre-screening             ...       946
Total number of primitive shell pairs       ...      8364
Primitive shell pairs kept                  ...      6908
          la=0 lb=0:    120 shell pairs
          la=1 lb=0:    150 shell pairs
          la=1 lb=1:     55 shell pairs
          la=2 lb=0:    135 shell pairs
          la=2 lb=1:     90 shell pairs
          la=2 lb=2:     45 shell pairs
          la=3 lb=0:     75 shell pairs
          la=3 lb=1:     50 shell pairs
          la=3 lb=2:     45 shell pairs
          la=3 lb=3:     15 shell pairs
          la=4 lb=0:     45 shell pairs
          la=4 lb=1:     30 shell pairs
          la=4 lb=2:     27 shell pairs
          la=4 lb=3:     15 shell pairs
          la=4 lb=4:      6 shell pairs
          la=5 lb=0:     15 shell pairs
          la=5 lb=1:     10 shell pairs
          la=5 lb=2:      9 shell pairs
          la=5 lb=3:      5 shell pairs
          la=5 lb=4:      3 shell pairs
          la=5 lb=5:      1 shell pairs

Checking whether 4 symmetric matrices of dimension 163 fit in memory
:Max Core in MB      =   4096.00
 MB in use           =      7.83
 MB left             =   4088.17
 MB needed           =      0.41
 Data fit in memory  = YES
Calculating Nuclear repulsion               ... done (  0.0 sec) ENN=     11.815837557985 Eh

Diagonalization of the overlap matrix:
Smallest eigenvalue                        ... 1.920e-04
Time for diagonalization                   ...    0.002 sec
Threshold for overlap eigenvalues          ... 1.000e-07
Number of eigenvalues below threshold      ... 0
Time for construction of square roots      ...    0.002 sec
Total time needed                          ...    0.005 sec

-------------------
DFT GRID GENERATION
-------------------

General Integration Accuracy     IntAcc      ... 4.388
Radial Grid Type                 RadialGrid  ... OptM3 with GC (2021)
Angular Grid (max. ang.)         AngularGrid ... 4 (Lebedev-302)
Angular grid pruning method      GridPruning ... 4 (adaptive)
Weight generation scheme         WeightScheme... mBecke (2022)
Basis function cutoff            BFCut       ... 1.0000e-11
Integration weight cutoff        WCut        ... 1.0000e-14
Partially contracted basis set               ... off
Rotationally invariant grid construction     ... off
Angular grids for H and He will be reduced by one unit
Diffuse basis detected: some atoms will have their outermost
                        angular grid increased by 1.
Core-polarized basis detected: some atoms will have their core
                               angular grid increased.

Total number of grid points                  ...    16074
Total number of batches                      ...      252
Average number of points per batch           ...       63
Average number of grid points per atom       ...     8037
Grids setup in   0.1 sec
Initializing property integral containers    ... done (  0.0 sec)

SHARK setup successfully completed in   0.2 seconds

Maximum memory used throughout the entire STARTUP-calculation: 99.9 MB


           ************************************************************
           *        Program running with 8 parallel MPI-processes     *
           *              working on a common directory               *
           ************************************************************
-------------------------------------------------------------------------------
                                 ORCA GUESS
                   Start orbitals & Density for SCF / CASSCF
-------------------------------------------------------------------------------

------------
SCF SETTINGS
------------
Hamiltonian:
 Density Functional     Method          .... DFT(GTOs)
 Exchange Functional    Exchange        .... no Exchange
  Functional kind                       .... Correlation
  Functional name                       .... Perdew, Burke & Ernzerhof
  Functional family                     .... GGA
  Functional refs                              
    [ 0] J. P. Perdew, K. Burke, and M. Ernzerhof.,  Phys. Rev. Lett. 77, 3865 (1996), doi: 10.1103/PhysRevLett.77.3865
    [ 1] J. P. Perdew, K. Burke, and M. Ernzerhof.,  Phys. Rev. Lett. 78, 1396 (1997), doi: 10.1103/PhysRevLett.78.1396
  Functional external parameters        .... 3
    Parameter  0 _beta      =  6.672455e-02 : beta constant       
    Parameter  1 _gamma     =  3.109069e-02 : (1 - ln(2))/Pi^2 in the PBE
    Parameter  2 _B         =  1.000000e+00 : Multiplies the A t^2 term. Used in the SPBE functional
 Gradients option       PostSCFGGA      .... off


General Settings:
 Integral files         IntName         .... /cluster/projects/nn14654k/ylvaos/basis_set_n_funcs/functionals/gga_c_pbe/LiS/inp/LiS_gga_c_pbe_pc4
 Hartree-Fock type      HFTyp           .... UHF
 Total Charge           Charge          ....    0
 Multiplicity           Mult            ....    2
 Number of Electrons    NEL             ....   19
 Basis Dimension        Dim             ....  163
 Nuclear Repulsion      ENuc            ....     11.8158375580 Eh

Convergence Acceleration:
 AO-DIIS                CNVDIIS         .... on
   Start iteration      DIISMaxIt       ....    12
   Startup error        DIISStart       ....  0.200000
   # of expansion vecs  DIISMaxEq       ....     5
   Bias factor          DIISBfac        ....   1.050
   Max. coefficient     DIISMaxC        ....  10.000
 MO-DIIS                CNVKDIIS        .... off
 Trust-Rad. Augm. Hess. CNVTRAH         .... auto
   Auto Start mean grad. ratio tolernc. ....  1.125000
   Auto Start start iteration           ....    50
   Auto Start num. interpolation iter.  ....    10
   Max. Number of Micro iterations      ....    24
   Max. Number of Macro iterations      .... Maxiter - #DIIS iter
   Number of Davidson start vectors     ....     2
   Converg. threshold    (grad. norm)   ....   1.000e-05
   Grad. Scal. Fac. for Micro threshold ....   0.100
   Minimum threshold for Micro iter.    ....   1.000e-02
   NR start threshold (gradient norm)   ....   1.000e-04
   Initial trust radius                 ....   0.400
   Minimum AH scaling param. (alpha)    ....   1.000
   Maximum AH scaling param. (alpha)    .... 1000.000
   Quad. conv. algorithm                .... NR
   White noise on init. David. guess    .... on
   Maximum white noise                  ....   0.010
   Pseudo random numbers                .... off
   Inactive MOs                         .... canonical
   Orbital update algorithm             .... Taylor
   Preconditioner                       .... Diag
   Full preconditioner red. dimension   ....   250
 SOSCF                 CNVSOSCF           .... on
   Start iteration     SOSCFMaxIt         ....   150
   Startup grad/error  SOSCFStart         ....  0.003300
   Hessian update      SOSCFHessUp        .... L-BFGS
   Autom. constraints  SOSCFAutoConstrain .... off
 Level Shifting         CNVShift        .... on
   Level shift para.    LevelShift      ....    0.2500
   Turn off err/grad.   ShiftErr        ....    0.0010
 Zerner damping         CNVZerner       .... off
 Static damping         CNVDamp         .... on
   Fraction old density DampFac         ....    0.7000
   Max. Damping (<1)    DampMax         ....    0.9800
   Min. Damping (>=0)   DampMin         ....    0.0000
   Turn off err/grad.   DampErr         ....    0.1000

SCF Procedure:
 Maximum # iterations   MaxIter         ....   125
 SCF integral mode      SCFMode         .... Direct
   Integral package                     .... SHARK and LIBINT hybrid scheme
 Reset frequency        DirectResetFreq ....    20
 Integral Threshold     Thresh          ....  2.500e-11 Eh
 Primitive CutOff       TCut            ....  2.500e-12 Eh

Convergence Tolerance:
 Convergence Check Mode ConvCheckMode   .... Total+1el-Energy
 Convergence forced     ConvForced      .... 0
 Energy Change          TolE            ....  1.000e-08 Eh
 1-El. energy change                    ....  1.000e-05 Eh
 Orbital Gradient       TolG            ....  1.000e-05
 Orbital Rotation angle TolX            ....  1.000e-05
 DIIS Error             TolErr          ....  5.000e-07

------------------------------
INITIAL GUESS: MODEL POTENTIAL
------------------------------
Loading Hartree-Fock densities                     ... done
Calculating cut-offs                               ... done
Initializing the effective Hamiltonian             ... done
Setting up the integral package (SHARK)            ... done
Starting the Coulomb interaction                   ... done (   0.0 sec)
Making the grid                                    ... done (   0.0 sec)
Mapping shells                                     ... done
Starting the XC term evaluation                    ... done (   0.0 sec)
  promolecular density results
     # of electrons  =     18.999681825
     EX              =      0.000000000
     EC              =     -0.660300957
     EX+EC           =     -0.660300957
Transforming the Hamiltonian                       ... done (   0.0 sec)
Diagonalizing the Hamiltonian                      ... done (   0.0 sec)
Back transforming the eigenvectors                 ... done (   0.0 sec)
Now organizing SCF variables                       ... done
                      ------------------
                      INITIAL GUESS DONE (   0.1 sec)
                      ------------------
             **** ENERGY FILE WAS UPDATED (/cluster/projects/nn14654k/ylvaos/basis_set_n_funcs/functionals/gga_c_pbe/LiS/inp/LiS_gga_c_pbe_pc4.en.tmp) ****
Finished Guess after   0.2 sec
Maximum memory used throughout the entire GUESS-calculation: 17.2 MB


           ************************************************************
           *        Program running with 8 parallel MPI-processes     *
           *              working on a common directory               *
           ************************************************************

-------------------------------------------------------------------------------------------
                                      ORCA LEAN-SCF
                              memory conserving SCF solver
-------------------------------------------------------------------------------------------

----------------------------------------D-I-I-S--------------------------------------------
Iteration    Energy (Eh)           Delta-E    RMSDP     MaxDP     DIISErr   Damp  Time(sec)
-------------------------------------------------------------------------------------------
               ***  Starting incremental Fock matrix formation  ***
    1    -377.1327768420580924     0.00e+00  6.37e-02  1.09e+00  4.00e-01  0.700   1.2
Warning: op=1 Small HOMO/LUMO gap (  -0.053) - skipping pre-diagonalization
         Will do a full diagonalization
    2    -378.4724652118310928    -1.34e+00  4.44e-02  7.65e-01  1.81e-01  0.700   1.2
                               ***Turning on AO-DIIS***
    3    -378.9459562596052820    -4.73e-01  3.10e-02  5.35e-01  8.63e-02  0.700   1.2
    4    -379.1444365483138768    -1.98e-01  7.22e-02  1.25e+00  5.53e-02  0.000   1.1
    5    -379.3680139524964261    -2.24e-01  3.07e-03  4.24e-02  8.00e-02  0.000   1.2
    6    -379.4183503880570356    -5.03e-02  2.52e-03  4.23e-02  5.66e-02  0.000   1.0
    7    -379.4405470453921225    -2.22e-02  1.40e-03  1.67e-02  4.53e-02  0.000   1.0
    8    -379.4529748307766113    -1.24e-02  1.20e-03  1.19e-02  3.37e-02  0.000   1.0
    9    -379.4602572111741665    -7.28e-03  8.67e-04  9.79e-03  2.48e-02  0.000   1.0
   10    -379.4644267596081022    -4.17e-03  6.61e-04  7.21e-03  1.83e-02  0.000   1.0
   11    -379.4667997944391686    -2.37e-03  5.21e-04  5.75e-03  1.33e-02  0.000   1.0
   12    -379.4680546471806224    -1.25e-03  3.65e-04  3.94e-03  1.02e-02  0.000   1.0
   13    -379.4688511454597233    -7.96e-04  2.78e-04  2.67e-03  7.72e-03  0.000   1.0
   14    -379.4692704465981024    -4.19e-04  2.05e-04  1.81e-03  6.47e-03  0.000   1.0
   15    -379.4695787503085285    -3.08e-04  1.67e-04  1.43e-03  5.28e-03  0.000   1.0
   16    -379.4697670731716244    -1.88e-04  1.52e-04  1.44e-03  4.48e-03  0.000   1.0
   17    -379.4699267813813890    -1.60e-04  1.30e-04  1.44e-03  3.49e-03  0.000   1.0
                              *** Initializing SOSCF ***
---------------------------------------S-O-S-C-F--------------------------------------
Iteration    Energy (Eh)           Delta-E    RMSDP     MaxDP     MaxGrad    Time(sec)
--------------------------------------------------------------------------------------
   18    -379.4700446663158004    -1.18e-04  1.14e-04  1.38e-03  2.76e-03     1.0
               *** Restarting incremental Fock matrix formation ***
   19    -379.4701199059024930    -7.52e-05  2.99e-04  2.68e-03  2.58e-03     1.1
   20    -379.4701047605266808     1.51e-05  2.41e-04  2.81e-03  3.03e-03     1.0
   21    -379.4702430963503730    -1.38e-04  2.43e-04  2.62e-03  6.16e-04     1.0
   22    -379.4702621867989478    -1.91e-05  3.76e-04  3.94e-03  4.90e-04     1.0
   23    -379.4702716116353827    -9.42e-06  7.76e-05  8.78e-04  2.02e-04     1.0
   24    -379.4702721708052309    -5.59e-07  4.65e-05  5.65e-04  7.89e-05     1.0
   25    -379.4702723494848442    -1.79e-07  1.48e-05  1.79e-04  6.26e-05     0.9
   26    -379.4702723741083901    -2.46e-08  4.34e-06  4.28e-05  2.71e-05     0.9
   27    -379.4702723788503249    -4.74e-09  4.13e-06  4.89e-05  7.01e-06     0.9
                 **** Energy Check signals convergence ****

               *****************************************************
               *                     SUCCESS                       *
               *           SCF CONVERGED AFTER  27 CYCLES          *
               *****************************************************

             **** ENERGY FILE WAS UPDATED (/cluster/projects/nn14654k/ylvaos/basis_set_n_funcs/functionals/gga_c_pbe/LiS/inp/LiS_gga_c_pbe_pc4.en.tmp) ****

----------------
TOTAL SCF ENERGY
----------------

Total Energy       :       -379.47027238102066 Eh          -10325.91107 eV

Components:
Nuclear Repulsion  :         11.81583755798484 Eh             321.52529 eV
Electronic Energy  :       -391.28610993900548 Eh          -10647.43636 eV
One Electron Energy:       -572.02931092271933 Eh          -15565.70890 eV
Two Electron Energy:        180.74320098371385 Eh            4918.27254 eV

Virial components:
Potential Energy   :       -768.92708836851227 Eh          -20923.56981 eV
Kinetic Energy     :        389.45681598749161 Eh           10597.65874 eV
Virial Ratio       :          1.97435776395093

DFT components:
N(Alpha)           :       10.000045705878 electrons
N(Beta)            :        9.000026545523 electrons
N(Total)           :       19.000072251401 electrons
E(X)               :        0.000000000000 Eh       
E(C)               :       -0.635544628458 Eh       
E(XC)              :       -0.635544628458 Eh       

---------------
SCF CONVERGENCE
---------------

  Last Energy change         ...    4.7419e-09  Tolerance :   1.0000e-08
  Last MAX-Density change    ...    4.8923e-05  Tolerance :   1.0000e-07
  Last RMS-Density change    ...    4.1310e-06  Tolerance :   5.0000e-09
  Last DIIS Error            ...    2.7569e-03  Tolerance :   5.0000e-07
  Last Orbital Gradient      ...    7.0070e-06  Tolerance :   1.0000e-05
  Last Orbital Rotation      ...    1.0167e-04  Tolerance :   1.0000e-05


----------------------
UHF SPIN CONTAMINATION
----------------------

Warning: in a DFT calculation there is little theoretical justification to 
         calculate <S**2> as in Hartree-Fock theory. We will do it anyways
         but you should keep in mind that the values have only limited relevance

Expectation value of <S**2>     :     0.750473
Ideal value S*(S+1) for S=0.5   :     0.750000
Deviation                       :     0.000473

----------------
ORBITAL ENERGIES
----------------
                 SPIN UP ORBITALS
  NO   OCC          E(Eh)            E(eV) 
   0   1.0000     -83.096332     -2261.1662 
   1   1.0000      -6.553883      -178.3402 
   2   1.0000      -4.606078      -125.3378 
   3   1.0000      -4.595895      -125.0607 
   4   1.0000      -4.595346      -125.0457 
   5   1.0000      -1.176271       -32.0080 
   6   1.0000      -0.350850        -9.5471 
   7   1.0000      -0.048604        -1.3226 
   8   1.0000      -0.035561        -0.9677 
   9   1.0000      -0.028682        -0.7805 
  10   0.0000      -0.008032        -0.2186 
  11   0.0000       0.036717         0.9991 
  12   0.0000       0.038635         1.0513 
  13   0.0000       0.042610         1.1595 
  14   0.0000       0.059229         1.6117 
  15   0.0000       0.121823         3.3150 
  16   0.0000       0.124425         3.3858 
  17   0.0000       0.126919         3.4536 
  18   0.0000       0.139399         3.7933 
  19   0.0000       0.151464         4.1215 
  20   0.0000       0.158602         4.3158 

                 SPIN DOWN ORBITALS
  NO   OCC          E(Eh)            E(eV) 
   0   1.0000     -83.096436     -2261.1690 
   1   1.0000      -6.554275      -178.3509 
   2   1.0000      -4.606922      -125.3607 
   3   1.0000      -4.596168      -125.0681 
   4   1.0000      -4.595620      -125.0532 
   5   1.0000      -1.176388       -32.0111 
   6   1.0000      -0.357426        -9.7261 
   7   1.0000      -0.039097        -1.0639 
   8   1.0000      -0.031829        -0.8661 
   9   0.0000      -0.058965        -1.6045 
  10   0.0000      -0.009160        -0.2492 
  11   0.0000       0.036254         0.9865 
  12   0.0000       0.036817         1.0019 
  13   0.0000       0.041830         1.1383 
  14   0.0000       0.057952         1.5769 
  15   0.0000       0.119267         3.2454 
  16   0.0000       0.123661         3.3650 
  17   0.0000       0.125926         3.4266 
  18   0.0000       0.138603         3.7716 
  19   0.0000       0.148227         4.0335 
*Only the first 10 virtual orbitals were printed.

                    ********************************
                    * MULLIKEN POPULATION ANALYSIS *
                    ********************************

--------------------------------------------
MULLIKEN ATOMIC CHARGES AND SPIN POPULATIONS
--------------------------------------------
   0 Li:   -0.017268    0.124963
   1 S :    0.017268    0.875037
Sum of atomic charges         :   -0.0000000
Sum of atomic spin populations:    1.0000000

-----------------------------------------------------
MULLIKEN REDUCED ORBITAL CHARGES AND SPIN POPULATIONS
-----------------------------------------------------
CHARGE
  0 Lis       :     2.369124  s :     2.369124
      pz      :     0.215939  p :     0.599643
      px      :     0.124982
      py      :     0.258722
      dz2     :     0.024023  d :     0.041586
      dxz     :     0.007046
      dyz     :     0.010324
      dx2y2   :     0.000104
      dxy     :     0.000088
      f0      :     0.003762  f :     0.006473
      f+1     :     0.000971
      f-1     :     0.001676
      f+2     :     0.000022
      f-2     :     0.000018
      f+3     :     0.000017
      f-3     :     0.000008
      g0      :     0.000274  g :     0.000441
      g+1     :     0.000065
      g-1     :     0.000099
      g+2     :     0.000001
      g-2     :     0.000001
      g+3     :     0.000000
      g-3     :     0.000000
      g+4     :     0.000000
      g-4     :     0.000000

  1 S s       :     5.858968  s :     5.858968
      pz      :     3.529352  p :    10.119867
      px      :     2.997016
      py      :     3.593499
      dz2     :    -0.002694  d :     0.003658
      dxz     :     0.002181
      dyz     :     0.003197
      dx2y2   :     0.000527
      dxy     :     0.000447
      f0      :    -0.000048  f :     0.000287
      f+1     :    -0.000060
      f-1     :    -0.000023
      f+2     :     0.000080
      f-2     :     0.000068
      f+3     :     0.000172
      f-3     :     0.000098
      g0      :    -0.000054  g :    -0.000044
      g+1     :     0.000003
      g-1     :     0.000006
      g+2     :     0.000000
      g-2     :     0.000000
      g+3     :     0.000000
      g-3     :     0.000000
      g+4     :     0.000000
      g-4     :     0.000000
      h0      :    -0.000005  h :    -0.000004
      h+1     :     0.000000
      h-1     :     0.000000
      h+2     :    -0.000000
      h-2     :    -0.000000
      h+3     :    -0.000000
      h-3     :    -0.000000
      h+4     :     0.000000
      h-4     :     0.000000
      h+5     :     0.000000
      h-5     :     0.000000


SPIN
  0 Lis       :     0.006744  s :     0.006744
      pz      :     0.002593  p :     0.110585
      px      :     0.088535
      py      :     0.019457
      dz2     :     0.000230  d :     0.006485
      dxz     :     0.005631
      dyz     :     0.000687
      dx2y2   :    -0.000034
      dxy     :    -0.000029
      f0      :     0.000040  f :     0.001089
      f+1     :     0.000913
      f-1     :     0.000148
      f+2     :    -0.000007
      f-2     :    -0.000006
      f+3     :    -0.000004
      f-3     :     0.000003
      g0      :     0.000000  g :     0.000060
      g+1     :     0.000053
      g-1     :     0.000007
      g+2     :    -0.000000
      g-2     :    -0.000000
      g+3     :    -0.000000
      g-3     :     0.000000
      g+4     :    -0.000000
      g-4     :    -0.000000

  1 S s       :    -0.002102  s :    -0.002102
      pz      :    -0.006997  p :     0.875694
      px      :     0.770837
      py      :     0.111854
      dz2     :    -0.000077  d :     0.001553
      dxz     :     0.001722
      dyz     :     0.000188
      dx2y2   :    -0.000152
      dxy     :    -0.000129
      f0      :    -0.000032  f :    -0.000110
      f+1     :    -0.000057
      f-1     :     0.000002
      f+2     :    -0.000023
      f-2     :    -0.000020
      f+3     :    -0.000030
      f-3     :     0.000050
      g0      :    -0.000000  g :     0.000002
      g+1     :     0.000002
      g-1     :     0.000000
      g+2     :    -0.000000
      g-2     :    -0.000000
      g+3     :    -0.000000
      g-3     :     0.000000
      g+4     :    -0.000000
      g-4     :    -0.000000
      h0      :     0.000000  h :     0.000000
      h+1     :     0.000000
      h-1     :     0.000000
      h+2     :     0.000000
      h-2     :     0.000000
      h+3     :     0.000000
      h-3     :    -0.000000
      h+4     :    -0.000000
      h-4     :    -0.000000
      h+5     :    -0.000000
      h-5     :     0.000000



                     *******************************
                     * LOEWDIN POPULATION ANALYSIS *
                     *******************************

-------------------------------------------
LOEWDIN ATOMIC CHARGES AND SPIN POPULATIONS
-------------------------------------------
   0 Li:   -0.566830    0.213783
   1 S :    0.566830    0.786217

----------------------------------------------------
LOEWDIN REDUCED ORBITAL CHARGES AND SPIN POPULATIONS
----------------------------------------------------
CHARGE
  0 Lis       :     2.351194  s :     2.351194
      pz      :     0.363316  p :     0.858098
      px      :     0.168741
      py      :     0.326041
      dz2     :     0.136981  d :     0.255502
      dxz     :     0.047094
      dyz     :     0.071234
      dx2y2   :     0.000104
      dxy     :     0.000088
      f0      :     0.044058  f :     0.096022
      f+1     :     0.020661
      f-1     :     0.031227
      f+2     :     0.000028
      f-2     :     0.000023
      f+3     :     0.000017
      f-3     :     0.000008
      g0      :     0.003147  g :     0.006015
      g+1     :     0.001130
      g-1     :     0.001733
      g+2     :     0.000002
      g-2     :     0.000002
      g+3     :     0.000001
      g-3     :     0.000000
      g+4     :     0.000000
      g-4     :     0.000000

  1 S s       :     5.479903  s :     5.479903
      pz      :     3.594665  p :     9.925807
      px      :     2.894247
      py      :     3.436895
      dz2     :     0.019760  d :     0.021048
      dxz     :     0.000125
      dyz     :     0.000202
      dx2y2   :     0.000520
      dxy     :     0.000442
      f0      :     0.004932  f :     0.005700
      f+1     :     0.000195
      f-1     :     0.000158
      f+2     :     0.000079
      f-2     :     0.000067
      f+3     :     0.000171
      f-3     :     0.000098
      g0      :     0.000638  g :     0.000659
      g+1     :     0.000009
      g-1     :     0.000009
      g+2     :     0.000000
      g-2     :     0.000000
      g+3     :     0.000000
      g-3     :     0.000000
      g+4     :     0.000000
      g-4     :     0.000000
      h0      :     0.000050  h :     0.000053
      h+1     :     0.000001
      h-1     :     0.000001
      h+2     :     0.000000
      h-2     :     0.000000
      h+3     :     0.000000
      h-3     :     0.000000
      h+4     :     0.000000
      h-4     :     0.000000
      h+5     :     0.000000
      h-5     :     0.000000


SPIN
  0 Lis       :     0.005168  s :     0.005168
      pz      :     0.001173  p :     0.147892
      px      :     0.122681
      py      :     0.024037
      dz2     :    -0.000252  d :     0.041501
      dxz     :     0.036913
      dyz     :     0.004903
      dx2y2   :    -0.000034
      dxy     :    -0.000029
      f0      :    -0.000002  f :     0.018203
      f+1     :     0.016033
      f-1     :     0.002188
      f+2     :    -0.000008
      f-2     :    -0.000007
      f+3     :    -0.000004
      f-3     :     0.000003
      g0      :     0.000013  g :     0.001020
      g+1     :     0.000884
      g-1     :     0.000123
      g+2     :    -0.000000
      g-2     :    -0.000000
      g+3     :    -0.000000
      g-3     :     0.000000
      g+4     :    -0.000000
      g-4     :    -0.000000

  1 S s       :    -0.000282  s :    -0.000282
      pz      :    -0.005180  p :     0.786737
      px      :     0.690848
      py      :     0.101068
      dz2     :    -0.000145  d :    -0.000315
      dxz     :     0.000095
      dyz     :     0.000013
      dx2y2   :    -0.000150
      dxy     :    -0.000128
      f0      :    -0.000093  f :     0.000069
      f+1     :     0.000172
      f-1     :     0.000013
      f+2     :    -0.000023
      f-2     :    -0.000019
      f+3     :    -0.000030
      f-3     :     0.000049
      g0      :    -0.000001  g :     0.000007
      g+1     :     0.000008
      g-1     :     0.000001
      g+2     :    -0.000000
      g-2     :    -0.000000
      g+3     :    -0.000000
      g-3     :     0.000000
      g+4     :    -0.000000
      g-4     :    -0.000000
      h0      :     0.000000  h :     0.000001
      h+1     :     0.000001
      h-1     :     0.000000
      h+2     :    -0.000000
      h-2     :    -0.000000
      h+3     :     0.000000
      h-3     :     0.000000
      h+4     :    -0.000000
      h-4     :    -0.000000
      h+5     :    -0.000000
      h-5     :     0.000000



                      *****************************
                      * MAYER POPULATION ANALYSIS *
                      *****************************

  NA   - Mulliken gross atomic population
  ZA   - Total nuclear charge
  QA   - Mulliken gross atomic charge
  VA   - Mayer's total valence
  BVA  - Mayer's bonded valence
  FA   - Mayer's free valence

  ATOM       NA         ZA         QA         VA         BVA        FA
  0 Li     3.0173     3.0000    -0.0173     1.5500     1.5380     0.0120
  1 S     15.9827    16.0000     0.0173     2.3330     1.5380     0.7950

  Mayer bond orders larger than 0.100000
B(  0-Li,  1-S ) :   1.5380 

-------
TIMINGS
-------

Total SCF time: 0 days 0 hours 0 min 28 sec 

Total time                  ....      28.770 sec
Sum of individual times     ....      27.791 sec  ( 96.6%)

SCF preparation             ....       0.107 sec  (  0.4%)
Fock matrix formation       ....      26.414 sec  ( 91.8%)
  Startup                   ....       0.036 sec  (  0.1% of F)
  Coulomb formation         ....      25.484 sec  ( 96.5% of F)
  XC integration            ....       1.123 sec  (  4.3% of F)
    XC Preparation          ....       0.000 sec  (  0.0% of XC)
    Basis function eval.    ....       0.086 sec  (  7.6% of XC)
    Density eval.           ....       0.104 sec  (  9.2% of XC)
    XC-Functional eval.     ....       0.020 sec  (  1.8% of XC)
    XC-Potential eval.      ....       0.300 sec  ( 26.7% of XC)
Diagonalization             ....       0.000 sec  (  0.0%)
Density matrix formation    ....       0.269 sec  (  0.9%)
Total Energy calculation    ....       0.054 sec  (  0.2%)
Population analysis         ....       0.013 sec  (  0.0%)
Orbital Transformation      ....       0.046 sec  (  0.2%)
Orbital Orthonormalization  ....       0.000 sec  (  0.0%)
DIIS solution               ....       0.760 sec  (  2.6%)
SOSCF solution              ....       0.127 sec  (  0.4%)
Finished LeanSCF after  28.8 sec

Maximum memory used throughout the entire LEANSCF-calculation: 98.9 MB


           ************************************************************
           *        Program running with 8 parallel MPI-processes     *
           *              working on a common directory               *
           ************************************************************

------------------------------------------------------------------------------
                         ORCA PROPERTY INTEGRAL CALCULATIONS
------------------------------------------------------------------------------

GBWName                                   ... /cluster/projects/nn14654k/ylvaos/basis_set_n_funcs/functionals/gga_c_pbe/LiS/inp/LiS_gga_c_pbe_pc4.gbw
Number of atoms                           ...      2
Number of basis functions                 ...    163
Max core memory                           ...   4096 MB

Dipole integrals                          ... YES
Quadrupole integrals                      ... YES
Linear momentum integrals                 ...  NO
Angular momentum integrals                ...  NO
Higher moments length integrals           ...  NO
Higher moments velocity integrals         ...  NO
Kinetic energy integrals                  ...  NO
GIAO right hand sides                     ...  NO
GIAO dipole derivative integrals          ...  NO
SOC integrals                             ...  NO
EPR diamagnetic integrals (GIAO)          ...  NO
EPR gauge integrals                       ...  NO
Field gradient integrals                  ...  NO (   0 nuclei)
Spin-dipole/Fermi contact integrals       ...  NO (   0 nuclei)
Contact density integrals                 ...  NO (   0 nuclei)
Nucleus-orbit integrals                   ...  NO (   0 nuclei)
Geometric perturbations                   ...  NO (   2 nuclei)

Choice of electric origin   ... Center of mass
Position of electric origin ... (  0.0000,  0.0000,  1.3082) 
Choice of magnetic origin   ... GIAO
Position of magnetic origin ... (  0.0000,  0.0000,  0.0000) 

Calculating integrals                     ... Electric Dipole (Length)     done (  0.0 sec)
Calculating integrals                     ... Electric Quadrupole (Length) done (  0.0 sec)

Property integrals calculated in   0.0 sec

Maximum memory used throughout the entire PROPINT-calculation: 18.0 MB
------------------------------------------------------------------------------
                           ORCA ORBITAL LOCALIZATION
------------------------------------------------------------------------------

Input orbitals are from                  ... /cluster/projects/nn14654k/ylvaos/basis_set_n_funcs/functionals/gga_c_pbe/LiS/inp/LiS_gga_c_pbe_pc4.gbw
Output orbitals are to                   ... /cluster/projects/nn14654k/ylvaos/basis_set_n_funcs/functionals/gga_c_pbe/LiS/inp/LiS_gga_c_pbe_pc4.loc
Max. number of iterations                ... 128
Localizations seeded randomly            ... on
Convergence tolerance                    ... 1.000e-06
Threshold for strong local MOs           ... 9.500e-01
Threshold for bond MOs                   ... 8.500e-01
Operator                                 ... 0
Orbital range for localization           ... 2 to 9
Localization criterion                   ... NEW-BOYS
Doing the dipole integrals               ... o.k.
Initial value of the localization sum :    13.127425
ITERATION   0 : L=   17.1371963985 DL=  4.01e+00 (AVERGE_DL)=    0.3784258579 
ITERATION   1 : L=   17.7834182708 DL=  6.46e-01 (AVERGE_DL)=    0.1519189013 
ITERATION   2 : L=   17.8286274708 DL=  4.52e-02 (AVERGE_DL)=    0.0401822633 
ITERATION   3 : L=   17.8334486369 DL=  4.82e-03 (AVERGE_DL)=    0.0131219093 
ITERATION   4 : L=   17.8342164171 DL=  7.68e-04 (AVERGE_DL)=    0.0052364798 
ITERATION   5 : L=   17.8343733176 DL=  1.57e-04 (AVERGE_DL)=    0.0023671907 
ITERATION   6 : L=   17.8343997005 DL=  2.64e-05 (AVERGE_DL)=    0.0009706927 
ITERATION   7 : L=   17.8344037671 DL=  4.07e-06 (AVERGE_DL)=    0.0003811001 
ITERATION   8 : L=   17.8344043038 DL=  5.37e-07 (AVERGE_DL)=    0.0001384486 
LOCALIZATION SUM CONVERGED


--------------------------------------------------------------------------------
                    LOCALIZED MOLECULAR ORBITAL COMPOSITIONS
--------------------------------------------------------------------------------

The Mulliken populations for each LMO on each atom are computed
The LMO`s will be ordered according to atom index and type
  (A) Strongly localized MO`s have populations of >=0.950 on one atom
  (B) Two center bond orbitals have populations of >=0.850 on two atoms
  (C) Other MO`s are considered to be `delocalized`

FOUND  -   5 strongly local MO`s
       -   3 two center bond MO`s
       -   0 significantly delocalized MO`s

Rather strongly localized orbitals:
MO   6:   1S  -   0.973674
MO   5:   1S  -   1.000262
MO   4:   1S  -   1.000248
MO   3:   1S  -   1.000400
MO   2:   0Li -   1.012310
Bond-like localized orbitals:
MO   9:   1S  -   0.832368  and   0Li -   0.167632
MO   8:   1S  -   0.832679  and   0Li -   0.167321
MO   7:   1S  -   0.802562  and   0Li -   0.197438
Localized MO's were stored in: /cluster/projects/nn14654k/ylvaos/basis_set_n_funcs/functionals/gga_c_pbe/LiS/inp/LiS_gga_c_pbe_pc4.loc
------------------------------------------------------------------------------
                           ORCA ORBITAL LOCALIZATION
------------------------------------------------------------------------------

Input orbitals are from                  ... /cluster/projects/nn14654k/ylvaos/basis_set_n_funcs/functionals/gga_c_pbe/LiS/inp/LiS_gga_c_pbe_pc4.loc
Output orbitals are to                   ... /cluster/projects/nn14654k/ylvaos/basis_set_n_funcs/functionals/gga_c_pbe/LiS/inp/LiS_gga_c_pbe_pc4.loc
Max. number of iterations                ... 128
Localizations seeded randomly            ... on
Convergence tolerance                    ... 1.000e-06
Threshold for strong local MOs           ... 9.500e-01
Threshold for bond MOs                   ... 8.500e-01
Operator                                 ... 1
Orbital range for localization           ... 2 to 8
Localization criterion                   ... NEW-BOYS
Doing the dipole integrals               ... o.k.
Initial value of the localization sum :    13.060846
ITERATION   0 : L=   15.8362765355 DL=  2.78e+00 (AVERGE_DL)=    0.3635427752 
ITERATION   1 : L=   17.0737148385 DL=  1.24e+00 (AVERGE_DL)=    0.2427460267 
ITERATION   2 : L=   17.1765404176 DL=  1.03e-01 (AVERGE_DL)=    0.0699746822 
ITERATION   3 : L=   17.1819789076 DL=  5.44e-03 (AVERGE_DL)=    0.0160927224 
ITERATION   4 : L=   17.1825370915 DL=  5.58e-04 (AVERGE_DL)=    0.0051555978 
ITERATION   5 : L=   17.1825918794 DL=  5.48e-05 (AVERGE_DL)=    0.0016152228 
ITERATION   6 : L=   17.1825974299 DL=  5.55e-06 (AVERGE_DL)=    0.0005141137 
ITERATION   7 : L=   17.1825979942 DL=  5.64e-07 (AVERGE_DL)=    0.0001639181 
LOCALIZATION SUM CONVERGED


--------------------------------------------------------------------------------
                    LOCALIZED MOLECULAR ORBITAL COMPOSITIONS
--------------------------------------------------------------------------------

The Mulliken populations for each LMO on each atom are computed
The LMO`s will be ordered according to atom index and type
  (A) Strongly localized MO`s have populations of >=0.950 on one atom
  (B) Two center bond orbitals have populations of >=0.850 on two atoms
  (C) Other MO`s are considered to be `delocalized`

FOUND  -   5 strongly local MO`s
       -   2 two center bond MO`s
       -   0 significantly delocalized MO`s

Rather strongly localized orbitals:
MO   6:   1S  -   1.000273
MO   5:   1S  -   1.000556
MO   4:   1S  -   1.000534
MO   3:   1S  -   0.990094
MO   2:   0Li -   1.012504
Bond-like localized orbitals:
MO   8:   1S  -   0.787952  and   0Li -   0.212048
MO   7:   1S  -   0.787917  and   0Li -   0.212083
Localized MO's were stored in: /cluster/projects/nn14654k/ylvaos/basis_set_n_funcs/functionals/gga_c_pbe/LiS/inp/LiS_gga_c_pbe_pc4.loc

-------------------------   --------------------
FINAL SINGLE POINT ENERGY      -379.470272381021
-------------------------   --------------------



           ************************************************************
           *        Program running with 8 parallel MPI-processes     *
           *              working on a common directory               *
           ************************************************************

------------------------------------------------------------------------------
                              ORCA PROPERTY CALCULATIONS
------------------------------------------------------------------------------

GBWName                                 ... /cluster/projects/nn14654k/ylvaos/basis_set_n_funcs/functionals/gga_c_pbe/LiS/inp/LiS_gga_c_pbe_pc4.gbw
Number of atoms                         ...      2
Number of basis functions               ...    163
Max core memory                         ...   4096 MB

Electric properties:
Dipole moment                           ... YES
Quadrupole moment                       ... YES
Static polarizability (Dipole/Dipole)   ...  NO
Static polarizability (Dipole/Quad.)    ...  NO
Static polarizability (Quad./Quad.)     ...  NO
Static polarizability (Velocity)        ...  NO
Static hyperpolarizability              ...  NO

Atomic electric properties:
Dipole moment                           ...  NO
Quadrupole moment                       ...  NO
Static polarizability                   ...  NO

Choice of electric origin               ... Center of mass
Position of electric origin             ...     0.000000     0.000000     1.308198

General magnetic properties:
Magnetizability                         ...  NO

EPR properties:
g-Tensor (aka g-matrix)                 ...  NO
Zero-Field splitting spin-orbit         ...  NO
Zero-field splitting spin-spin          ...  NO
Hyperfine couplings                     ...  NO (   0 nuclei)
Quadrupole couplings                    ...  NO (   0 nuclei)
Contact density                         ...  NO (   0 nuclei)

NMR properties:
Chemical shifts                         ...  NO (   0 nuclei)
Spin-rotation constants                 ...  NO (   0 nuclei)
Spin-spin couplings                     ...  NO (   0 nuclei,    0 pairs)

Choice of magnetic origin               ... GIAO
Position of magnetic origin             ...     0.000000     0.000000     0.000000

Properties with geometric perturbations:
SCF Hessian                             ...  NO
IR spectrum                             ...  NO
VCD spectrum                            ...  NO
X-ray spectroscopy properties:
SCF XES/XAS/RIXS spectra                ...  NO

SCF SOC stabilization energy            ...  NO
Diagonal Born-Oppenheimer correction    ...  NO

-------------
DIPOLE MOMENT
-------------

Method             : SCF
Type of density    : Electron Density
Multiplicity       :   2
Irrep              :   0
Energy             :  -379.4702723810206635 Eh
Basis              : AO
                                X                 Y                 Z
Electronic contribution:      0.000000002       0.000000028      -3.039625509
Nuclear contribution   :      0.000000000       0.000000000       1.549484202
                        -----------------------------------------
Total Dipole Moment    :      0.000000002       0.000000028      -1.490141307
                        -----------------------------------------
Magnitude (a.u.)       :      1.490141307
Magnitude (Debye)      :      3.787638193



--------------------
Rotational spectrum 
--------------------
 
Rotational constants in cm-1:             0.000000             0.639339             0.639339 
Rotational constants in MHz :             0.000000         19166.891897         19166.891897 

Dipole components along the rotational axes: 
x,y,z [a.u.] :    -1.490141     0.000000     0.000000 
x,y,z [Debye]:    -3.787638     0.000000     0.000000 

 

Dipole moment calculation done in   0.0 sec 

-----------------
QUADRUPOLE MOMENT
-----------------

Method             : SCF
Type of density    : Electron Density
Multiplicity       :   2
Irrep              :   0
Energy             :  -379.4702723810206635 Eh
Basis              : AO

                XX              YY              ZZ              XY              XZ              YZ
  NUC        0.000000000     0.000000000    41.817245673     0.000000000     0.000000000     0.000000000
  EL       -20.105678698   -23.425887456   -56.320929311     1.529719429    -0.000000042    -0.000000093
  TOT      -20.105678698   -23.425887456   -14.503683638     1.529719429    -0.000000042    -0.000000093 (a.u.)
           -27.042825463   -31.508619793   -19.507950519     2.057524948    -0.000000056    -0.000000124 (Buckingham)

diagonalized tensor:
           -24.023212606   -19.508353547   -14.503683638 (a.u.)
           -32.312042549   -26.239402707   -19.507950519 (Buckingham)
           -18.876731872    -0.658812347    19.535544219 (traceless form in Buckingham)

            -0.363733500     0.931503055    -0.000000011
             0.931503055     0.363733500    -0.000000012
             0.000000007     0.000000014     1.000000000
        
Isotropic quadrupole :   -19.345083264

Quadrupole moment calculation done in   0.0 sec (  0.0 sec for integrals)

Maximum memory used throughout the entire PROP-calculation: 10.5 MB

--------------------------------
SUGGESTED CITATIONS FOR THIS RUN
--------------------------------

Below you find a list of papers that are relevant to this ORCA run
We neither can nor want to force you to cite these papers, but we appreciate if you do
You receive ORCA, which is the product of decades of hard work by many enthusiastic individuals, for free
The only thing we kindly ask in return is that you cite our papers,
We deeply appreciate it, if you show your appreciation for ORCA by not just citing the generic ORCA reference.

Please note that relegating all ORCA citations to the supporting information does *not* help us.
SI sections are not indexed - citations you put there will not count into any citation statistics
But we need these citations in order to attract the funding resources that allow us to do what we are doing

Therefore, if you are a happy ORCA user, please consider citing a few of the papers listed below in the main body of your paper

In addition to the list printed below, the program has created the file /cluster/projects/nn14654k/ylvaos/basis_set_n_funcs/functionals/gga_c_pbe/LiS/inp/LiS_gga_c_pbe_pc4.bibtex that contains the list in bibtex format
You can import this file easily into all common literature databanks and citation aid programs

It goes without saying that in many instances, there are alternative algorithms to achieve similar
results as the ones you have gotten from ORCA. It is, of course, also the case that in some instances
ORCA just re-implements algorithms worked out by others. We are fully aware of that and we are also
fully appreciative of our colleagues work. Hence this citation list should not be read as indicating
that the listed papers, which are focused on our own work, are the only ones worth citing. It simply
meant to make it easier for users to cite ORCA specific papers. It is not a substitute for doing your
own literature research and citing the relevant literature in a scientifically appropriate manner.

List of essential papers. We consider these as the minimum necessary citations

  1. Neese, F.
     Software update: the ORCA program system, version 6.0
     WIRES Comput. Molec. Sci. 2025 15(1), e70019
     doi.org/10.1002/wcms.70019

List of papers to cite with high priority. The work reported in these papers was absolutely
necessary for this run to complete.
Our perspective: the developers of density functionals and basis sets usually get cited in chemistry papers
Good! But without the algorithms to do something with them, the functionals or basis sets would not do anything.
Hence, in our opinion, the algorithm design and method developments papers are equally worthy of getting cited

  1. Lehtola, S.; Steigemann, C.; Oliveira, M.; Marques, M.
     Recent developments in Libxc - A comprehensive library of functionals for density functional theory
     Software X 2018 7 , 
     doi.org/10.1016/j.softx.2017.11.002
  2. Neese, F.
     The SHARK Integral Generation and Digestion System
     J. Comp. Chem. 2022 44(3), 381
     doi.org/10.1002/jcc.26942

List of suggested additional citations. These are papers that are important in the 'surrounding' of 
of this run, or papers that preceded the highly important papers. If you like your results we are grateful for a citation.

  1. Neese, F.
     The ORCA program system
     WIRES Comput. Molec. Sci. 2012 2(1), 73-78
     doi.org/10.1002/wcms.81
  2. Neese, F.
     Software update: the ORCA program system, version 4.0
     WIRES Comput. Molec. Sci. 2018 8(1), 1-6
     doi.org/10.1002/wcms.1327
  3. Neese, F.; Wennmohs, F.; Becker, U.; Riplinger, C.
     The ORCA quantum chemistry program package
     J. Chem. Phys. 2020 152(22), 224108
     doi.org/10.1063/5.0004608
  4. Neese, F.
     Software update: The ORCA program system—Version 5.0
     WIRES Comput. Molec. Sci. 2022 12(1), e1606
     doi.org/10.1002/wcms.1606

List of optional additional citations

  1. Neese, F.
     Approximate second-order SCF convergence for spin unrestricted wavefunctions
     Chem. Phys. Lett. 2000 325(1-3), 93-98
     doi.org/10.1016/s0009-2614(00)00662-x

Timings for individual modules:

Sum of individual times          ...       30.528 sec (=   0.509 min)
Startup calculation              ...        0.501 sec (=   0.008 min)   1.6 %
SCF iterations                   ...       29.508 sec (=   0.492 min)  96.7 %
Property integrals               ...        0.275 sec (=   0.005 min)   0.9 %
Property calculations            ...        0.237 sec (=   0.004 min)   0.8 %
Orbital localization             ...        0.007 sec (=   0.000 min)   0.0 %
                             ****ORCA TERMINATED NORMALLY****
TOTAL RUN TIME: 0 days 0 hours 0 minutes 31 seconds 182 msec
