
                                 *****************
                                 * O   R   C   A *
                                 *****************

                                            #,                                       
                                            ###                                      
                                            ####                                     
                                            #####                                    
                                            ######                                   
                                           ########,                                 
                                     ,,################,,,,,                         
                               ,,#################################,,                 
                          ,,##########################################,,             
                       ,#########################################, ''#####,          
                    ,#############################################,,   '####,        
                  ,##################################################,,,,####,       
                ,###########''''           ''''###############################       
              ,#####''   ,,,,##########,,,,          '''####'''          '####       
            ,##' ,,,,###########################,,,                        '##       
           ' ,,###''''                  '''############,,,                           
         ,,##''                                '''############,,,,        ,,,,,,###''
      ,#''                                            '''#######################'''  
     '                                                          ''''####''''         
             ,#######,   #######,   ,#######,      ##                                
            ,#'     '#,  ##    ##  ,#'     '#,    #''#        ,####,    ,#,          
            ##       ##  ##   ,#'  ##            #'  '#       #'       ,# #          
            ##       ##  #######   ##           ,######,      #####,      #          
            '#,     ,#'  ##    ##  '#,     ,#' ,#      #,     #,   #      #          
             '#######'   ##     ##  '#######'  #'      '#     '####' #    #          



                #########################################################
                #                        -***-                          #
                #          Department of theory and spectroscopy        #
                #                                                       #
                #                      Frank Neese                      #
                #                                                       #
                #     Directorship, Architecture, Infrastructure        #
                #                    SHARK, DRIVERS                     #
                #        Core code/Algorithms in most modules           #
                #                                                       #
                #        Max Planck Institute fuer Kohlenforschung      #
                #                Kaiser Wilhelm Platz 1                 #
                #                 D-45470 Muelheim/Ruhr                 #
                #                      Germany                          #
                #                                                       #
                #                  All rights reserved                  #
                #                        -***-                          #
                #########################################################


                         Program Version 6.1.1  -  RELEASE   -
                                (GIT: $487d211c$)
                          ($2025-11-21 10:33:24 +0100$)


 With contributions from (in alphabetic order):
[Max-Planck-Institut fuer Kohlenforschung]                               
  Daniel Aravena         : Magnetic Suceptibility                        
  Michael Atanasov       : Ab Initio Ligand Field Theory (pilot matlab implementation)
  Alexander A. Auer      : GIAO ZORA, VPT2 properties, NMR spectrum      
  Ute Becker             : All parallelization in ORCA, NUMFREQ, NUMCALC 
  Giovanni Bistoni       : ED, misc. LED, open-shell LED, HFLD           
  Dmytro Bykov           : pre 5.0 version of the SCF Hessian            
  Marcos Casanova-Páez   : Triplet and SCS-CIS(D). UHF-(DLPNO)-IP/EA/STEOM-CCSD. UHF-CVS-IP/STEOM-CCSD   
  Vijay G. Chilkuri      : MRCI spin determinant printing, contributions to CSF-ICE 
  Pauline Colinet        : FMM embedding                                 
  Dipayan Datta          : RHF DLPNO-CCSD density                        
  Achintya Kumar Dutta   : EOM-CC, STEOM-CC                              
  Nicolas Foglia         : Exact transition moments, OPA infrastructure, MCD improvements    
  Dmitry Ganyushin       : Spin-Orbit,Spin-Spin,Magnetic field MRCI      
  Miquel Garcia-Rates    : C-PCM and meta-GGA Hessian, CCSD/C-PCM, Gaussian charge scheme 
  Tiago L. C. Gouveia    : GS-ROHF, GS-ROCIS                             
  Yang Guo               : DLPNO-NEVPT2, F12-NEVPT2, CIM, IAO-localization        
  Andreas Hansen         : Spin unrestricted coupled pair/coupled cluster methods 
  Ingolf Harden          : AUTO-CI MPn and infrastructure                
  Benjamin Helmich-Paris : MC-RPA, TRAH-(SCF,CASSCF), AVAS, COSX integrals, SCF dyn. polar., MC-PDFT, srDFT 
  Lee Huntington         : MR-EOM, pCC                                   
  Robert Izsak           : Overlap fitted RIJCOSX, COSX-SCS-MP3, EOM     
  Riya Kayal             : Wick's Theorem for AUTO-CI, AUTO-CI UHF-CCSDT 
  Emily Kempfer          : AUTO-CI RHF CISDT and CCSDT, approximate NEVPT4
  Christian Kollmar      : KDIIS, OOCD, Brueckner-CCSD(T), CCSD density, CASPT2, CASPT2-K, improved NEVPT2 
  Axel Koslowski         : Symmetry handling                             
  Simone Kossmann        : meta-GGA functionals, TD-DFT gradient, OOMP2, (MP2 Hessian; deprecated post 5.0) 
  Lucas Lang             : DCDCAS, Hyperfine gauge corrections, ICE-SOC+SSC
  Marvin Lechner         : AUTO-CI (C++ implementation), FIC-MRCC        
  Spencer Leger          : CASSCF response                               
  Dagmar Lenk            : GEPOL surface, SMD, ORCA-2-JSON               
  Dimitrios Liakos       : Extrapolation schemes; Compound Job, Property file
  Dimitrios Manganas     : Further ROCIS development; embedding schemes. LFT, Crystal Embedding 
  Dimitrios Pantazis     : SARC Basis sets                               
  Anastasios Papadopoulos: AUTO-CI, single reference methods and gradients 
  Taras Petrenko         : pre 6.0 DFT Hessian and TD-DFT gradient,  ECA, NRVS 
  Petra Pikulova         : Analytic Raman intensities                    
  Peter Pinski           : DLPNO-MP2, DLPNO-MP2 Gradient                 
  Shashank Vittal Rao    : ES-AILFT, MagRelax                            
  Christoph Reimann      : Effective Core Potentials                     
  Marius Retegan         : Local ZFS, SOC                                
  Christoph Riplinger    : Optimizer, TS searches, QM/MM, DLPNO-CCSD(T), (RO)-DLPNO pert. Triples 
  Michael Roemelt        : Original ROCIS implementation, recursive CI coupling coefficients
  Masaaki Saitow         : Open-shell DLPNO-CCSD energy and density      
  Barbara Sandhoefer     : DKH picture change effects                    
  Yorick L. A. Schmerwitz: GMF and freeze-and-release deltaSCF, NEB S-IDPP initial path                    
  Kantharuban Sivalingam : CASSCF convergence/infrastructure, NEVPT2, NEVPT3, NEVPT4(SD), FIC-MRCI and CEPA variants
  Bernardo de Souza      : ESD, SOC TD-DFT                               
  Georgi L. Stoychev     : AutoAux, RI-MP2 NMR, DLPNO-MP2 response, X2C  
  Van Anh Tran           : RI-MP2 g-tensors                              
  Willem Van den Heuvel  : Paramagnetic NMR                              
  Zikuan Wang            : NOTCH, Electric field optimization            
  Frank Wennmohs         : Technical directorship and infrastructure     
  Hang Xu                : AUTO-CI-Response properties                   
                                                                         
[FACCTs GmbH]                                                            
  Markus Bursch, Nicolas Foglia, Miquel Garcia-Rates, Ingolf Harden, Hagen Neugebauer, Anastasios Papadopoulos, 
  Christoph Riplinger, Bernardo de Souza, Georgi L. Stoychev                                                    
                                                                 
  APM, various basis sets, CI-OPT, improved COSX, DLPNO-Multilevel,           
  DOCKER, DRACO, updates on ESD, Fragmentator, GOAT, IRC, LR-CPCM, L-BFGS, MBIS, meta-GGA TD-DFT gradient, ML-optimized integration grids, 
  MM, NACMEs, nearIR, NEB, NEB-TS, NL-DFT gradient (VV10), 2- and 3-layer-ONIOM, interface openCOSMO-RS, QMMM,   
  Crystal-QMMM, RESP, rigid body optimization, SF, symmetry and pop. for TD-DFT, various functionals, SOLVATOR                                   
                                                                         
[Other institutions]                                                     
  V. Asgeirsson          : NEB                                           
  Christoph Bannwarth    : sTDA-DFT, sTD-DFT, PBEh-3c, B97-3c, D3        
  Giovanni Bistoni       : ETS/NOCV, ADLD/ADEX, COVALED                  
  Martin Brehm           : Molecular dynamics                            
  Ronald Cardenas        : ETS/NOCV                                      
  Martina Colucci        : COVALED                                       
  Sebastian Ehlert       : rSCAN, r2SCAN, r2SCAN-3c, D4, dhf basis sets  
  Marvin Friede          : D4 for Fr, Ra, Ac-Lr                          
  Lars Goerigk           : TD-DFT with DH, B97 family of functionals     
  Stefan Grimme          : VdW corrections, initial TS optimization, DFT functionals, gCP, sTDA/sTD-DF 
  Waldemar Hujo          : DFT-NL                                        
  H. Jonsson             : NEB                                           
  Holger Kruse           : gCP                                           
  Marcel Mueller         : wB97X-3c, vDZP basis set                      
  Hagen Neugebauer       : wr2SCAN, Native XTB                           
  Gianluca Regni         : ADLD/ADEX                                     
  Tobias Risthaus        : pre 6.0 range-separated hybrid DFT and stability analysis
  Lukas Wittmann         : regularized MP2, r2SCAN double-hybrids, wr2SCAN        
                                                                         
We gratefully acknowledge several colleagues who have allowed us to      
interface, adapt or use parts of their codes:                            
  Ed Valeev, F. Pavosevic, A. Kumar             : LibInt (2-el integral package), F12 methods 
  Garnet Chan, S. Sharma, J. Yang, R. Olivares  : DMRG                   
  Ulf Ekstrom                                   : XCFun DFT Library      
  Mihaly Kallay                                 : mrcc  (arbitrary order and MRCC methods)
  Frank Weinhold                                : gennbo (NPA and NBO analysis)           
  Simon Mueller                                 : openCOSMO-RS                            
  Christopher J. Cramer and Donald G. Truhlar   : smd solvation model                     
  S Lehtola, MJT Oliveira, MAL Marques          : LibXC Library                           
  Liviu Ungur et al                             : ANISO software                          


 Your calculation uses the libint2 library for the computation of 2-el integrals
 For citations please refer to: http://libint.valeyev.net

 Your ORCA version has been built with support for libXC version: 7.0.0
 For citations please refer to: https://libxc.gitlab.io

 This ORCA versions uses:
   CBLAS   interface :  Fast vector & matrix operations
   LAPACKE interface :  Fast linear algebra routines
   SCALAPACK package :  Parallel linear algebra routines
   Shared memory     :  Shared parallel matrices
   BLAS/LAPACK       :  OpenBLAS 0.3.29  USE64BITINT DYNAMIC_ARCH NO_AFFINITY Cooperlake SINGLE_THREADED
        Core in use  :  Cooperlake
   Copyright (c) 2011-2014, The OpenBLAS Project


  ***********************************
  * Starting time: Wed May 20 12:35:45 2026
  * Host name:     c1-46
  * Process ID:    3901276
  * Working dir.:  /cluster/projects/nn14654k/ylvaos/basis_set_n_funcs/functionals/gga_c_pbe/LiS/out
  ***********************************

Using LibXC functional ID 130 : Perdew, Burke & Ernzerhof
[ 1]  J. P. Perdew, K. Burke, and M. Ernzerhof.,  Phys. Rev. Lett. 77, 3865 (1996)
[ 2]  J. P. Perdew, K. Burke, and M. Ernzerhof.,  Phys. Rev. Lett. 78, 1396 (1997)
Using LibXC functional ID 130 : Perdew, Burke & Ernzerhof
[ 1]  J. P. Perdew, K. Burke, and M. Ernzerhof.,  Phys. Rev. Lett. 77, 3865 (1996)
[ 2]  J. P. Perdew, K. Burke, and M. Ernzerhof.,  Phys. Rev. Lett. 78, 1396 (1997)
Your calculation utilizes LibXC
by S. Lehtola, C. Steigemann, M. J. T. Oliveira & M. A. L. Marques
Please cite in your paper:
Lehtola, S.; Steigemann, C.; Oliveira, M.J.T.; Marques, M. A. L. Software X, 7, (2018), 1.
   

================================================================================

----- Orbital basis set information -----
Your calculation utilizes the basis: cc-pVTZ 
       H, B-Ne : Obtained from the ccRepo (grant-hill.group.shef.ac.uk/ccrepo) Feb. 2017
                 T. H. Dunning, Jr., J. Chem. Phys. 90, 1007 (1989)
            He : Obtained from the ccRepo (grant-hill.group.shef.ac.uk/ccrepo) Feb. 2017
                 D. E. Woon, T. H. Dunning, Jr., J. Chem. Phys. 100, 2975 (1994)
  Li-Be, Na-Mg : Obtained from the ccRepo (grant-hill.group.shef.ac.uk/ccrepo) Feb. 2017
                 B. P. Prascher, D. E. Woon, K. A. Peterson, T. H. Dunning, Jr., A. K. Wilson, Theor. Chem. Acc. 128, 69 (2011)
         Al-Ar : Obtained from the ccRepo (grant-hill.group.shef.ac.uk/ccrepo) Feb. 2017
                 D. E. Woon, T. H. Dunning, Jr., J. Chem. Phys. 98, 1358 (1993)
            Ca : Obtained from the Peterson Research Group Website (tyr0.chem.wsu.edu/~kipeters) Feb. 2017
                 J. Koput, K. A. Peterson, J. Phys. Chem. 106, 9595 (2002)
         Sc-Zn : Obtained from the ccRepo (grant-hill.group.shef.ac.uk/ccrepo) Feb. 2017
                 N. B. Balabanov, K. A. Peterson, J. Chem. Phys. 123, 064107 (2005)
                 N. B. Balabanov, K. A. Peterson, J. Chem. Phys. 125, 074110 (2006)
         Ga-Kr : Obtained from the ccRepo (grant-hill.group.shef.ac.uk/ccrepo) Feb. 2017
                 A. K. Wilson, D. E. Woon, K. A. Peterson, T. H. Dunning, Jr., J. Chem. Phys. 110, 7667 (1999)
             Y : Obtained from the ccRepo (grant-hill.group.shef.ac.uk/ccrepo) Feb. 2017
                 K. A. Peterson, D. Figgen, M. Dolg, H. Stoll, J. Chem. Phys. 126, 124101 (2007)
        Ag, Au : Obtained from the Peterson Research Group Website (tyr0.chem.wsu.edu/~kipeters) Feb. 2017
                 K. A. Peterson, C. Puzzarini, Theor. Chem. Acc. 114, 283 (2005)

================================================================================
                                        WARNINGS
                       Please study these warnings very carefully!
================================================================================


WARNING: your system is open-shell and RHF/RKS was chosen
  ===> : WILL SWITCH to UHF/UKS


================================================================================
                                       INPUT FILE
================================================================================
NAME = /cluster/projects/nn14654k/ylvaos/basis_set_n_funcs/functionals/gga_c_pbe/LiS/inp/LiS_gga_c_pbe_ccpvtz.inp
|  1> ! dft cc-pVTZ TightSCF
|  2> %pal nprocs 8 end
|  3> 
|  4> %loc
|  5>   LocMet NewBoys
|  6>   Occ true
|  7> end
|  8> 
|  9> %method
| 10>   exchange None
| 11>   correlation gga_c_pbe
| 12> end
| 13> 
| 14> %elprop
| 15>   Dipole true
| 16>   Quadrupole true
| 17> end
| 18> 
| 19> * xyz 0 2
| 20> Li    0.000000000000   0.000000000000  -1.074850000000
| 21> S    0.000000000000   0.000000000000   1.074850000000
| 22> *
| 23> 
| 24> 
| 25>                          ****END OF INPUT****
================================================================================

                       ****************************
                       * Single Point Calculation *
                       ****************************

---------------------------------
CARTESIAN COORDINATES (ANGSTROEM)
---------------------------------
  Li     0.000000    0.000000   -1.074850
  S      0.000000    0.000000    1.074850

----------------------------
CARTESIAN COORDINATES (A.U.)
----------------------------
  NO LB      ZA    FRAG     MASS         X           Y           Z
   0 Li    3.0000    0     6.941    0.000000    0.000000   -2.031172
   1 S    16.0000    0    32.060    0.000000    0.000000    2.031172

--------------------------------
INTERNAL COORDINATES (ANGSTROEM)
--------------------------------
 Li     0   0   0     0.000000000000     0.00000000     0.00000000
 S      1   0   0     2.149700000000     0.00000000     0.00000000

---------------------------
INTERNAL COORDINATES (A.U.)
---------------------------
 Li     0   0   0     0.000000000000     0.00000000     0.00000000
 S      1   0   0     4.062344270091     0.00000000     0.00000000

---------------------
BASIS SET INFORMATION
---------------------
There are 2 groups of distinct atoms

 Group   1 Type Li  : 20s5p2d1f contracted to 4s3p2d1f pattern {9911/311/11/1}
 Group   2 Type S   : 41s16p2d1f contracted to 5s4p2d1f pattern {13131311/7711/11/1}

Atom   0Li   basis set group =>   1
Atom   1S    basis set group =>   2


           ************************************************************
           *        Program running with 8 parallel MPI-processes     *
           *              working on a common directory               *
           ************************************************************
------------------------------------------------------------------------------
                             ORCA STARTUP CALCULATIONS
------------------------------------------------------------------------------
------------------------------------------------------------------------------
                   ___                                                        
                  /   \      - P O W E R E D   B Y -                         
                 /     \                                                     
                 |  |  |   _    _      __       _____    __    __             
                 |  |  |  | |  | |    /  \     |  _  \  |  |  /  |          
                  \  \/   | |  | |   /    \    | | | |  |  | /  /          
                 / \  \   | |__| |  /  /\  \   | |_| |  |  |/  /          
                |  |  |   |  __  | /  /__\  \  |    /   |      \           
                |  |  |   | |  | | |   __   |  |    \   |  |\   \          
                \     /   | |  | | |  |  |  |  | |\  \  |  | \   \       
                 \___/    |_|  |_| |__|  |__|  |_| \__\ |__|  \__/        
                                                                              
                      - O R C A' S   B I G   F R I E N D -                    
                                      &                                       
                       - I N T E G R A L  F E E D E R -                       
                                                                              
 v1 FN, 2020, v2 2021, v3 2022-2024                                           
------------------------------------------------------------------------------


----------------------
SHARK INTEGRAL PACKAGE
----------------------

Number of atoms                             ...      2
Number of basis functions                   ...     96
Number of shells                            ...     44
Maximum angular momentum                    ...      3
Integral batch strategy                     ... SHARK/LIBINT Hybrid
RI-J (if used) integral strategy            ... SPLIT-RIJ (Revised 2003 algorithm where possible)
Printlevel                                  ...      1
Contraction scheme used                     ... PARTIAL GENERAL contraction
Prescreening option                         ... SCHWARTZ
   Thresh                                   ... 2.500e-11
   Tcut                                     ... 2.500e-12
   Tpresel                                  ... 2.500e-12 
Coulomb Range Separation                    ... NOT USED
Exchange Range Separation                   ... NOT USED
Multipole approximations                    ... NOT USED
Finite Nucleus Model                        ... NOT USED
CABS basis                                  ... NOT available
Auxiliary Coulomb fitting basis             ... NOT available
Auxiliary J/K fitting basis                 ... NOT available
Auxiliary Correlation fitting basis         ... NOT available
Auxiliary 'external' fitting basis          ... NOT available

Checking pre-screening integrals            ... done (  0.0 sec) Dimension = 44
Save PGC pre-screening integrals            ... done (  0.0 sec) Dimension = 44
Calculate PGC overlap integrals             ... done (  0.0 sec) Dimension = 22
Calculating pre-screening integrals (ORCA)  ... done (  0.0 sec) Dimension = 22
Shell pair information
Shell pair cut-off parameter TPreSel        ...   2.5e-12
Total number of shell pairs                 ...       990
Shell pairs after pre-screening             ...       865
Total number of primitive shell pairs       ...      1084
Primitive shell pairs kept                  ...       943
          la=0 lb=0:    268 shell pairs
          la=1 lb=0:    271 shell pairs
          la=1 lb=1:     78 shell pairs
          la=2 lb=0:    104 shell pairs
          la=2 lb=1:     48 shell pairs
          la=2 lb=2:     10 shell pairs
          la=3 lb=0:     51 shell pairs
          la=3 lb=1:     24 shell pairs
          la=3 lb=2:      8 shell pairs
          la=3 lb=3:      3 shell pairs

Checking whether 4 symmetric matrices of dimension 96 fit in memory
:Max Core in MB      =   4096.00
 MB in use           =      2.78
 MB left             =   4093.22
 MB needed           =      0.14
 Data fit in memory  = YES
Calculating Nuclear repulsion               ... done (  0.0 sec) ENN=     11.815837557985 Eh

Diagonalization of the overlap matrix:
Smallest eigenvalue                        ... 4.294e-03
Time for diagonalization                   ...    0.001 sec
Threshold for overlap eigenvalues          ... 1.000e-07
Number of eigenvalues below threshold      ... 0
Time for construction of square roots      ...    0.001 sec
Total time needed                          ...    0.004 sec

-------------------
DFT GRID GENERATION
-------------------

General Integration Accuracy     IntAcc      ... 4.388
Radial Grid Type                 RadialGrid  ... OptM3 with GC (2021)
Angular Grid (max. ang.)         AngularGrid ... 4 (Lebedev-302)
Angular grid pruning method      GridPruning ... 4 (adaptive)
Weight generation scheme         WeightScheme... mBecke (2022)
Basis function cutoff            BFCut       ... 1.0000e-11
Integration weight cutoff        WCut        ... 1.0000e-14
Partially contracted basis set               ... off
Rotationally invariant grid construction     ... off
Angular grids for H and He will be reduced by one unit

Total number of grid points                  ...    13486
Total number of batches                      ...      212
Average number of points per batch           ...       63
Average number of grid points per atom       ...     6743

---------------------
SHARK GRID GENERATION
---------------------

General Integration Accuracy     IntAcc      ... 4.388
Radial Grid Type                 RadialGrid  ... OptM3 with GC (2021)
Angular Grid (max. ang.)         AngularGrid ... 4 (Lebedev-302)
Angular grid pruning method      GridPruning ... 4 (adaptive)
Weight generation scheme         WeightScheme... mBecke (2022)
Basis function cutoff            BFCut       ... 1.0000e-11
Integration weight cutoff        WCut        ... 1.0000e-14
Partially contracted basis set               ... off
Rotationally invariant grid construction     ... off
Angular grids for H and He will be reduced by one unit
Core-polarized basis detected: some atoms will have their core
                               angular grid increased.
Steep s-basis detected: some atoms will have their radial
                        grid points doubled.

Total number of grid points                  ...    31699
Total number of batches                      ...      497
Average number of points per batch           ...       63
Average number of grid points per atom       ...    15850
Grids setup in   1.1 sec
Initializing property integral containers    ... done (  0.0 sec)

SHARK setup successfully completed in   1.2 seconds

Maximum memory used throughout the entire STARTUP-calculation: 47.6 MB


           ************************************************************
           *        Program running with 8 parallel MPI-processes     *
           *              working on a common directory               *
           ************************************************************
-------------------------------------------------------------------------------
                                 ORCA GUESS
                   Start orbitals & Density for SCF / CASSCF
-------------------------------------------------------------------------------

------------
SCF SETTINGS
------------
Hamiltonian:
 Density Functional     Method          .... DFT(GTOs)
 Exchange Functional    Exchange        .... no Exchange
  Functional kind                       .... Correlation
  Functional name                       .... Perdew, Burke & Ernzerhof
  Functional family                     .... GGA
  Functional refs                              
    [ 0] J. P. Perdew, K. Burke, and M. Ernzerhof.,  Phys. Rev. Lett. 77, 3865 (1996), doi: 10.1103/PhysRevLett.77.3865
    [ 1] J. P. Perdew, K. Burke, and M. Ernzerhof.,  Phys. Rev. Lett. 78, 1396 (1997), doi: 10.1103/PhysRevLett.78.1396
  Functional external parameters        .... 3
    Parameter  0 _beta      =  6.672455e-02 : beta constant       
    Parameter  1 _gamma     =  3.109069e-02 : (1 - ln(2))/Pi^2 in the PBE
    Parameter  2 _B         =  1.000000e+00 : Multiplies the A t^2 term. Used in the SPBE functional
 Gradients option       PostSCFGGA      .... off


General Settings:
 Integral files         IntName         .... /cluster/projects/nn14654k/ylvaos/basis_set_n_funcs/functionals/gga_c_pbe/LiS/inp/LiS_gga_c_pbe_ccpvtz
 Hartree-Fock type      HFTyp           .... UHF
 Total Charge           Charge          ....    0
 Multiplicity           Mult            ....    2
 Number of Electrons    NEL             ....   19
 Basis Dimension        Dim             ....   64
 Nuclear Repulsion      ENuc            ....     11.8158375580 Eh

Convergence Acceleration:
 AO-DIIS                CNVDIIS         .... on
   Start iteration      DIISMaxIt       ....    12
   Startup error        DIISStart       ....  0.200000
   # of expansion vecs  DIISMaxEq       ....     5
   Bias factor          DIISBfac        ....   1.050
   Max. coefficient     DIISMaxC        ....  10.000
 MO-DIIS                CNVKDIIS        .... off
 Trust-Rad. Augm. Hess. CNVTRAH         .... auto
   Auto Start mean grad. ratio tolernc. ....  1.125000
   Auto Start start iteration           ....    50
   Auto Start num. interpolation iter.  ....    10
   Max. Number of Micro iterations      ....    24
   Max. Number of Macro iterations      .... Maxiter - #DIIS iter
   Number of Davidson start vectors     ....     2
   Converg. threshold    (grad. norm)   ....   1.000e-05
   Grad. Scal. Fac. for Micro threshold ....   0.100
   Minimum threshold for Micro iter.    ....   1.000e-02
   NR start threshold (gradient norm)   ....   1.000e-04
   Initial trust radius                 ....   0.400
   Minimum AH scaling param. (alpha)    ....   1.000
   Maximum AH scaling param. (alpha)    .... 1000.000
   Quad. conv. algorithm                .... NR
   White noise on init. David. guess    .... on
   Maximum white noise                  ....   0.010
   Pseudo random numbers                .... off
   Inactive MOs                         .... canonical
   Orbital update algorithm             .... Taylor
   Preconditioner                       .... Diag
   Full preconditioner red. dimension   ....   250
 SOSCF                 CNVSOSCF           .... on
   Start iteration     SOSCFMaxIt         ....   150
   Startup grad/error  SOSCFStart         ....  0.003300
   Hessian update      SOSCFHessUp        .... L-BFGS
   Autom. constraints  SOSCFAutoConstrain .... off
 Level Shifting         CNVShift        .... on
   Level shift para.    LevelShift      ....    0.2500
   Turn off err/grad.   ShiftErr        ....    0.0010
 Zerner damping         CNVZerner       .... off
 Static damping         CNVDamp         .... on
   Fraction old density DampFac         ....    0.7000
   Max. Damping (<1)    DampMax         ....    0.9800
   Min. Damping (>=0)   DampMin         ....    0.0000
   Turn off err/grad.   DampErr         ....    0.1000

SCF Procedure:
 Maximum # iterations   MaxIter         ....   125
 SCF integral mode      SCFMode         .... Direct
   Integral package                     .... SHARK and LIBINT hybrid scheme
 Reset frequency        DirectResetFreq ....    20
 Integral Threshold     Thresh          ....  2.500e-11 Eh
 Primitive CutOff       TCut            ....  2.500e-12 Eh

Convergence Tolerance:
 Convergence Check Mode ConvCheckMode   .... Total+1el-Energy
 Convergence forced     ConvForced      .... 0
 Energy Change          TolE            ....  1.000e-08 Eh
 1-El. energy change                    ....  1.000e-05 Eh
 Orbital Gradient       TolG            ....  1.000e-05
 Orbital Rotation angle TolX            ....  1.000e-05
 DIIS Error             TolErr          ....  5.000e-07

------------------------------
INITIAL GUESS: MODEL POTENTIAL
------------------------------
Loading Hartree-Fock densities                     ... done
Calculating cut-offs                               ... done
Initializing the effective Hamiltonian             ... done
Setting up the integral package (SHARK)            ... done
Starting the Coulomb interaction                   ... done (   0.0 sec)
Making the grid                                    ... done (   0.0 sec)
Mapping shells                                     ... done
Starting the XC term evaluation                    ... done (   0.0 sec)
  promolecular density results
     # of electrons  =     18.999659774
     EX              =      0.000000000
     EC              =     -0.660301260
     EX+EC           =     -0.660301260
Transforming the Hamiltonian                       ... done (   0.0 sec)
Diagonalizing the Hamiltonian                      ... done (   0.0 sec)
Back transforming the eigenvectors                 ... done (   0.0 sec)
Now organizing SCF variables                       ... done
                      ------------------
                      INITIAL GUESS DONE (   0.2 sec)
                      ------------------
             **** ENERGY FILE WAS UPDATED (/cluster/projects/nn14654k/ylvaos/basis_set_n_funcs/functionals/gga_c_pbe/LiS/inp/LiS_gga_c_pbe_ccpvtz.en.tmp) ****
Finished Guess after   0.3 sec
Maximum memory used throughout the entire GUESS-calculation: 6.4 MB


           ************************************************************
           *        Program running with 8 parallel MPI-processes     *
           *              working on a common directory               *
           ************************************************************

-------------------------------------------------------------------------------------------
                                      ORCA LEAN-SCF
                              memory conserving SCF solver
-------------------------------------------------------------------------------------------

----------------------------------------D-I-I-S--------------------------------------------
Iteration    Energy (Eh)           Delta-E    RMSDP     MaxDP     DIISErr   Damp  Time(sec)
-------------------------------------------------------------------------------------------
               ***  Starting incremental Fock matrix formation  ***
    1    -377.0005459402805172     0.00e+00  3.85e-02  3.19e-01  3.60e-01  0.700   0.2
Warning: op=1 Small HOMO/LUMO gap (  -0.053) - skipping pre-diagonalization
         Will do a full diagonalization
    2    -378.4114170818053253    -1.41e+00  2.61e-02  2.24e-01  1.64e-01  0.700   0.2
                               ***Turning on AO-DIIS***
    3    -378.9157946045140193    -5.04e-01  1.77e-02  1.56e-01  8.03e-02  0.700   0.3
    4    -379.1282350967173898    -2.12e-01  4.35e-02  3.64e-01  5.13e-02  0.000   0.3
    5    -379.3653647745781541    -2.37e-01  9.68e-03  5.49e-02  6.17e-02  0.000   0.2
    6    -379.4173734983866098    -5.20e-02  4.25e-03  2.70e-02  3.87e-02  0.000   0.2
    7    -379.4266483282333979    -9.27e-03  2.19e-03  1.11e-02  3.66e-02  0.000   0.3
    8    -379.4325715203985965    -5.92e-03  1.82e-03  9.84e-03  3.31e-02  0.000   0.2
    9    -379.4388633961798973    -6.29e-03  2.19e-03  1.24e-02  2.62e-02  0.000   0.3
   10    -379.4433313496531923    -4.47e-03  1.61e-03  9.28e-03  2.13e-02  0.000   0.4
   11    -379.4465398726555350    -3.21e-03  1.57e-03  1.01e-02  1.49e-02  0.000   0.3
   12    -379.4482278023706954    -1.69e-03  1.15e-03  7.51e-03  1.16e-02  0.000   0.3
   13    -379.4492387353005256    -1.01e-03  8.61e-04  5.97e-03  8.85e-03  0.000   0.3
   14    -379.4497243113539184    -4.86e-04  6.78e-04  4.79e-03  7.32e-03  0.000   0.3
   15    -379.4500552546983840    -3.31e-04  5.22e-04  3.76e-03  6.06e-03  0.000   0.2
   16    -379.4502662741928702    -2.11e-04  5.11e-04  3.64e-03  5.04e-03  0.000   0.3
   17    -379.4504653901237248    -1.99e-04  4.02e-04  2.63e-03  3.87e-03  0.000   0.3
                              *** Initializing SOSCF ***
---------------------------------------S-O-S-C-F--------------------------------------
Iteration    Energy (Eh)           Delta-E    RMSDP     MaxDP     MaxGrad    Time(sec)
--------------------------------------------------------------------------------------
   18    -379.4505953359525279    -1.30e-04  3.79e-04  2.68e-03  3.12e-03     0.4
               *** Restarting incremental Fock matrix formation ***
   19    -379.4506806809878299    -8.53e-05  1.08e-03  6.54e-03  2.79e-03     0.2
   20    -379.4506373120559601     4.34e-05  4.80e-04  2.79e-03  3.28e-03     0.2
   21    -379.4507876528766701    -1.50e-04  2.73e-04  1.88e-03  4.28e-04     0.2
   22    -379.4507964441713170    -8.79e-06  3.50e-04  2.63e-03  3.34e-04     0.2
   23    -379.4508004933588268    -4.05e-06  3.98e-05  2.10e-04  1.47e-04     0.3
   24    -379.4508006517979766    -1.58e-07  2.20e-05  1.26e-04  4.21e-05     0.2
   25    -379.4508006778542040    -2.61e-08  6.63e-06  3.84e-05  2.26e-05     0.3
   26    -379.4508006820653918    -4.21e-09  3.12e-06  1.73e-05  9.08e-06     0.3
                 **** Energy Check signals convergence ****

               *****************************************************
               *                     SUCCESS                       *
               *           SCF CONVERGED AFTER  26 CYCLES          *
               *****************************************************

             **** ENERGY FILE WAS UPDATED (/cluster/projects/nn14654k/ylvaos/basis_set_n_funcs/functionals/gga_c_pbe/LiS/inp/LiS_gga_c_pbe_ccpvtz.en.tmp) ****

----------------
TOTAL SCF ENERGY
----------------

Total Energy       :       -379.45080068305219 Eh          -10325.38122 eV

Components:
Nuclear Repulsion  :         11.81583755798484 Eh             321.52529 eV
Electronic Energy  :       -391.26663824103701 Eh          -10646.90650 eV
One Electron Energy:       -572.20758348321749 Eh          -15570.55994 eV
Two Electron Energy:        180.94094524218048 Eh            4923.65343 eV

Virial components:
Potential Energy   :       -768.88610235712679 Eh          -20922.45452 eV
Kinetic Energy     :        389.43530167407459 Eh           10597.07330 eV
Virial Ratio       :          1.97436159241830

DFT components:
N(Alpha)           :        9.999456386010 electrons
N(Beta)            :        8.999663215089 electrons
N(Total)           :       18.999119601099 electrons
E(X)               :        0.000000000000 Eh       
E(C)               :       -0.638662002564 Eh       
E(XC)              :       -0.638662002564 Eh       

---------------
SCF CONVERGENCE
---------------

  Last Energy change         ...    4.2112e-09  Tolerance :   1.0000e-08
  Last MAX-Density change    ...    1.7336e-05  Tolerance :   1.0000e-07
  Last RMS-Density change    ...    3.1192e-06  Tolerance :   5.0000e-09
  Last DIIS Error            ...    3.1150e-03  Tolerance :   5.0000e-07
  Last Orbital Gradient      ...    9.0783e-06  Tolerance :   1.0000e-05
  Last Orbital Rotation      ...    3.5310e-05  Tolerance :   1.0000e-05


----------------------
UHF SPIN CONTAMINATION
----------------------

Warning: in a DFT calculation there is little theoretical justification to 
         calculate <S**2> as in Hartree-Fock theory. We will do it anyways
         but you should keep in mind that the values have only limited relevance

Expectation value of <S**2>     :     0.750476
Ideal value S*(S+1) for S=0.5   :     0.750000
Deviation                       :     0.000476

----------------
ORBITAL ENERGIES
----------------
                 SPIN UP ORBITALS
  NO   OCC          E(Eh)            E(eV) 
   0   1.0000     -83.075411     -2260.5969 
   1   1.0000      -6.538526      -177.9224 
   2   1.0000      -4.588464      -124.8585 
   3   1.0000      -4.577659      -124.5644 
   4   1.0000      -4.577098      -124.5492 
   5   1.0000      -1.161090       -31.5949 
   6   1.0000      -0.349970        -9.5232 
   7   1.0000      -0.047514        -1.2929 
   8   1.0000      -0.033579        -0.9137 
   9   1.0000      -0.027177        -0.7395 
  10   0.0000      -0.000655        -0.0178 
  11   0.0000       0.038796         1.0557 
  12   0.0000       0.043638         1.1875 
  13   0.0000       0.047598         1.2952 
  14   0.0000       0.113274         3.0824 
  15   0.0000       0.118544         3.2258 
  16   0.0000       0.122683         3.3384 
  17   0.0000       0.185023         5.0347 
  18   0.0000       0.185054         5.0356 
  19   0.0000       0.192039         5.2256 
  20   0.0000       0.221666         6.0318 

                 SPIN DOWN ORBITALS
  NO   OCC          E(Eh)            E(eV) 
   0   1.0000     -83.075514     -2260.5997 
   1   1.0000      -6.538929      -177.9333 
   2   1.0000      -4.589343      -124.8824 
   3   1.0000      -4.577941      -124.5721 
   4   1.0000      -4.577384      -124.5569 
   5   1.0000      -1.161199       -31.5978 
   6   1.0000      -0.356561        -9.7025 
   7   1.0000      -0.037137        -1.0106 
   8   1.0000      -0.030289        -0.8242 
   9   0.0000      -0.057882        -1.5750 
  10   0.0000      -0.002473        -0.0673 
  11   0.0000       0.036504         0.9933 
  12   0.0000       0.042571         1.1584 
  13   0.0000       0.046516         1.2658 
  14   0.0000       0.110006         2.9934 
  15   0.0000       0.117240         3.1903 
  16   0.0000       0.121154         3.2968 
  17   0.0000       0.181836         4.9480 
  18   0.0000       0.182068         4.9543 
  19   0.0000       0.190039         5.1712 
*Only the first 10 virtual orbitals were printed.

                    ********************************
                    * MULLIKEN POPULATION ANALYSIS *
                    ********************************

--------------------------------------------
MULLIKEN ATOMIC CHARGES AND SPIN POPULATIONS
--------------------------------------------
   0 Li:   -0.333201    0.211831
   1 S :    0.333201    0.788169
Sum of atomic charges         :   -0.0000000
Sum of atomic spin populations:    1.0000000

-----------------------------------------------------
MULLIKEN REDUCED ORBITAL CHARGES AND SPIN POPULATIONS
-----------------------------------------------------
CHARGE
  0 Lis       :     2.313591  s :     2.313591
      pz      :     0.265723  p :     0.874074
      px      :     0.385650
      py      :     0.222701
      dz2     :     0.068360  d :     0.135199
      dxz     :     0.038309
      dyz     :     0.028243
      dx2y2   :     0.000097
      dxy     :     0.000190
      f0      :     0.007705  f :     0.010337
      f+1     :     0.001112
      f-1     :     0.001354
      f+2     :     0.000031
      f-2     :     0.000061
      f+3     :     0.000017
      f-3     :     0.000058

  1 S s       :     5.764993  s :     5.764993
      pz      :     3.573379  p :     9.893124
      px      :     3.363898
      py      :     2.955847
      dz2     :     0.004540  d :     0.008096
      dxz     :     0.001551
      dyz     :     0.001101
      dx2y2   :     0.000306
      dxy     :     0.000599
      f0      :     0.000343  f :     0.000586
      f+1     :     0.000023
      f-1     :    -0.000002
      f+2     :     0.000028
      f-2     :     0.000054
      f+3     :     0.000041
      f-3     :     0.000098


SPIN
  0 Lis       :     0.007047  s :     0.007047
      pz      :     0.006272  p :     0.180160
      px      :     0.042057
      py      :     0.131832
      dz2     :    -0.000195  d :     0.023758
      dxz     :     0.004603
      dyz     :     0.019440
      dx2y2   :    -0.000030
      dxy     :    -0.000060
      f0      :    -0.000141  f :     0.000864
      f+1     :     0.000134
      f-1     :     0.000900
      f+2     :    -0.000009
      f-2     :    -0.000018
      f+3     :     0.000016
      f-3     :    -0.000016

  1 S s       :    -0.002734  s :    -0.002734
      pz      :    -0.009735  p :     0.790376
      px      :     0.162369
      py      :     0.637742
      dz2     :    -0.000108  d :     0.000549
      dxz     :     0.000180
      dyz     :     0.000738
      dx2y2   :    -0.000088
      dxy     :    -0.000172
      f0      :    -0.000005  f :    -0.000022
      f+1     :     0.000003
      f-1     :    -0.000008
      f+2     :    -0.000008
      f-2     :    -0.000015
      f+3     :     0.000038
      f-3     :    -0.000027



                     *******************************
                     * LOEWDIN POPULATION ANALYSIS *
                     *******************************

-------------------------------------------
LOEWDIN ATOMIC CHARGES AND SPIN POPULATIONS
-------------------------------------------
   0 Li:   -1.121627    0.326230
   1 S :    1.121627    0.673770

----------------------------------------------------
LOEWDIN REDUCED ORBITAL CHARGES AND SPIN POPULATIONS
----------------------------------------------------
CHARGE
  0 Lis       :     2.378295  s :     2.378295
      pz      :     0.434817  p :     1.154085
      px      :     0.451733
      py      :     0.267534
      dz2     :     0.203305  d :     0.407326
      dxz     :     0.118224
      dyz     :     0.085507
      dx2y2   :     0.000098
      dxy     :     0.000192
      f0      :     0.075480  f :     0.181921
      f+1     :     0.061225
      f-1     :     0.045035
      f+2     :     0.000036
      f-2     :     0.000071
      f+3     :     0.000017
      f-3     :     0.000058

  1 S s       :     5.392202  s :     5.392202
      pz      :     3.501884  p :     9.471711
      px      :     3.158977
      py      :     2.810850
      dz2     :     0.011673  d :     0.013219
      dxz     :     0.000369
      dyz     :     0.000289
      dx2y2   :     0.000300
      dxy     :     0.000588
      f0      :     0.000978  f :     0.001241
      f+1     :     0.000014
      f-1     :     0.000029
      f+2     :     0.000027
      f-2     :     0.000054
      f+3     :     0.000041
      f-3     :     0.000098


SPIN
  0 Lis       :     0.004996  s :     0.004996
      pz      :     0.004143  p :     0.215048
      px      :     0.049847
      py      :     0.161058
      dz2     :    -0.000565  d :     0.070721
      dxz     :     0.014141
      dyz     :     0.057236
      dx2y2   :    -0.000031
      dxy     :    -0.000060
      f0      :    -0.000170  f :     0.035465
      f+1     :     0.007097
      f-1     :     0.028571
      f+2     :    -0.000011
      f-2     :    -0.000021
      f+3     :     0.000016
      f-3     :    -0.000016

  1 S s       :    -0.000465  s :    -0.000465
      pz      :    -0.007400  p :     0.674423
      px      :     0.138217
      py      :     0.543606
      dz2     :    -0.000118  d :    -0.000185
      dxz     :     0.000039
      dyz     :     0.000150
      dx2y2   :    -0.000086
      dxy     :    -0.000169
      f0      :    -0.000019  f :    -0.000003
      f+1     :     0.000005
      f-1     :     0.000023
      f+2     :    -0.000008
      f-2     :    -0.000015
      f+3     :     0.000038
      f-3     :    -0.000027



                      *****************************
                      * MAYER POPULATION ANALYSIS *
                      *****************************

  NA   - Mulliken gross atomic population
  ZA   - Total nuclear charge
  QA   - Mulliken gross atomic charge
  VA   - Mayer's total valence
  BVA  - Mayer's bonded valence
  FA   - Mayer's free valence

  ATOM       NA         ZA         QA         VA         BVA        FA
  0 Li     3.3332     3.0000    -0.3332     2.1202     2.0838     0.0364
  1 S     15.6668    16.0000     0.3332     2.7400     2.0838     0.6562

  Mayer bond orders larger than 0.100000
B(  0-Li,  1-S ) :   2.0838 

-------
TIMINGS
-------

Total SCF time: 0 days 0 hours 0 min 7 sec 

Total time                  ....       7.497 sec
Sum of individual times     ....       7.185 sec  ( 95.8%)

SCF preparation             ....       0.178 sec  (  2.4%)
Fock matrix formation       ....       3.656 sec  ( 48.8%)
  Startup                   ....       0.047 sec  (  1.3% of F)
  Coulomb formation         ....       0.420 sec  ( 11.5% of F)
  XC integration            ....       1.523 sec  ( 41.7% of F)
    XC Preparation          ....       0.000 sec  (  0.0% of XC)
    Basis function eval.    ....       0.043 sec  (  2.8% of XC)
    Density eval.           ....       0.022 sec  (  1.4% of XC)
    XC-Functional eval.     ....       0.017 sec  (  1.1% of XC)
    XC-Potential eval.      ....       0.058 sec  (  3.8% of XC)
Diagonalization             ....       0.000 sec  (  0.0%)
Density matrix formation    ....       0.713 sec  (  9.5%)
Total Energy calculation    ....       0.156 sec  (  2.1%)
Population analysis         ....       0.023 sec  (  0.3%)
Orbital Transformation      ....       0.051 sec  (  0.7%)
Orbital Orthonormalization  ....       0.000 sec  (  0.0%)
DIIS solution               ....       1.950 sec  ( 26.0%)
SOSCF solution              ....       0.458 sec  (  6.1%)
Finished LeanSCF after   7.6 sec

Maximum memory used throughout the entire LEANSCF-calculation: 10.7 MB


           ************************************************************
           *        Program running with 8 parallel MPI-processes     *
           *              working on a common directory               *
           ************************************************************

------------------------------------------------------------------------------
                         ORCA PROPERTY INTEGRAL CALCULATIONS
------------------------------------------------------------------------------

GBWName                                   ... /cluster/projects/nn14654k/ylvaos/basis_set_n_funcs/functionals/gga_c_pbe/LiS/inp/LiS_gga_c_pbe_ccpvtz.gbw
Number of atoms                           ...      2
Number of basis functions                 ...     96
Max core memory                           ...   4096 MB

Dipole integrals                          ... YES
Quadrupole integrals                      ... YES
Linear momentum integrals                 ...  NO
Angular momentum integrals                ...  NO
Higher moments length integrals           ...  NO
Higher moments velocity integrals         ...  NO
Kinetic energy integrals                  ...  NO
GIAO right hand sides                     ...  NO
GIAO dipole derivative integrals          ...  NO
SOC integrals                             ...  NO
EPR diamagnetic integrals (GIAO)          ...  NO
EPR gauge integrals                       ...  NO
Field gradient integrals                  ...  NO (   0 nuclei)
Spin-dipole/Fermi contact integrals       ...  NO (   0 nuclei)
Contact density integrals                 ...  NO (   0 nuclei)
Nucleus-orbit integrals                   ...  NO (   0 nuclei)
Geometric perturbations                   ...  NO (   2 nuclei)

Choice of electric origin   ... Center of mass
Position of electric origin ... (  0.0000,  0.0000,  1.3082) 
Choice of magnetic origin   ... GIAO
Position of magnetic origin ... (  0.0000,  0.0000,  0.0000) 

Calculating integrals                     ... Electric Dipole (Length)     done (  0.0 sec)
Calculating integrals                     ... Electric Quadrupole (Length) done (  0.0 sec)

Property integrals calculated in   0.0 sec

Maximum memory used throughout the entire PROPINT-calculation: 6.7 MB
------------------------------------------------------------------------------
                           ORCA ORBITAL LOCALIZATION
------------------------------------------------------------------------------

Input orbitals are from                  ... /cluster/projects/nn14654k/ylvaos/basis_set_n_funcs/functionals/gga_c_pbe/LiS/inp/LiS_gga_c_pbe_ccpvtz.gbw
Output orbitals are to                   ... /cluster/projects/nn14654k/ylvaos/basis_set_n_funcs/functionals/gga_c_pbe/LiS/inp/LiS_gga_c_pbe_ccpvtz.loc
Max. number of iterations                ... 128
Localizations seeded randomly            ... on
Convergence tolerance                    ... 1.000e-06
Threshold for strong local MOs           ... 9.500e-01
Threshold for bond MOs                   ... 8.500e-01
Operator                                 ... 0
Orbital range for localization           ... 2 to 9
Localization criterion                   ... NEW-BOYS
Doing the dipole integrals               ... o.k.
Initial value of the localization sum :    13.350502
ITERATION   0 : L=   16.6294774031 DL=  3.28e+00 (AVERGE_DL)=    0.3422079364 
ITERATION   1 : L=   17.5682473650 DL=  9.39e-01 (AVERGE_DL)=    0.1831051573 
ITERATION   2 : L=   17.6814363632 DL=  1.13e-01 (AVERGE_DL)=    0.0635803761 
ITERATION   3 : L=   17.7006965641 DL=  1.93e-02 (AVERGE_DL)=    0.0262271675 
ITERATION   4 : L=   17.7046371358 DL=  3.94e-03 (AVERGE_DL)=    0.0118631660 
ITERATION   5 : L=   17.7053777826 DL=  7.41e-04 (AVERGE_DL)=    0.0051431186 
ITERATION   6 : L=   17.7055264349 DL=  1.49e-04 (AVERGE_DL)=    0.0023041289 
ITERATION   7 : L=   17.7055666632 DL=  4.02e-05 (AVERGE_DL)=    0.0011986357 
ITERATION   8 : L=   17.7055882203 DL=  2.16e-05 (AVERGE_DL)=    0.0008774372 
ITERATION   9 : L=   17.7056067824 DL=  1.86e-05 (AVERGE_DL)=    0.0008142051 
ITERATION  10 : L=   17.7056254010 DL=  1.86e-05 (AVERGE_DL)=    0.0008154458 
ITERATION  11 : L=   17.7056448148 DL=  1.94e-05 (AVERGE_DL)=    0.0008326766 
ITERATION  12 : L=   17.7056652734 DL=  2.05e-05 (AVERGE_DL)=    0.0008547886 
ITERATION  13 : L=   17.7056868969 DL=  2.16e-05 (AVERGE_DL)=    0.0008787880 
ITERATION  14 : L=   17.7057097678 DL=  2.29e-05 (AVERGE_DL)=    0.0009037795 
ITERATION  15 : L=   17.7057339553 DL=  2.42e-05 (AVERGE_DL)=    0.0009294289 
ITERATION  16 : L=   17.7057595263 DL=  2.56e-05 (AVERGE_DL)=    0.0009556427 
ITERATION  17 : L=   17.7057865479 DL=  2.70e-05 (AVERGE_DL)=    0.0009823721 
ITERATION  18 : L=   17.7058150871 DL=  2.85e-05 (AVERGE_DL)=    0.0010095823 
ITERATION  19 : L=   17.7058452127 DL=  3.01e-05 (AVERGE_DL)=    0.0010372637 
ITERATION  20 : L=   17.7058769943 DL=  3.18e-05 (AVERGE_DL)=    0.0010653910 
ITERATION  21 : L=   17.7059105021 DL=  3.35e-05 (AVERGE_DL)=    0.0010939411 
ITERATION  22 : L=   17.7059458067 DL=  3.53e-05 (AVERGE_DL)=    0.0011228886 
ITERATION  23 : L=   17.7059829787 DL=  3.72e-05 (AVERGE_DL)=    0.0011522027 
ITERATION  24 : L=   17.7060220884 DL=  3.91e-05 (AVERGE_DL)=    0.0011818512 
ITERATION  25 : L=   17.7060632050 DL=  4.11e-05 (AVERGE_DL)=    0.0012117969 
ITERATION  26 : L=   17.7061063967 DL=  4.32e-05 (AVERGE_DL)=    0.0012419989 
ITERATION  27 : L=   17.7061517298 DL=  4.53e-05 (AVERGE_DL)=    0.0012724138 
ITERATION  28 : L=   17.7061992674 DL=  4.75e-05 (AVERGE_DL)=    0.0013029860 
ITERATION  29 : L=   17.7062490706 DL=  4.98e-05 (AVERGE_DL)=    0.0013336742 
ITERATION  30 : L=   17.7063011953 DL=  5.21e-05 (AVERGE_DL)=    0.0013644034 
ITERATION  31 : L=   17.7063556940 DL=  5.45e-05 (AVERGE_DL)=    0.0013951273 
ITERATION  32 : L=   17.7064126129 DL=  5.69e-05 (AVERGE_DL)=    0.0014257696 
ITERATION  33 : L=   17.7064719924 DL=  5.94e-05 (AVERGE_DL)=    0.0014562609 
ITERATION  34 : L=   17.7065338656 DL=  6.19e-05 (AVERGE_DL)=    0.0014865256 
ITERATION  35 : L=   17.7065982577 DL=  6.44e-05 (AVERGE_DL)=    0.0015164815 
ITERATION  36 : L=   17.7066651850 DL=  6.69e-05 (AVERGE_DL)=    0.0015460471 
ITERATION  37 : L=   17.7067346544 DL=  6.95e-05 (AVERGE_DL)=    0.0015751343 
ITERATION  38 : L=   17.7068066619 DL=  7.20e-05 (AVERGE_DL)=    0.0016036509 
ITERATION  39 : L=   17.7068811925 DL=  7.45e-05 (AVERGE_DL)=    0.0016315052 
ITERATION  40 : L=   17.7069582187 DL=  7.70e-05 (AVERGE_DL)=    0.0016585942 
ITERATION  41 : L=   17.7070377002 DL=  7.95e-05 (AVERGE_DL)=    0.0016848218 
ITERATION  42 : L=   17.7071195834 DL=  8.19e-05 (AVERGE_DL)=    0.0017100882 
ITERATION  43 : L=   17.7072038013 DL=  8.42e-05 (AVERGE_DL)=    0.0017342956 
ITERATION  44 : L=   17.7072902720 DL=  8.65e-05 (AVERGE_DL)=    0.0017573393 
ITERATION  45 : L=   17.7073788998 DL=  8.86e-05 (AVERGE_DL)=    0.0017791222 
ITERATION  46 : L=   17.7074695739 DL=  9.07e-05 (AVERGE_DL)=    0.0017995453 
ITERATION  47 : L=   17.7075621698 DL=  9.26e-05 (AVERGE_DL)=    0.0018185145 
ITERATION  48 : L=   17.7076565482 DL=  9.44e-05 (AVERGE_DL)=    0.0018359349 
ITERATION  49 : L=   17.7077525568 DL=  9.60e-05 (AVERGE_DL)=    0.0018517227 
ITERATION  50 : L=   17.7078500303 DL=  9.75e-05 (AVERGE_DL)=    0.0018657971 
ITERATION  51 : L=   17.7079487918 DL=  9.88e-05 (AVERGE_DL)=    0.0018780829 
ITERATION  52 : L=   17.7080486535 DL=  9.99e-05 (AVERGE_DL)=    0.0018885148 
ITERATION  53 : L=   17.7081494173 DL=  1.01e-04 (AVERGE_DL)=    0.0018970266 
ITERATION  54 : L=   17.7082508782 DL=  1.01e-04 (AVERGE_DL)=    0.0019035760 
ITERATION  55 : L=   17.7083528240 DL=  1.02e-04 (AVERGE_DL)=    0.0019081198 
ITERATION  56 : L=   17.7084550379 DL=  1.02e-04 (AVERGE_DL)=    0.0019106272 
ITERATION  57 : L=   17.7085573002 DL=  1.02e-04 (AVERGE_DL)=    0.0019110796 
ITERATION  58 : L=   17.7086593902 DL=  1.02e-04 (AVERGE_DL)=    0.0019094686 
ITERATION  59 : L=   17.7087610876 DL=  1.02e-04 (AVERGE_DL)=    0.0019057941 
ITERATION  60 : L=   17.7088621756 DL=  1.01e-04 (AVERGE_DL)=    0.0019000752 
ITERATION  61 : L=   17.7089624415 DL=  1.00e-04 (AVERGE_DL)=    0.0018923330 
ITERATION  62 : L=   17.7090616787 DL=  9.92e-05 (AVERGE_DL)=    0.0018826012 
ITERATION  63 : L=   17.7091596891 DL=  9.80e-05 (AVERGE_DL)=    0.0018709278 
ITERATION  64 : L=   17.7092562840 DL=  9.66e-05 (AVERGE_DL)=    0.0018573685 
ITERATION  65 : L=   17.7093512856 DL=  9.50e-05 (AVERGE_DL)=    0.0018419864 
ITERATION  66 : L=   17.7094445288 DL=  9.32e-05 (AVERGE_DL)=    0.0018248597 
ITERATION  67 : L=   17.7095358609 DL=  9.13e-05 (AVERGE_DL)=    0.0018060630 
ITERATION  68 : L=   17.7096251435 DL=  8.93e-05 (AVERGE_DL)=    0.0017856826 
ITERATION  69 : L=   17.7097122527 DL=  8.71e-05 (AVERGE_DL)=    0.0017638154 
ITERATION  70 : L=   17.7097970801 DL=  8.48e-05 (AVERGE_DL)=    0.0017405599 
ITERATION  71 : L=   17.7098795318 DL=  8.25e-05 (AVERGE_DL)=    0.0017160137 
ITERATION  72 : L=   17.7099595294 DL=  8.00e-05 (AVERGE_DL)=    0.0016902829 
ITERATION  73 : L=   17.7100370091 DL=  7.75e-05 (AVERGE_DL)=    0.0016634700 
ITERATION  74 : L=   17.7101119220 DL=  7.49e-05 (AVERGE_DL)=    0.0016356834 
ITERATION  75 : L=   17.7101842332 DL=  7.23e-05 (AVERGE_DL)=    0.0016070295 
ITERATION  76 : L=   17.7102539213 DL=  6.97e-05 (AVERGE_DL)=    0.0015776121 
ITERATION  77 : L=   17.7103209773 DL=  6.71e-05 (AVERGE_DL)=    0.0015475330 
ITERATION  78 : L=   17.7103854049 DL=  6.44e-05 (AVERGE_DL)=    0.0015169001 
ITERATION  79 : L=   17.7104472180 DL=  6.18e-05 (AVERGE_DL)=    0.0014858029 
ITERATION  80 : L=   17.7105064408 DL=  5.92e-05 (AVERGE_DL)=    0.0014543384 
ITERATION  81 : L=   17.7105631067 DL=  5.67e-05 (AVERGE_DL)=    0.0014225975 
ITERATION  82 : L=   17.7106172575 DL=  5.42e-05 (AVERGE_DL)=    0.0013906671 
ITERATION  83 : L=   17.7106689420 DL=  5.17e-05 (AVERGE_DL)=    0.0013586306 
ITERATION  84 : L=   17.7107182152 DL=  4.93e-05 (AVERGE_DL)=    0.0013265581 
ITERATION  85 : L=   17.7107651376 DL=  4.69e-05 (AVERGE_DL)=    0.0012945271 
ITERATION  86 : L=   17.7108097742 DL=  4.46e-05 (AVERGE_DL)=    0.0012626013 
ITERATION  87 : L=   17.7108521935 DL=  4.24e-05 (AVERGE_DL)=    0.0012308437 
ITERATION  88 : L=   17.7108924674 DL=  4.03e-05 (AVERGE_DL)=    0.0011993136 
ITERATION  89 : L=   17.7109306695 DL=  3.82e-05 (AVERGE_DL)=    0.0011680586 
ITERATION  90 : L=   17.7109668750 DL=  3.62e-05 (AVERGE_DL)=    0.0011371249 
ITERATION  91 : L=   17.7110011603 DL=  3.43e-05 (AVERGE_DL)=    0.0011065597 
ITERATION  92 : L=   17.7110336018 DL=  3.24e-05 (AVERGE_DL)=    0.0010763957 
ITERATION  93 : L=   17.7110642767 DL=  3.07e-05 (AVERGE_DL)=    0.0010466761 
ITERATION  94 : L=   17.7110932607 DL=  2.90e-05 (AVERGE_DL)=    0.0010174206 
ITERATION  95 : L=   17.7111206291 DL=  2.74e-05 (AVERGE_DL)=    0.0009886562 
ITERATION  96 : L=   17.7111464559 DL=  2.58e-05 (AVERGE_DL)=    0.0009604097 
ITERATION  97 : L=   17.7111708138 DL=  2.44e-05 (AVERGE_DL)=    0.0009326980 
ITERATION  98 : L=   17.7111937735 DL=  2.30e-05 (AVERGE_DL)=    0.0009055309 
ITERATION  99 : L=   17.7112154040 DL=  2.16e-05 (AVERGE_DL)=    0.0008789314 
ITERATION 100 : L=   17.7112357724 DL=  2.04e-05 (AVERGE_DL)=    0.0008529015 
ITERATION 101 : L=   17.7112549435 DL=  1.92e-05 (AVERGE_DL)=    0.0008274547 
ITERATION 102 : L=   17.7112729797 DL=  1.80e-05 (AVERGE_DL)=    0.0008025910 
ITERATION 103 : L=   17.7112899414 DL=  1.70e-05 (AVERGE_DL)=    0.0007783142 
ITERATION 104 : L=   17.7113058863 DL=  1.59e-05 (AVERGE_DL)=    0.0007546277 
ITERATION 105 : L=   17.7113208701 DL=  1.50e-05 (AVERGE_DL)=    0.0007315296 
ITERATION 106 : L=   17.7113349460 DL=  1.41e-05 (AVERGE_DL)=    0.0007090199 
ITERATION 107 : L=   17.7113481647 DL=  1.32e-05 (AVERGE_DL)=    0.0006870937 
ITERATION 108 : L=   17.7113605748 DL=  1.24e-05 (AVERGE_DL)=    0.0006657443 
ITERATION 109 : L=   17.7113722223 DL=  1.16e-05 (AVERGE_DL)=    0.0006449692 
ITERATION 110 : L=   17.7113831514 DL=  1.09e-05 (AVERGE_DL)=    0.0006247596 
ITERATION 111 : L=   17.7113934038 DL=  1.03e-05 (AVERGE_DL)=    0.0006051086 
ITERATION 112 : L=   17.7114030191 DL=  9.62e-06 (AVERGE_DL)=    0.0005860077 
ITERATION 113 : L=   17.7114120351 DL=  9.02e-06 (AVERGE_DL)=    0.0005674490 
ITERATION 114 : L=   17.7114204873 DL=  8.45e-06 (AVERGE_DL)=    0.0005494222 
ITERATION 115 : L=   17.7114284096 DL=  7.92e-06 (AVERGE_DL)=    0.0005319185 
ITERATION 116 : L=   17.7114358337 DL=  7.42e-06 (AVERGE_DL)=    0.0005149258 
ITERATION 117 : L=   17.7114427900 DL=  6.96e-06 (AVERGE_DL)=    0.0004984344 
ITERATION 118 : L=   17.7114493067 DL=  6.52e-06 (AVERGE_DL)=    0.0004824335 
ITERATION 119 : L=   17.7114554109 DL=  6.10e-06 (AVERGE_DL)=    0.0004669123 
ITERATION 120 : L=   17.7114611279 DL=  5.72e-06 (AVERGE_DL)=    0.0004518611 
ITERATION 121 : L=   17.7114664815 DL=  5.35e-06 (AVERGE_DL)=    0.0004372644 
ITERATION 122 : L=   17.7114714943 DL=  5.01e-06 (AVERGE_DL)=    0.0004231162 
ITERATION 123 : L=   17.7114761874 DL=  4.69e-06 (AVERGE_DL)=    0.0004094026 
ITERATION 124 : L=   17.7114805807 DL=  4.39e-06 (AVERGE_DL)=    0.0003961113 
ITERATION 125 : L=   17.7114846930 DL=  4.11e-06 (AVERGE_DL)=    0.0003832354 
ITERATION 126 : L=   17.7114885420 DL=  3.85e-06 (AVERGE_DL)=    0.0003707606 
ITERATION 127 : L=   17.7114921442 DL=  3.60e-06 (AVERGE_DL)=    0.0003586763 
MAXIMUM NO OF ITERATIONS EXCEEDED - LOCALIZATION NOT CONVERGED


--------------------------------------------------------------------------------
                    LOCALIZED MOLECULAR ORBITAL COMPOSITIONS
--------------------------------------------------------------------------------

The Mulliken populations for each LMO on each atom are computed
The LMO`s will be ordered according to atom index and type
  (A) Strongly localized MO`s have populations of >=0.950 on one atom
  (B) Two center bond orbitals have populations of >=0.850 on two atoms
  (C) Other MO`s are considered to be `delocalized`

FOUND  -   4 strongly local MO`s
       -   4 two center bond MO`s
       -   0 significantly delocalized MO`s

Rather strongly localized orbitals:
MO   5:   1S  -   0.998371
MO   4:   1S  -   0.998393
MO   3:   1S  -   0.998716
MO   2:   0Li -   1.011022
Bond-like localized orbitals:
MO   9:   1S  -   0.772172  and   0Li -   0.227828
MO   8:   1S  -   0.774111  and   0Li -   0.225889
MO   7:   1S  -   0.808196  and   0Li -   0.191804
MO   6:   1S  -   0.881324  and   0Li -   0.118676
Localized MO's were stored in: /cluster/projects/nn14654k/ylvaos/basis_set_n_funcs/functionals/gga_c_pbe/LiS/inp/LiS_gga_c_pbe_ccpvtz.loc
------------------------------------------------------------------------------
                           ORCA ORBITAL LOCALIZATION
------------------------------------------------------------------------------

Input orbitals are from                  ... /cluster/projects/nn14654k/ylvaos/basis_set_n_funcs/functionals/gga_c_pbe/LiS/inp/LiS_gga_c_pbe_ccpvtz.loc
Output orbitals are to                   ... /cluster/projects/nn14654k/ylvaos/basis_set_n_funcs/functionals/gga_c_pbe/LiS/inp/LiS_gga_c_pbe_ccpvtz.loc
Max. number of iterations                ... 128
Localizations seeded randomly            ... on
Convergence tolerance                    ... 1.000e-06
Threshold for strong local MOs           ... 9.500e-01
Threshold for bond MOs                   ... 8.500e-01
Operator                                 ... 1
Orbital range for localization           ... 2 to 8
Localization criterion                   ... NEW-BOYS
Doing the dipole integrals               ... o.k.
Initial value of the localization sum :    13.322571
ITERATION   0 : L=   16.6455975012 DL=  3.32e+00 (AVERGE_DL)=    0.3977931355 
ITERATION   1 : L=   17.1216228732 DL=  4.76e-01 (AVERGE_DL)=    0.1505585430 
ITERATION   2 : L=   17.1223213213 DL=  6.98e-04 (AVERGE_DL)=    0.0057670993 
ITERATION   3 : L=   17.1223832552 DL=  6.19e-05 (AVERGE_DL)=    0.0017173332 
ITERATION   4 : L=   17.1223833836 DL=  1.28e-07 (AVERGE_DL)=    0.0000781908 
LOCALIZATION SUM CONVERGED


--------------------------------------------------------------------------------
                    LOCALIZED MOLECULAR ORBITAL COMPOSITIONS
--------------------------------------------------------------------------------

The Mulliken populations for each LMO on each atom are computed
The LMO`s will be ordered according to atom index and type
  (A) Strongly localized MO`s have populations of >=0.950 on one atom
  (B) Two center bond orbitals have populations of >=0.850 on two atoms
  (C) Other MO`s are considered to be `delocalized`

FOUND  -   4 strongly local MO`s
       -   3 two center bond MO`s
       -   0 significantly delocalized MO`s

Rather strongly localized orbitals:
MO   5:   1S  -   0.998457
MO   4:   1S  -   0.999052
MO   3:   1S  -   0.998494
MO   2:   0Li -   1.011137
Bond-like localized orbitals:
MO   8:   1S  -   0.778503  and   0Li -   0.221497
MO   7:   1S  -   0.778502  and   0Li -   0.221498
MO   6:   1S  -   0.890236  and   0Li -   0.109764
Localized MO's were stored in: /cluster/projects/nn14654k/ylvaos/basis_set_n_funcs/functionals/gga_c_pbe/LiS/inp/LiS_gga_c_pbe_ccpvtz.loc

-------------------------   --------------------
FINAL SINGLE POINT ENERGY      -379.450800683052
-------------------------   --------------------



           ************************************************************
           *        Program running with 8 parallel MPI-processes     *
           *              working on a common directory               *
           ************************************************************

------------------------------------------------------------------------------
                              ORCA PROPERTY CALCULATIONS
------------------------------------------------------------------------------

GBWName                                 ... /cluster/projects/nn14654k/ylvaos/basis_set_n_funcs/functionals/gga_c_pbe/LiS/inp/LiS_gga_c_pbe_ccpvtz.gbw
Number of atoms                         ...      2
Number of basis functions               ...     96
Max core memory                         ...   4096 MB

Electric properties:
Dipole moment                           ... YES
Quadrupole moment                       ... YES
Static polarizability (Dipole/Dipole)   ...  NO
Static polarizability (Dipole/Quad.)    ...  NO
Static polarizability (Quad./Quad.)     ...  NO
Static polarizability (Velocity)        ...  NO
Static hyperpolarizability              ...  NO

Atomic electric properties:
Dipole moment                           ...  NO
Quadrupole moment                       ...  NO
Static polarizability                   ...  NO

Choice of electric origin               ... Center of mass
Position of electric origin             ...     0.000000     0.000000     1.308198

General magnetic properties:
Magnetizability                         ...  NO

EPR properties:
g-Tensor (aka g-matrix)                 ...  NO
Zero-Field splitting spin-orbit         ...  NO
Zero-field splitting spin-spin          ...  NO
Hyperfine couplings                     ...  NO (   0 nuclei)
Quadrupole couplings                    ...  NO (   0 nuclei)
Contact density                         ...  NO (   0 nuclei)

NMR properties:
Chemical shifts                         ...  NO (   0 nuclei)
Spin-rotation constants                 ...  NO (   0 nuclei)
Spin-spin couplings                     ...  NO (   0 nuclei,    0 pairs)

Choice of magnetic origin               ... GIAO
Position of magnetic origin             ...     0.000000     0.000000     0.000000

Properties with geometric perturbations:
SCF Hessian                             ...  NO
IR spectrum                             ...  NO
VCD spectrum                            ...  NO
X-ray spectroscopy properties:
SCF XES/XAS/RIXS spectra                ...  NO

SCF SOC stabilization energy            ...  NO
Diagonal Born-Oppenheimer correction    ...  NO

-------------
DIPOLE MOMENT
-------------

Method             : SCF
Type of density    : Electron Density
Multiplicity       :   2
Irrep              :   0
Energy             :  -379.4508006830521936 Eh
Basis              : AO
                                X                 Y                 Z
Electronic contribution:     -0.000000002      -0.000000005      -2.123701727
Nuclear contribution   :      0.000000000       0.000000000       1.549484202
                        -----------------------------------------
Total Dipole Moment    :     -0.000000002      -0.000000005      -0.574217525
                        -----------------------------------------
Magnitude (a.u.)       :      0.574217525
Magnitude (Debye)      :      1.459544956



--------------------
Rotational spectrum 
--------------------
 
Rotational constants in cm-1:             0.000000             0.639339             0.639339 
Rotational constants in MHz :             0.000000         19166.891897         19166.891897 

Dipole components along the rotational axes: 
x,y,z [a.u.] :    -0.574218    -0.000000    -0.000000 
x,y,z [Debye]:    -1.459545    -0.000000    -0.000000 

 

Dipole moment calculation done in   0.0 sec 

-----------------
QUADRUPOLE MOMENT
-----------------

Method             : SCF
Type of density    : Electron Density
Multiplicity       :   2
Irrep              :   0
Energy             :  -379.4508006830521936 Eh
Basis              : AO

                XX              YY              ZZ              XY              XZ              YZ
  NUC        0.000000000     0.000000000    41.817245673     0.000000000     0.000000000     0.000000000
  EL       -24.440809583   -21.390160669   -59.200775293    -2.134786383     0.000000012     0.000000016
  TOT      -24.440809583   -21.390160669   -17.383529619    -2.134786383     0.000000012     0.000000016 (a.u.)
           -32.873724765   -28.770497644   -23.381441855    -2.871360695     0.000000017     0.000000021 (Buckingham)

diagonalized tensor:
           -25.539209121   -20.291761132   -17.383529619 (a.u.)
           -34.351109709   -27.293112701   -23.381441855 (Buckingham)
           -18.027664862     3.146326162    14.881338700 (traceless form in Buckingham)

            -0.889201490    -0.457515803     0.000000001
            -0.457515803     0.889201490     0.000000004
             0.000000002    -0.000000003     1.000000000
        
Isotropic quadrupole :   -21.071499957

Quadrupole moment calculation done in   0.0 sec (  0.0 sec for integrals)

Maximum memory used throughout the entire PROP-calculation: 3.1 MB

--------------------------------
SUGGESTED CITATIONS FOR THIS RUN
--------------------------------

Below you find a list of papers that are relevant to this ORCA run
We neither can nor want to force you to cite these papers, but we appreciate if you do
You receive ORCA, which is the product of decades of hard work by many enthusiastic individuals, for free
The only thing we kindly ask in return is that you cite our papers,
We deeply appreciate it, if you show your appreciation for ORCA by not just citing the generic ORCA reference.

Please note that relegating all ORCA citations to the supporting information does *not* help us.
SI sections are not indexed - citations you put there will not count into any citation statistics
But we need these citations in order to attract the funding resources that allow us to do what we are doing

Therefore, if you are a happy ORCA user, please consider citing a few of the papers listed below in the main body of your paper

In addition to the list printed below, the program has created the file /cluster/projects/nn14654k/ylvaos/basis_set_n_funcs/functionals/gga_c_pbe/LiS/inp/LiS_gga_c_pbe_ccpvtz.bibtex that contains the list in bibtex format
You can import this file easily into all common literature databanks and citation aid programs

It goes without saying that in many instances, there are alternative algorithms to achieve similar
results as the ones you have gotten from ORCA. It is, of course, also the case that in some instances
ORCA just re-implements algorithms worked out by others. We are fully aware of that and we are also
fully appreciative of our colleagues work. Hence this citation list should not be read as indicating
that the listed papers, which are focused on our own work, are the only ones worth citing. It simply
meant to make it easier for users to cite ORCA specific papers. It is not a substitute for doing your
own literature research and citing the relevant literature in a scientifically appropriate manner.

List of essential papers. We consider these as the minimum necessary citations

  1. Neese, F.
     Software update: the ORCA program system, version 6.0
     WIRES Comput. Molec. Sci. 2025 15(1), e70019
     doi.org/10.1002/wcms.70019

List of papers to cite with high priority. The work reported in these papers was absolutely
necessary for this run to complete.
Our perspective: the developers of density functionals and basis sets usually get cited in chemistry papers
Good! But without the algorithms to do something with them, the functionals or basis sets would not do anything.
Hence, in our opinion, the algorithm design and method developments papers are equally worthy of getting cited

  1. Lehtola, S.; Steigemann, C.; Oliveira, M.; Marques, M.
     Recent developments in Libxc - A comprehensive library of functionals for density functional theory
     Software X 2018 7 , 
     doi.org/10.1016/j.softx.2017.11.002
  2. Neese, F.
     The SHARK Integral Generation and Digestion System
     J. Comp. Chem. 2022 44(3), 381
     doi.org/10.1002/jcc.26942

List of suggested additional citations. These are papers that are important in the 'surrounding' of 
of this run, or papers that preceded the highly important papers. If you like your results we are grateful for a citation.

  1. Neese, F.
     The ORCA program system
     WIRES Comput. Molec. Sci. 2012 2(1), 73-78
     doi.org/10.1002/wcms.81
  2. Neese, F.
     Software update: the ORCA program system, version 4.0
     WIRES Comput. Molec. Sci. 2018 8(1), 1-6
     doi.org/10.1002/wcms.1327
  3. Neese, F.; Wennmohs, F.; Becker, U.; Riplinger, C.
     The ORCA quantum chemistry program package
     J. Chem. Phys. 2020 152(22), 224108
     doi.org/10.1063/5.0004608
  4. Neese, F.
     Software update: The ORCA program system—Version 5.0
     WIRES Comput. Molec. Sci. 2022 12(1), e1606
     doi.org/10.1002/wcms.1606

List of optional additional citations

  1. Neese, F.
     Approximate second-order SCF convergence for spin unrestricted wavefunctions
     Chem. Phys. Lett. 2000 325(1-3), 93-98
     doi.org/10.1016/s0009-2614(00)00662-x

Timings for individual modules:

Sum of individual times          ...       10.458 sec (=   0.174 min)
Startup calculation              ...        1.573 sec (=   0.026 min)  15.0 %
SCF iterations                   ...        8.360 sec (=   0.139 min)  79.9 %
Property integrals               ...        0.267 sec (=   0.004 min)   2.5 %
Property calculations            ...        0.249 sec (=   0.004 min)   2.4 %
Orbital localization             ...        0.010 sec (=   0.000 min)   0.1 %
                             ****ORCA TERMINATED NORMALLY****
TOTAL RUN TIME: 0 days 0 hours 0 minutes 12 seconds 189 msec
