
                                 *****************
                                 * O   R   C   A *
                                 *****************

                                            #,                                       
                                            ###                                      
                                            ####                                     
                                            #####                                    
                                            ######                                   
                                           ########,                                 
                                     ,,################,,,,,                         
                               ,,#################################,,                 
                          ,,##########################################,,             
                       ,#########################################, ''#####,          
                    ,#############################################,,   '####,        
                  ,##################################################,,,,####,       
                ,###########''''           ''''###############################       
              ,#####''   ,,,,##########,,,,          '''####'''          '####       
            ,##' ,,,,###########################,,,                        '##       
           ' ,,###''''                  '''############,,,                           
         ,,##''                                '''############,,,,        ,,,,,,###''
      ,#''                                            '''#######################'''  
     '                                                          ''''####''''         
             ,#######,   #######,   ,#######,      ##                                
            ,#'     '#,  ##    ##  ,#'     '#,    #''#        ,####,    ,#,          
            ##       ##  ##   ,#'  ##            #'  '#       #'       ,# #          
            ##       ##  #######   ##           ,######,      #####,      #          
            '#,     ,#'  ##    ##  '#,     ,#' ,#      #,     #,   #      #          
             '#######'   ##     ##  '#######'  #'      '#     '####' #    #          



                #########################################################
                #                        -***-                          #
                #          Department of theory and spectroscopy        #
                #                                                       #
                #                      Frank Neese                      #
                #                                                       #
                #     Directorship, Architecture, Infrastructure        #
                #                    SHARK, DRIVERS                     #
                #        Core code/Algorithms in most modules           #
                #                                                       #
                #        Max Planck Institute fuer Kohlenforschung      #
                #                Kaiser Wilhelm Platz 1                 #
                #                 D-45470 Muelheim/Ruhr                 #
                #                      Germany                          #
                #                                                       #
                #                  All rights reserved                  #
                #                        -***-                          #
                #########################################################


                         Program Version 6.1.1  -  RELEASE   -
                                (GIT: $487d211c$)
                          ($2025-11-21 10:33:24 +0100$)


 With contributions from (in alphabetic order):
[Max-Planck-Institut fuer Kohlenforschung]                               
  Daniel Aravena         : Magnetic Suceptibility                        
  Michael Atanasov       : Ab Initio Ligand Field Theory (pilot matlab implementation)
  Alexander A. Auer      : GIAO ZORA, VPT2 properties, NMR spectrum      
  Ute Becker             : All parallelization in ORCA, NUMFREQ, NUMCALC 
  Giovanni Bistoni       : ED, misc. LED, open-shell LED, HFLD           
  Dmytro Bykov           : pre 5.0 version of the SCF Hessian            
  Marcos Casanova-Páez   : Triplet and SCS-CIS(D). UHF-(DLPNO)-IP/EA/STEOM-CCSD. UHF-CVS-IP/STEOM-CCSD   
  Vijay G. Chilkuri      : MRCI spin determinant printing, contributions to CSF-ICE 
  Pauline Colinet        : FMM embedding                                 
  Dipayan Datta          : RHF DLPNO-CCSD density                        
  Achintya Kumar Dutta   : EOM-CC, STEOM-CC                              
  Nicolas Foglia         : Exact transition moments, OPA infrastructure, MCD improvements    
  Dmitry Ganyushin       : Spin-Orbit,Spin-Spin,Magnetic field MRCI      
  Miquel Garcia-Rates    : C-PCM and meta-GGA Hessian, CCSD/C-PCM, Gaussian charge scheme 
  Tiago L. C. Gouveia    : GS-ROHF, GS-ROCIS                             
  Yang Guo               : DLPNO-NEVPT2, F12-NEVPT2, CIM, IAO-localization        
  Andreas Hansen         : Spin unrestricted coupled pair/coupled cluster methods 
  Ingolf Harden          : AUTO-CI MPn and infrastructure                
  Benjamin Helmich-Paris : MC-RPA, TRAH-(SCF,CASSCF), AVAS, COSX integrals, SCF dyn. polar., MC-PDFT, srDFT 
  Lee Huntington         : MR-EOM, pCC                                   
  Robert Izsak           : Overlap fitted RIJCOSX, COSX-SCS-MP3, EOM     
  Riya Kayal             : Wick's Theorem for AUTO-CI, AUTO-CI UHF-CCSDT 
  Emily Kempfer          : AUTO-CI RHF CISDT and CCSDT, approximate NEVPT4
  Christian Kollmar      : KDIIS, OOCD, Brueckner-CCSD(T), CCSD density, CASPT2, CASPT2-K, improved NEVPT2 
  Axel Koslowski         : Symmetry handling                             
  Simone Kossmann        : meta-GGA functionals, TD-DFT gradient, OOMP2, (MP2 Hessian; deprecated post 5.0) 
  Lucas Lang             : DCDCAS, Hyperfine gauge corrections, ICE-SOC+SSC
  Marvin Lechner         : AUTO-CI (C++ implementation), FIC-MRCC        
  Spencer Leger          : CASSCF response                               
  Dagmar Lenk            : GEPOL surface, SMD, ORCA-2-JSON               
  Dimitrios Liakos       : Extrapolation schemes; Compound Job, Property file
  Dimitrios Manganas     : Further ROCIS development; embedding schemes. LFT, Crystal Embedding 
  Dimitrios Pantazis     : SARC Basis sets                               
  Anastasios Papadopoulos: AUTO-CI, single reference methods and gradients 
  Taras Petrenko         : pre 6.0 DFT Hessian and TD-DFT gradient,  ECA, NRVS 
  Petra Pikulova         : Analytic Raman intensities                    
  Peter Pinski           : DLPNO-MP2, DLPNO-MP2 Gradient                 
  Shashank Vittal Rao    : ES-AILFT, MagRelax                            
  Christoph Reimann      : Effective Core Potentials                     
  Marius Retegan         : Local ZFS, SOC                                
  Christoph Riplinger    : Optimizer, TS searches, QM/MM, DLPNO-CCSD(T), (RO)-DLPNO pert. Triples 
  Michael Roemelt        : Original ROCIS implementation, recursive CI coupling coefficients
  Masaaki Saitow         : Open-shell DLPNO-CCSD energy and density      
  Barbara Sandhoefer     : DKH picture change effects                    
  Yorick L. A. Schmerwitz: GMF and freeze-and-release deltaSCF, NEB S-IDPP initial path                    
  Kantharuban Sivalingam : CASSCF convergence/infrastructure, NEVPT2, NEVPT3, NEVPT4(SD), FIC-MRCI and CEPA variants
  Bernardo de Souza      : ESD, SOC TD-DFT                               
  Georgi L. Stoychev     : AutoAux, RI-MP2 NMR, DLPNO-MP2 response, X2C  
  Van Anh Tran           : RI-MP2 g-tensors                              
  Willem Van den Heuvel  : Paramagnetic NMR                              
  Zikuan Wang            : NOTCH, Electric field optimization            
  Frank Wennmohs         : Technical directorship and infrastructure     
  Hang Xu                : AUTO-CI-Response properties                   
                                                                         
[FACCTs GmbH]                                                            
  Markus Bursch, Nicolas Foglia, Miquel Garcia-Rates, Ingolf Harden, Hagen Neugebauer, Anastasios Papadopoulos, 
  Christoph Riplinger, Bernardo de Souza, Georgi L. Stoychev                                                    
                                                                 
  APM, various basis sets, CI-OPT, improved COSX, DLPNO-Multilevel,           
  DOCKER, DRACO, updates on ESD, Fragmentator, GOAT, IRC, LR-CPCM, L-BFGS, MBIS, meta-GGA TD-DFT gradient, ML-optimized integration grids, 
  MM, NACMEs, nearIR, NEB, NEB-TS, NL-DFT gradient (VV10), 2- and 3-layer-ONIOM, interface openCOSMO-RS, QMMM,   
  Crystal-QMMM, RESP, rigid body optimization, SF, symmetry and pop. for TD-DFT, various functionals, SOLVATOR                                   
                                                                         
[Other institutions]                                                     
  V. Asgeirsson          : NEB                                           
  Christoph Bannwarth    : sTDA-DFT, sTD-DFT, PBEh-3c, B97-3c, D3        
  Giovanni Bistoni       : ETS/NOCV, ADLD/ADEX, COVALED                  
  Martin Brehm           : Molecular dynamics                            
  Ronald Cardenas        : ETS/NOCV                                      
  Martina Colucci        : COVALED                                       
  Sebastian Ehlert       : rSCAN, r2SCAN, r2SCAN-3c, D4, dhf basis sets  
  Marvin Friede          : D4 for Fr, Ra, Ac-Lr                          
  Lars Goerigk           : TD-DFT with DH, B97 family of functionals     
  Stefan Grimme          : VdW corrections, initial TS optimization, DFT functionals, gCP, sTDA/sTD-DF 
  Waldemar Hujo          : DFT-NL                                        
  H. Jonsson             : NEB                                           
  Holger Kruse           : gCP                                           
  Marcel Mueller         : wB97X-3c, vDZP basis set                      
  Hagen Neugebauer       : wr2SCAN, Native XTB                           
  Gianluca Regni         : ADLD/ADEX                                     
  Tobias Risthaus        : pre 6.0 range-separated hybrid DFT and stability analysis
  Lukas Wittmann         : regularized MP2, r2SCAN double-hybrids, wr2SCAN        
                                                                         
We gratefully acknowledge several colleagues who have allowed us to      
interface, adapt or use parts of their codes:                            
  Ed Valeev, F. Pavosevic, A. Kumar             : LibInt (2-el integral package), F12 methods 
  Garnet Chan, S. Sharma, J. Yang, R. Olivares  : DMRG                   
  Ulf Ekstrom                                   : XCFun DFT Library      
  Mihaly Kallay                                 : mrcc  (arbitrary order and MRCC methods)
  Frank Weinhold                                : gennbo (NPA and NBO analysis)           
  Simon Mueller                                 : openCOSMO-RS                            
  Christopher J. Cramer and Donald G. Truhlar   : smd solvation model                     
  S Lehtola, MJT Oliveira, MAL Marques          : LibXC Library                           
  Liviu Ungur et al                             : ANISO software                          


 Your calculation uses the libint2 library for the computation of 2-el integrals
 For citations please refer to: http://libint.valeyev.net

 Your ORCA version has been built with support for libXC version: 7.0.0
 For citations please refer to: https://libxc.gitlab.io

 This ORCA versions uses:
   CBLAS   interface :  Fast vector & matrix operations
   LAPACKE interface :  Fast linear algebra routines
   SCALAPACK package :  Parallel linear algebra routines
   Shared memory     :  Shared parallel matrices
   BLAS/LAPACK       :  OpenBLAS 0.3.29  USE64BITINT DYNAMIC_ARCH NO_AFFINITY Cooperlake SINGLE_THREADED
        Core in use  :  Cooperlake
   Copyright (c) 2011-2014, The OpenBLAS Project


  ***********************************
  * Starting time: Wed May 20 12:35:45 2026
  * Host name:     c1-51
  * Process ID:    2960374
  * Working dir.:  /cluster/projects/nn14654k/ylvaos/basis_set_n_funcs/functionals/gga_c_pbe/LiS/out
  ***********************************

Using LibXC functional ID 130 : Perdew, Burke & Ernzerhof
[ 1]  J. P. Perdew, K. Burke, and M. Ernzerhof.,  Phys. Rev. Lett. 77, 3865 (1996)
[ 2]  J. P. Perdew, K. Burke, and M. Ernzerhof.,  Phys. Rev. Lett. 78, 1396 (1997)
Using LibXC functional ID 130 : Perdew, Burke & Ernzerhof
[ 1]  J. P. Perdew, K. Burke, and M. Ernzerhof.,  Phys. Rev. Lett. 77, 3865 (1996)
[ 2]  J. P. Perdew, K. Burke, and M. Ernzerhof.,  Phys. Rev. Lett. 78, 1396 (1997)
Your calculation utilizes LibXC
by S. Lehtola, C. Steigemann, M. J. T. Oliveira & M. A. L. Marques
Please cite in your paper:
Lehtola, S.; Steigemann, C.; Oliveira, M.J.T.; Marques, M. A. L. Software X, 7, (2018), 1.
   

================================================================================

----- Orbital basis set information -----
Your calculation utilizes the basis: def2-SVP
   F. Weigend and R. Ahlrichs, Phys. Chem. Chem. Phys. 7, 3297 (2005).

================================================================================
                                        WARNINGS
                       Please study these warnings very carefully!
================================================================================


WARNING: your system is open-shell and RHF/RKS was chosen
  ===> : WILL SWITCH to UHF/UKS


================================================================================
                                       INPUT FILE
================================================================================
NAME = /cluster/projects/nn14654k/ylvaos/basis_set_n_funcs/functionals/gga_c_pbe/LiS/inp/LiS_gga_c_pbe_def2svp.inp
|  1> ! dft def2-SVP TightSCF
|  2> %pal nprocs 8 end
|  3> 
|  4> %loc
|  5>   LocMet NewBoys
|  6>   Occ true
|  7> end
|  8> 
|  9> %method
| 10>   exchange None
| 11>   correlation gga_c_pbe
| 12> end
| 13> 
| 14> %elprop
| 15>   Dipole true
| 16>   Quadrupole true
| 17> end
| 18> 
| 19> * xyz 0 2
| 20> Li    0.000000000000   0.000000000000  -1.074850000000
| 21> S    0.000000000000   0.000000000000   1.074850000000
| 22> *
| 23> 
| 24> 
| 25>                          ****END OF INPUT****
================================================================================

                       ****************************
                       * Single Point Calculation *
                       ****************************

---------------------------------
CARTESIAN COORDINATES (ANGSTROEM)
---------------------------------
  Li     0.000000    0.000000   -1.074850
  S      0.000000    0.000000    1.074850

----------------------------
CARTESIAN COORDINATES (A.U.)
----------------------------
  NO LB      ZA    FRAG     MASS         X           Y           Z
   0 Li    3.0000    0     6.941    0.000000    0.000000   -2.031172
   1 S    16.0000    0    32.060    0.000000    0.000000    2.031172

--------------------------------
INTERNAL COORDINATES (ANGSTROEM)
--------------------------------
 Li     0   0   0     0.000000000000     0.00000000     0.00000000
 S      1   0   0     2.149700000000     0.00000000     0.00000000

---------------------------
INTERNAL COORDINATES (A.U.)
---------------------------
 Li     0   0   0     0.000000000000     0.00000000     0.00000000
 S      1   0   0     4.062344270091     0.00000000     0.00000000

---------------------
BASIS SET INFORMATION
---------------------
There are 2 groups of distinct atoms

 Group   1 Type Li  : 7s3p contracted to 3s2p pattern {511/21}
 Group   2 Type S   : 10s7p1d contracted to 4s3p1d pattern {5311/511/1}

Atom   0Li   basis set group =>   1
Atom   1S    basis set group =>   2


           ************************************************************
           *        Program running with 8 parallel MPI-processes     *
           *              working on a common directory               *
           ************************************************************
------------------------------------------------------------------------------
                             ORCA STARTUP CALCULATIONS
------------------------------------------------------------------------------
------------------------------------------------------------------------------
                   ___                                                        
                  /   \      - P O W E R E D   B Y -                         
                 /     \                                                     
                 |  |  |   _    _      __       _____    __    __             
                 |  |  |  | |  | |    /  \     |  _  \  |  |  /  |          
                  \  \/   | |  | |   /    \    | | | |  |  | /  /          
                 / \  \   | |__| |  /  /\  \   | |_| |  |  |/  /          
                |  |  |   |  __  | /  /__\  \  |    /   |      \           
                |  |  |   | |  | | |   __   |  |    \   |  |\   \          
                \     /   | |  | | |  |  |  |  | |\  \  |  | \   \       
                 \___/    |_|  |_| |__|  |__|  |_| \__\ |__|  \__/        
                                                                              
                      - O R C A' S   B I G   F R I E N D -                    
                                      &                                       
                       - I N T E G R A L  F E E D E R -                       
                                                                              
 v1 FN, 2020, v2 2021, v3 2022-2024                                           
------------------------------------------------------------------------------


----------------------
SHARK INTEGRAL PACKAGE
----------------------

Number of atoms                             ...      2
Number of basis functions                   ...     27
Number of shells                            ...     13
Maximum angular momentum                    ...      2
Integral batch strategy                     ... SHARK/LIBINT Hybrid
RI-J (if used) integral strategy            ... SPLIT-RIJ (Revised 2003 algorithm where possible)
Printlevel                                  ...      1
Contraction scheme used                     ... SEGMENTED contraction
Prescreening option                         ... SCHWARTZ
   Thresh                                   ... 2.500e-11
   Tcut                                     ... 2.500e-12
   Tpresel                                  ... 2.500e-12 
Coulomb Range Separation                    ... NOT USED
Exchange Range Separation                   ... NOT USED
Multipole approximations                    ... NOT USED
Finite Nucleus Model                        ... NOT USED
CABS basis                                  ... NOT available
Auxiliary Coulomb fitting basis             ... NOT available
Auxiliary J/K fitting basis                 ... NOT available
Auxiliary Correlation fitting basis         ... NOT available
Auxiliary 'external' fitting basis          ... NOT available

Checking pre-screening integrals            ... done (  0.0 sec) Dimension = 13
   => SHARK Basis and OBASIS are compatible. Storing Pre-screening
Shell pair information
Shell pair cut-off parameter TPreSel        ...   2.5e-12
Total number of shell pairs                 ...        91
Shell pairs after pre-screening             ...        91
Total number of primitive shell pairs       ...       440
Primitive shell pairs kept                  ...       393
          la=0 lb=0:     28 shell pairs
          la=1 lb=0:     35 shell pairs
          la=1 lb=1:     15 shell pairs
          la=2 lb=0:      7 shell pairs
          la=2 lb=1:      5 shell pairs
          la=2 lb=2:      1 shell pairs

Checking whether 4 symmetric matrices of dimension 27 fit in memory
:Max Core in MB      =   4096.00
 MB in use           =      1.28
 MB left             =   4094.72
 MB needed           =      0.01
 Data fit in memory  = YES
Calculating Nuclear repulsion               ... done (  0.0 sec) ENN=     11.815837557985 Eh

Diagonalization of the overlap matrix:
Smallest eigenvalue                        ... 4.017e-02
Time for diagonalization                   ...    0.000 sec
Threshold for overlap eigenvalues          ... 1.000e-07
Number of eigenvalues below threshold      ... 0
Time for construction of square roots      ...    0.001 sec
Total time needed                          ...    0.004 sec

-------------------
DFT GRID GENERATION
-------------------

General Integration Accuracy     IntAcc      ... 4.388
Radial Grid Type                 RadialGrid  ... OptM3 with GC (2021)
Angular Grid (max. ang.)         AngularGrid ... 4 (Lebedev-302)
Angular grid pruning method      GridPruning ... 4 (adaptive)
Weight generation scheme         WeightScheme... mBecke (2022)
Basis function cutoff            BFCut       ... 1.0000e-11
Integration weight cutoff        WCut        ... 1.0000e-14
Partially contracted basis set               ... off
Rotationally invariant grid construction     ... off
Angular grids for H and He will be reduced by one unit

Total number of grid points                  ...    13486
Total number of batches                      ...      212
Average number of points per batch           ...       63
Average number of grid points per atom       ...     6743
Grids setup in   0.0 sec
Initializing property integral containers    ... done (  0.0 sec)

SHARK setup successfully completed in   0.1 seconds

Maximum memory used throughout the entire STARTUP-calculation: 6.8 MB


           ************************************************************
           *        Program running with 8 parallel MPI-processes     *
           *              working on a common directory               *
           ************************************************************
-------------------------------------------------------------------------------
                                 ORCA GUESS
                   Start orbitals & Density for SCF / CASSCF
-------------------------------------------------------------------------------

------------
SCF SETTINGS
------------
Hamiltonian:
 Density Functional     Method          .... DFT(GTOs)
 Exchange Functional    Exchange        .... no Exchange
  Functional kind                       .... Correlation
  Functional name                       .... Perdew, Burke & Ernzerhof
  Functional family                     .... GGA
  Functional refs                              
    [ 0] J. P. Perdew, K. Burke, and M. Ernzerhof.,  Phys. Rev. Lett. 77, 3865 (1996), doi: 10.1103/PhysRevLett.77.3865
    [ 1] J. P. Perdew, K. Burke, and M. Ernzerhof.,  Phys. Rev. Lett. 78, 1396 (1997), doi: 10.1103/PhysRevLett.78.1396
  Functional external parameters        .... 3
    Parameter  0 _beta      =  6.672455e-02 : beta constant       
    Parameter  1 _gamma     =  3.109069e-02 : (1 - ln(2))/Pi^2 in the PBE
    Parameter  2 _B         =  1.000000e+00 : Multiplies the A t^2 term. Used in the SPBE functional
 Gradients option       PostSCFGGA      .... off


General Settings:
 Integral files         IntName         .... /cluster/projects/nn14654k/ylvaos/basis_set_n_funcs/functionals/gga_c_pbe/LiS/inp/LiS_gga_c_pbe_def2svp
 Hartree-Fock type      HFTyp           .... UHF
 Total Charge           Charge          ....    0
 Multiplicity           Mult            ....    2
 Number of Electrons    NEL             ....   19
 Basis Dimension        Dim             ....   27
 Nuclear Repulsion      ENuc            ....     11.8158375580 Eh

Convergence Acceleration:
 AO-DIIS                CNVDIIS         .... on
   Start iteration      DIISMaxIt       ....    12
   Startup error        DIISStart       ....  0.200000
   # of expansion vecs  DIISMaxEq       ....     5
   Bias factor          DIISBfac        ....   1.050
   Max. coefficient     DIISMaxC        ....  10.000
 MO-DIIS                CNVKDIIS        .... off
 Trust-Rad. Augm. Hess. CNVTRAH         .... auto
   Auto Start mean grad. ratio tolernc. ....  1.125000
   Auto Start start iteration           ....    50
   Auto Start num. interpolation iter.  ....    10
   Max. Number of Micro iterations      ....    24
   Max. Number of Macro iterations      .... Maxiter - #DIIS iter
   Number of Davidson start vectors     ....     2
   Converg. threshold    (grad. norm)   ....   1.000e-05
   Grad. Scal. Fac. for Micro threshold ....   0.100
   Minimum threshold for Micro iter.    ....   1.000e-02
   NR start threshold (gradient norm)   ....   1.000e-04
   Initial trust radius                 ....   0.400
   Minimum AH scaling param. (alpha)    ....   1.000
   Maximum AH scaling param. (alpha)    .... 1000.000
   Quad. conv. algorithm                .... NR
   White noise on init. David. guess    .... on
   Maximum white noise                  ....   0.010
   Pseudo random numbers                .... off
   Inactive MOs                         .... canonical
   Orbital update algorithm             .... Taylor
   Preconditioner                       .... Diag
   Full preconditioner red. dimension   ....   250
 SOSCF                 CNVSOSCF           .... on
   Start iteration     SOSCFMaxIt         ....   150
   Startup grad/error  SOSCFStart         ....  0.003300
   Hessian update      SOSCFHessUp        .... L-BFGS
   Autom. constraints  SOSCFAutoConstrain .... off
 Level Shifting         CNVShift        .... on
   Level shift para.    LevelShift      ....    0.2500
   Turn off err/grad.   ShiftErr        ....    0.0010
 Zerner damping         CNVZerner       .... off
 Static damping         CNVDamp         .... on
   Fraction old density DampFac         ....    0.7000
   Max. Damping (<1)    DampMax         ....    0.9800
   Min. Damping (>=0)   DampMin         ....    0.0000
   Turn off err/grad.   DampErr         ....    0.1000

SCF Procedure:
 Maximum # iterations   MaxIter         ....   125
 SCF integral mode      SCFMode         .... Direct
   Integral package                     .... SHARK and LIBINT hybrid scheme
 Reset frequency        DirectResetFreq ....    20
 Integral Threshold     Thresh          ....  2.500e-11 Eh
 Primitive CutOff       TCut            ....  2.500e-12 Eh

Convergence Tolerance:
 Convergence Check Mode ConvCheckMode   .... Total+1el-Energy
 Convergence forced     ConvForced      .... 0
 Energy Change          TolE            ....  1.000e-08 Eh
 1-El. energy change                    ....  1.000e-05 Eh
 Orbital Gradient       TolG            ....  1.000e-05
 Orbital Rotation angle TolX            ....  1.000e-05
 DIIS Error             TolErr          ....  5.000e-07

------------------------------
INITIAL GUESS: MODEL POTENTIAL
------------------------------
Loading Hartree-Fock densities                     ... done
Calculating cut-offs                               ... done
Initializing the effective Hamiltonian             ... done
Setting up the integral package (SHARK)            ... done
Starting the Coulomb interaction                   ... done (   0.0 sec)
Making the grid                                    ... done (   0.0 sec)
Mapping shells                                     ... done
Starting the XC term evaluation                    ... done (   0.0 sec)
  promolecular density results
     # of electrons  =     18.999659774
     EX              =      0.000000000
     EC              =     -0.660301260
     EX+EC           =     -0.660301260
Transforming the Hamiltonian                       ... done (   0.0 sec)
Diagonalizing the Hamiltonian                      ... done (   0.0 sec)
Back transforming the eigenvectors                 ... done (   0.0 sec)
Now organizing SCF variables                       ... done
                      ------------------
                      INITIAL GUESS DONE (   0.0 sec)
                      ------------------
             **** ENERGY FILE WAS UPDATED (/cluster/projects/nn14654k/ylvaos/basis_set_n_funcs/functionals/gga_c_pbe/LiS/inp/LiS_gga_c_pbe_def2svp.en.tmp) ****
Finished Guess after   0.1 sec
Maximum memory used throughout the entire GUESS-calculation: 3.5 MB


           ************************************************************
           *        Program running with 8 parallel MPI-processes     *
           *              working on a common directory               *
           ************************************************************

-------------------------------------------------------------------------------------------
                                      ORCA LEAN-SCF
                              memory conserving SCF solver
-------------------------------------------------------------------------------------------

----------------------------------------D-I-I-S--------------------------------------------
Iteration    Energy (Eh)           Delta-E    RMSDP     MaxDP     DIISErr   Damp  Time(sec)
-------------------------------------------------------------------------------------------
               ***  Starting incremental Fock matrix formation  ***
    1    -377.5047625696055320     0.00e+00  1.09e-01  5.58e-01  3.61e-01  0.700   0.1
Warning: op=1 Small HOMO/LUMO gap (  -0.054) - skipping pre-diagonalization
         Will do a full diagonalization
    2    -378.4394649594239581    -9.35e-01  7.27e-02  3.92e-01  1.62e-01  0.700   0.2
                               ***Turning on AO-DIIS***
    3    -378.7600839141572919    -3.21e-01  5.09e-02  2.75e-01  5.77e-02  0.700   0.2
    4    -378.8892175852386117    -1.29e-01  1.19e-01  6.38e-01  4.58e-02  0.000   0.2
    5    -379.0099903085714459    -1.21e-01  3.10e-02  8.42e-02  5.67e-02  0.000   0.2
    6    -379.0577545509179345    -4.78e-02  1.28e-02  4.06e-02  3.88e-02  0.000   0.2
    7    -379.0664265620304150    -8.67e-03  4.90e-03  1.50e-02  3.13e-02  0.000   0.2
    8    -379.0705159402039612    -4.09e-03  3.91e-03  1.27e-02  2.64e-02  0.000   0.2
    9    -379.0734763179471543    -2.96e-03  3.20e-03  1.01e-02  2.15e-02  0.000   0.2
   10    -379.0755388765924749    -2.06e-03  3.41e-03  9.47e-03  1.72e-02  0.000   0.2
   11    -379.0774240134141451    -1.89e-03  2.84e-03  9.39e-03  1.14e-02  0.000   0.2
   12    -379.0782644573039306    -8.40e-04  2.56e-03  1.11e-02  7.69e-03  0.000   0.1
   13    -379.0787582845332508    -4.94e-04  2.84e-03  1.34e-02  5.08e-03  0.000   0.2
   14    -379.0791079070275487    -3.50e-04  3.24e-03  1.55e-02  4.01e-03  0.000   0.2
   15    -379.0794518860929543    -3.44e-04  3.70e-03  1.77e-02  4.19e-03  0.000   0.2
   16    -379.0798428679515837    -3.91e-04  4.22e-03  2.01e-02  4.36e-03  0.000   0.2
   17    -379.0803098407887433    -4.67e-04  4.78e-03  2.24e-02  4.39e-03  0.000   0.2
   18    -379.0808582978668824    -5.48e-04  5.39e-03  2.47e-02  4.31e-03  0.000   0.2
   19    -379.0814901519164550    -6.32e-04  6.01e-03  2.68e-02  3.98e-03  0.000   0.1
   20    -379.0821752127769173    -6.85e-04  6.73e-03  2.89e-02  4.61e-03  0.000   0.1
               *** Restarting incremental Fock matrix formation ***
                             ****Resetting DIIS****
Warning: op=0 Small HOMO/LUMO gap (  -0.014) - skipping pre-diagonalization
         Will do a full diagonalization
   21    -379.0828358133367715    -6.61e-04  2.18e-02  7.78e-02  6.45e-03  0.000   0.1
   22    -379.0841425787253343    -1.31e-03  1.00e-02  4.60e-02  8.35e-03  0.000   0.1
   23    -379.0854169427026363    -1.27e-03  5.37e-03  2.70e-02  4.72e-03  0.000   0.1
   24    -379.0854866553934812    -6.97e-05  2.47e-03  9.84e-03  3.65e-03  0.000   0.2
                              *** Initializing SOSCF ***
---------------------------------------S-O-S-C-F--------------------------------------
Iteration    Energy (Eh)           Delta-E    RMSDP     MaxDP     MaxGrad    Time(sec)
--------------------------------------------------------------------------------------
   25    -379.0856224993813726    -1.36e-04  1.20e-03  5.97e-03  1.77e-03     0.2
               *** Restarting incremental Fock matrix formation ***
   26    -379.0856662933494476    -4.38e-05  8.92e-04  4.54e-03  7.26e-04     0.2
   27    -379.0856685450489181    -2.25e-06  6.97e-04  3.81e-03  9.31e-04     0.1
   28    -379.0856789164011502    -1.04e-05  1.91e-03  9.90e-03  4.96e-04     0.1
   29    -379.0856908521988657    -1.19e-05  4.13e-03  2.23e-02  5.13e-04     0.1
   30    -379.0857055520220911    -1.47e-05  2.91e-03  1.51e-02  7.03e-04     0.1
   31    -379.0857142365242680    -8.68e-06  1.63e-03  7.83e-03  4.34e-04     0.1
   32    -379.0857183753431059    -4.14e-06  3.04e-04  1.69e-03  1.33e-04     0.1
   33    -379.0857188487316307    -4.73e-07  2.01e-04  1.07e-03  7.14e-05     0.1
   34    -379.0857189792617419    -1.31e-07  6.16e-05  3.04e-04  4.19e-05     0.1
   35    -379.0857190002952279    -2.10e-08  1.61e-05  1.05e-04  7.80e-06     0.1
   36    -379.0857190013479112    -1.05e-09  5.58e-06  3.48e-05  2.65e-06     0.2
                 **** Energy Check signals convergence ****

               *****************************************************
               *                     SUCCESS                       *
               *           SCF CONVERGED AFTER  36 CYCLES          *
               *****************************************************

             **** ENERGY FILE WAS UPDATED (/cluster/projects/nn14654k/ylvaos/basis_set_n_funcs/functionals/gga_c_pbe/LiS/inp/LiS_gga_c_pbe_def2svp.en.tmp) ****

----------------
TOTAL SCF ENERGY
----------------

Total Energy       :       -379.08571900143454 Eh          -10315.44684 eV

Components:
Nuclear Repulsion  :         11.81583755798484 Eh             321.52529 eV
Electronic Energy  :       -390.90155655941930 Eh          -10636.97213 eV
One Electron Energy:       -574.24489950526345 Eh          -15625.99813 eV
Two Electron Energy:        183.34334294584411 Eh            4989.02600 eV

Virial components:
Potential Energy   :       -773.61551383342101 Eh          -21051.14835 eV
Kinetic Energy     :        394.52979483198646 Eh           10735.70151 eV
Virial Ratio       :          1.96085447529475

DFT components:
N(Alpha)           :        9.999927591176 electrons
N(Beta)            :        8.999961129162 electrons
N(Total)           :       18.999888720338 electrons
E(X)               :        0.000000000000 Eh       
E(C)               :       -0.648614306005 Eh       
E(XC)              :       -0.648614306005 Eh       

---------------
SCF CONVERGENCE
---------------

  Last Energy change         ...    1.0527e-09  Tolerance :   1.0000e-08
  Last MAX-Density change    ...    3.4828e-05  Tolerance :   1.0000e-07
  Last RMS-Density change    ...    5.5751e-06  Tolerance :   5.0000e-09
  Last DIIS Error            ...    1.7715e-03  Tolerance :   5.0000e-07
  Last Orbital Gradient      ...    2.6549e-06  Tolerance :   1.0000e-05
  Last Orbital Rotation      ...    1.5535e-05  Tolerance :   1.0000e-05


----------------------
UHF SPIN CONTAMINATION
----------------------

Warning: in a DFT calculation there is little theoretical justification to 
         calculate <S**2> as in Hartree-Fock theory. We will do it anyways
         but you should keep in mind that the values have only limited relevance

Expectation value of <S**2>     :     0.765306
Ideal value S*(S+1) for S=0.5   :     0.750000
Deviation                       :     0.015306

----------------
ORBITAL ENERGIES
----------------
                 SPIN UP ORBITALS
  NO   OCC          E(Eh)            E(eV) 
   0   1.0000     -82.701892     -2250.4329 
   1   1.0000      -6.378158      -173.5585 
   2   1.0000      -4.424272      -120.3906 
   3   1.0000      -4.414245      -120.1177 
   4   1.0000      -4.411216      -120.0353 
   5   1.0000      -0.979983       -26.6667 
   6   1.0000      -0.295591        -8.0434 
   7   1.0000      -0.002296        -0.0625 
   8   1.0000       0.016598         0.4517 
   9   1.0000       0.026217         0.7134 
  10   0.0000       0.017469         0.4753 
  11   0.0000       0.130589         3.5535 
  12   0.0000       0.135832         3.6962 
  13   0.0000       0.148382         4.0377 
  14   0.0000       0.252556         6.8724 
  15   0.0000       0.643894        17.5212 
  16   0.0000       0.666539        18.1374 
  17   0.0000       0.716590        19.4994 
  18   0.0000       0.724272        19.7084 
  19   0.0000       0.851461        23.1694 
  20   0.0000       0.851683        23.1755 

                 SPIN DOWN ORBITALS
  NO   OCC          E(Eh)            E(eV) 
   0   1.0000     -82.701994     -2250.4357 
   1   1.0000      -6.378567      -173.5696 
   2   1.0000      -4.425223      -120.4164 
   3   1.0000      -4.414480      -120.1241 
   4   1.0000      -4.411509      -120.0433 
   5   1.0000      -0.980186       -26.6722 
   6   1.0000      -0.302105        -8.2207 
   7   1.0000       0.013474         0.3666 
   8   1.0000       0.022882         0.6227 
   9   0.0000      -0.013577        -0.3694 
  10   0.0000       0.015081         0.4104 
  11   0.0000       0.127234         3.4622 
  12   0.0000       0.128340         3.4923 
  13   0.0000       0.145527         3.9600 
  14   0.0000       0.248607         6.7650 
  15   0.0000       0.640693        17.4342 
  16   0.0000       0.662545        18.0288 
  17   0.0000       0.713594        19.4179 
  18   0.0000       0.723233        19.6802 
  19   0.0000       0.841980        22.9114 
*Only the first 10 virtual orbitals were printed.

                    ********************************
                    * MULLIKEN POPULATION ANALYSIS *
                    ********************************

--------------------------------------------
MULLIKEN ATOMIC CHARGES AND SPIN POPULATIONS
--------------------------------------------
   0 Li:   -0.131440    0.231737
   1 S :    0.131440    0.768263
Sum of atomic charges         :   -0.0000000
Sum of atomic spin populations:    1.0000000

-----------------------------------------------------
MULLIKEN REDUCED ORBITAL CHARGES AND SPIN POPULATIONS
-----------------------------------------------------
CHARGE
  0 Lis       :     2.498222  s :     2.498222
      pz      :     0.075637  p :     0.633219
      px      :     0.166789
      py      :     0.390792

  1 S s       :     5.958513  s :     5.958513
      pz      :     3.465097  p :     9.905743
      px      :     2.878137
      py      :     3.562510
      dz2     :     0.001658  d :     0.004303
      dxz     :     0.000630
      dyz     :     0.001143
      dx2y2   :     0.000721
      dxy     :     0.000152


SPIN
  0 Lis       :     0.083476  s :     0.083476
      pz      :    -0.009775  p :     0.148262
      px      :     0.148402
      py      :     0.009634

  1 S s       :    -0.002702  s :    -0.002702
      pz      :    -0.070676  p :     0.770686
      px      :     0.805466
      py      :     0.035897
      dz2     :    -0.000111  d :     0.000278
      dxz     :     0.000576
      dyz     :     0.000024
      dx2y2   :    -0.000174
      dxy     :    -0.000037



                     *******************************
                     * LOEWDIN POPULATION ANALYSIS *
                     *******************************

-------------------------------------------
LOEWDIN ATOMIC CHARGES AND SPIN POPULATIONS
-------------------------------------------
   0 Li:   -0.406947    0.247288
   1 S :    0.406947    0.752712

----------------------------------------------------
LOEWDIN REDUCED ORBITAL CHARGES AND SPIN POPULATIONS
----------------------------------------------------
CHARGE
  0 Lis       :     2.573969  s :     2.573969
      pz      :     0.243922  p :     0.832978
      px      :     0.179306
      py      :     0.409750

  1 S s       :     5.752050  s :     5.752050
      pz      :     3.427475  p :     9.836610
      px      :     2.865645
      py      :     3.543491
      dz2     :     0.001712  d :     0.004392
      dxz     :     0.000604
      dyz     :     0.001203
      dx2y2   :     0.000721
      dxy     :     0.000152


SPIN
  0 Lis       :     0.087279  s :     0.087279
      pz      :    -0.010258  p :     0.160009
      px      :     0.160194
      py      :     0.010073

  1 S s       :     0.001407  s :     0.001407
      pz      :    -0.078081  p :     0.751077
      px      :     0.793703
      py      :     0.035456
      dz2     :    -0.000136  d :     0.000228
      dxz     :     0.000548
      dyz     :     0.000027
      dx2y2   :    -0.000174
      dxy     :    -0.000037



                      *****************************
                      * MAYER POPULATION ANALYSIS *
                      *****************************

  NA   - Mulliken gross atomic population
  ZA   - Total nuclear charge
  QA   - Mulliken gross atomic charge
  VA   - Mayer's total valence
  BVA  - Mayer's bonded valence
  FA   - Mayer's free valence

  ATOM       NA         ZA         QA         VA         BVA        FA
  0 Li     3.1314     3.0000    -0.1314     1.7791     1.7451     0.0339
  1 S     15.8686    16.0000     0.1314     2.4638     1.7451     0.7187

  Mayer bond orders larger than 0.100000
B(  0-Li,  1-S ) :   1.7451 

-------
TIMINGS
-------

Total SCF time: 0 days 0 hours 0 min 5 sec 

Total time                  ....       5.292 sec
Sum of individual times     ....       5.127 sec  ( 96.9%)

SCF preparation             ....       0.057 sec  (  1.1%)
Fock matrix formation       ....       2.539 sec  ( 48.0%)
  Startup                   ....       0.042 sec  (  1.7% of F)
  Coulomb formation         ....       0.057 sec  (  2.3% of F)
  XC integration            ....       1.045 sec  ( 41.1% of F)
    XC Preparation          ....       0.000 sec  (  0.0% of XC)
    Basis function eval.    ....       0.021 sec  (  2.0% of XC)
    Density eval.           ....       0.012 sec  (  1.1% of XC)
    XC-Functional eval.     ....       0.023 sec  (  2.2% of XC)
    XC-Potential eval.      ....       0.015 sec  (  1.4% of XC)
Diagonalization             ....       0.000 sec  (  0.0%)
Density matrix formation    ....       0.550 sec  ( 10.4%)
Total Energy calculation    ....       0.125 sec  (  2.4%)
Population analysis         ....       0.012 sec  (  0.2%)
Orbital Transformation      ....       0.040 sec  (  0.8%)
Orbital Orthonormalization  ....       0.000 sec  (  0.0%)
DIIS solution               ....       1.534 sec  ( 29.0%)
SOSCF solution              ....       0.269 sec  (  5.1%)
Finished LeanSCF after   5.4 sec

Maximum memory used throughout the entire LEANSCF-calculation: 6.1 MB


           ************************************************************
           *        Program running with 8 parallel MPI-processes     *
           *              working on a common directory               *
           ************************************************************

------------------------------------------------------------------------------
                         ORCA PROPERTY INTEGRAL CALCULATIONS
------------------------------------------------------------------------------

GBWName                                   ... /cluster/projects/nn14654k/ylvaos/basis_set_n_funcs/functionals/gga_c_pbe/LiS/inp/LiS_gga_c_pbe_def2svp.gbw
Number of atoms                           ...      2
Number of basis functions                 ...     27
Max core memory                           ...   4096 MB

Dipole integrals                          ... YES
Quadrupole integrals                      ... YES
Linear momentum integrals                 ...  NO
Angular momentum integrals                ...  NO
Higher moments length integrals           ...  NO
Higher moments velocity integrals         ...  NO
Kinetic energy integrals                  ...  NO
GIAO right hand sides                     ...  NO
GIAO dipole derivative integrals          ...  NO
SOC integrals                             ...  NO
EPR diamagnetic integrals (GIAO)          ...  NO
EPR gauge integrals                       ...  NO
Field gradient integrals                  ...  NO (   0 nuclei)
Spin-dipole/Fermi contact integrals       ...  NO (   0 nuclei)
Contact density integrals                 ...  NO (   0 nuclei)
Nucleus-orbit integrals                   ...  NO (   0 nuclei)
Geometric perturbations                   ...  NO (   2 nuclei)

Choice of electric origin   ... Center of mass
Position of electric origin ... (  0.0000,  0.0000,  1.3082) 
Choice of magnetic origin   ... GIAO
Position of magnetic origin ... (  0.0000,  0.0000,  0.0000) 

Calculating integrals                     ... Electric Dipole (Length)     done (  0.0 sec)
Calculating integrals                     ... Electric Quadrupole (Length) done (  0.0 sec)

Property integrals calculated in   0.0 sec

Maximum memory used throughout the entire PROPINT-calculation: 3.6 MB
------------------------------------------------------------------------------
                           ORCA ORBITAL LOCALIZATION
------------------------------------------------------------------------------

Input orbitals are from                  ... /cluster/projects/nn14654k/ylvaos/basis_set_n_funcs/functionals/gga_c_pbe/LiS/inp/LiS_gga_c_pbe_def2svp.gbw
Output orbitals are to                   ... /cluster/projects/nn14654k/ylvaos/basis_set_n_funcs/functionals/gga_c_pbe/LiS/inp/LiS_gga_c_pbe_def2svp.loc
Max. number of iterations                ... 128
Localizations seeded randomly            ... on
Convergence tolerance                    ... 1.000e-06
Threshold for strong local MOs           ... 9.500e-01
Threshold for bond MOs                   ... 8.500e-01
Operator                                 ... 0
Orbital range for localization           ... 2 to 9
Localization criterion                   ... NEW-BOYS
Doing the dipole integrals               ... o.k.
Initial value of the localization sum :    15.005104
ITERATION   0 : L=   16.9669881559 DL=  1.96e+00 (AVERGE_DL)=    0.2647022933 
ITERATION   1 : L=   17.4388823616 DL=  4.72e-01 (AVERGE_DL)=    0.1298205087 
ITERATION   2 : L=   17.6141208808 DL=  1.75e-01 (AVERGE_DL)=    0.0791107992 
ITERATION   3 : L=   17.6380134187 DL=  2.39e-02 (AVERGE_DL)=    0.0292113835 
ITERATION   4 : L=   17.6506354092 DL=  1.26e-02 (AVERGE_DL)=    0.0212317068 
ITERATION   5 : L=   17.6597558768 DL=  9.12e-03 (AVERGE_DL)=    0.0180480189 
ITERATION   6 : L=   17.6680589032 DL=  8.30e-03 (AVERGE_DL)=    0.0172202398 
ITERATION   7 : L=   17.6755662031 DL=  7.51e-03 (AVERGE_DL)=    0.0163743046 
ITERATION   8 : L=   17.6821359576 DL=  6.57e-03 (AVERGE_DL)=    0.0153177703 
ITERATION   9 : L=   17.6875476499 DL=  5.41e-03 (AVERGE_DL)=    0.0139023281 
ITERATION  10 : L=   17.6917224816 DL=  4.17e-03 (AVERGE_DL)=    0.0122106974 
ITERATION  11 : L=   17.6947459241 DL=  3.02e-03 (AVERGE_DL)=    0.0103913468 
ITERATION  12 : L=   17.6968160736 DL=  2.07e-03 (AVERGE_DL)=    0.0085984832 
ITERATION  13 : L=   17.6981677699 DL=  1.35e-03 (AVERGE_DL)=    0.0069480116 
ITERATION  14 : L=   17.6990169036 DL=  8.49e-04 (AVERGE_DL)=    0.0055069233 
ITERATION  15 : L=   17.6995344874 DL=  5.18e-04 (AVERGE_DL)=    0.0042994344 
ITERATION  16 : L=   17.6998430933 DL=  3.09e-04 (AVERGE_DL)=    0.0033198855 
ITERATION  17 : L=   17.7000245126 DL=  1.81e-04 (AVERGE_DL)=    0.0025454397 
ITERATION  18 : L=   17.7001305238 DL=  1.06e-04 (AVERGE_DL)=    0.0019457933 
ITERATION  19 : L=   17.7001926409 DL=  6.21e-05 (AVERGE_DL)=    0.0014894522 
ITERATION  20 : L=   17.7002294843 DL=  3.68e-05 (AVERGE_DL)=    0.0011470995 
ITERATION  21 : L=   17.7002518223 DL=  2.23e-05 (AVERGE_DL)=    0.0008931878 
ITERATION  22 : L=   17.7002657895 DL=  1.40e-05 (AVERGE_DL)=    0.0007062779 
ITERATION  23 : L=   17.7002748519 DL=  9.06e-06 (AVERGE_DL)=    0.0005689106 
ITERATION  24 : L=   17.7002809663 DL=  6.11e-06 (AVERGE_DL)=    0.0004673014 
ITERATION  25 : L=   17.7002852462 DL=  4.28e-06 (AVERGE_DL)=    0.0003909662 
ITERATION  26 : L=   17.7002883351 DL=  3.09e-06 (AVERGE_DL)=    0.0003321408 
ITERATION  27 : L=   17.7002906179 DL=  2.28e-06 (AVERGE_DL)=    0.0002855299 
ITERATION  28 : L=   17.7002923329 DL=  1.72e-06 (AVERGE_DL)=    0.0002474893 
ITERATION  29 : L=   17.7002936345 DL=  1.30e-06 (AVERGE_DL)=    0.0002156051 
ITERATION  30 : L=   17.7002946284 DL=  9.94e-07 (AVERGE_DL)=    0.0001884002 
LOCALIZATION SUM CONVERGED


--------------------------------------------------------------------------------
                    LOCALIZED MOLECULAR ORBITAL COMPOSITIONS
--------------------------------------------------------------------------------

The Mulliken populations for each LMO on each atom are computed
The LMO`s will be ordered according to atom index and type
  (A) Strongly localized MO`s have populations of >=0.950 on one atom
  (B) Two center bond orbitals have populations of >=0.850 on two atoms
  (C) Other MO`s are considered to be `delocalized`

FOUND  -   5 strongly local MO`s
       -   3 two center bond MO`s
       -   0 significantly delocalized MO`s

Rather strongly localized orbitals:
MO   6:   1S  -   0.968305
MO   5:   1S  -   0.998359
MO   4:   1S  -   0.999612
MO   3:   1S  -   0.999365
MO   2:   0Li -   1.003743
Bond-like localized orbitals:
MO   9:   1S  -   0.758375  and   0Li -   0.241625
MO   8:   1S  -   0.758629  and   0Li -   0.241371
MO   7:   1S  -   0.843931  and   0Li -   0.156069
Localized MO's were stored in: /cluster/projects/nn14654k/ylvaos/basis_set_n_funcs/functionals/gga_c_pbe/LiS/inp/LiS_gga_c_pbe_def2svp.loc
------------------------------------------------------------------------------
                           ORCA ORBITAL LOCALIZATION
------------------------------------------------------------------------------

Input orbitals are from                  ... /cluster/projects/nn14654k/ylvaos/basis_set_n_funcs/functionals/gga_c_pbe/LiS/inp/LiS_gga_c_pbe_def2svp.loc
Output orbitals are to                   ... /cluster/projects/nn14654k/ylvaos/basis_set_n_funcs/functionals/gga_c_pbe/LiS/inp/LiS_gga_c_pbe_def2svp.loc
Max. number of iterations                ... 128
Localizations seeded randomly            ... on
Convergence tolerance                    ... 1.000e-06
Threshold for strong local MOs           ... 9.500e-01
Threshold for bond MOs                   ... 8.500e-01
Operator                                 ... 1
Orbital range for localization           ... 2 to 8
Localization criterion                   ... NEW-BOYS
Doing the dipole integrals               ... o.k.
Initial value of the localization sum :    14.673264
ITERATION   0 : L=   15.7449795696 DL=  1.07e+00 (AVERGE_DL)=    0.2259072549 
ITERATION   1 : L=   15.7944584404 DL=  4.95e-02 (AVERGE_DL)=    0.0485400526 
ITERATION   2 : L=   15.9224834396 DL=  1.28e-01 (AVERGE_DL)=    0.0780796294 
ITERATION   3 : L=   16.7041338947 DL=  7.82e-01 (AVERGE_DL)=    0.1929286144 
ITERATION   4 : L=   17.3115005091 DL=  6.07e-01 (AVERGE_DL)=    0.1700653396 
ITERATION   5 : L=   17.4263689347 DL=  1.15e-01 (AVERGE_DL)=    0.0739589415 
ITERATION   6 : L=   17.4377984054 DL=  1.14e-02 (AVERGE_DL)=    0.0233293916 
ITERATION   7 : L=   17.4387176167 DL=  9.19e-04 (AVERGE_DL)=    0.0066160384 
ITERATION   8 : L=   17.4387877499 DL=  7.01e-05 (AVERGE_DL)=    0.0018274783 
ITERATION   9 : L=   17.4387930341 DL=  5.28e-06 (AVERGE_DL)=    0.0005016278 
ITERATION  10 : L=   17.4387934314 DL=  3.97e-07 (AVERGE_DL)=    0.0001375369 
LOCALIZATION SUM CONVERGED


--------------------------------------------------------------------------------
                    LOCALIZED MOLECULAR ORBITAL COMPOSITIONS
--------------------------------------------------------------------------------

The Mulliken populations for each LMO on each atom are computed
The LMO`s will be ordered according to atom index and type
  (A) Strongly localized MO`s have populations of >=0.950 on one atom
  (B) Two center bond orbitals have populations of >=0.850 on two atoms
  (C) Other MO`s are considered to be `delocalized`

FOUND  -   5 strongly local MO`s
       -   2 two center bond MO`s
       -   0 significantly delocalized MO`s

Rather strongly localized orbitals:
MO   6:   1S  -   0.998233
MO   5:   1S  -   0.999836
MO   4:   1S  -   0.999614
MO   3:   1S  -   0.999613
MO   2:   0Li -   1.003760
Bond-like localized orbitals:
MO   8:   1S  -   0.780511  and   0Li -   0.219489
MO   7:   1S  -   0.780529  and   0Li -   0.219471
Localized MO's were stored in: /cluster/projects/nn14654k/ylvaos/basis_set_n_funcs/functionals/gga_c_pbe/LiS/inp/LiS_gga_c_pbe_def2svp.loc

-------------------------   --------------------
FINAL SINGLE POINT ENERGY      -379.085719001435
-------------------------   --------------------



           ************************************************************
           *        Program running with 8 parallel MPI-processes     *
           *              working on a common directory               *
           ************************************************************

------------------------------------------------------------------------------
                              ORCA PROPERTY CALCULATIONS
------------------------------------------------------------------------------

GBWName                                 ... /cluster/projects/nn14654k/ylvaos/basis_set_n_funcs/functionals/gga_c_pbe/LiS/inp/LiS_gga_c_pbe_def2svp.gbw
Number of atoms                         ...      2
Number of basis functions               ...     27
Max core memory                         ...   4096 MB

Electric properties:
Dipole moment                           ... YES
Quadrupole moment                       ... YES
Static polarizability (Dipole/Dipole)   ...  NO
Static polarizability (Dipole/Quad.)    ...  NO
Static polarizability (Quad./Quad.)     ...  NO
Static polarizability (Velocity)        ...  NO
Static hyperpolarizability              ...  NO

Atomic electric properties:
Dipole moment                           ...  NO
Quadrupole moment                       ...  NO
Static polarizability                   ...  NO

Choice of electric origin               ... Center of mass
Position of electric origin             ...     0.000000     0.000000     1.308198

General magnetic properties:
Magnetizability                         ...  NO

EPR properties:
g-Tensor (aka g-matrix)                 ...  NO
Zero-Field splitting spin-orbit         ...  NO
Zero-field splitting spin-spin          ...  NO
Hyperfine couplings                     ...  NO (   0 nuclei)
Quadrupole couplings                    ...  NO (   0 nuclei)
Contact density                         ...  NO (   0 nuclei)

NMR properties:
Chemical shifts                         ...  NO (   0 nuclei)
Spin-rotation constants                 ...  NO (   0 nuclei)
Spin-spin couplings                     ...  NO (   0 nuclei,    0 pairs)

Choice of magnetic origin               ... GIAO
Position of magnetic origin             ...     0.000000     0.000000     0.000000

Properties with geometric perturbations:
SCF Hessian                             ...  NO
IR spectrum                             ...  NO
VCD spectrum                            ...  NO
X-ray spectroscopy properties:
SCF XES/XAS/RIXS spectra                ...  NO

SCF SOC stabilization energy            ...  NO
Diagonal Born-Oppenheimer correction    ...  NO

-------------
DIPOLE MOMENT
-------------

Method             : SCF
Type of density    : Electron Density
Multiplicity       :   2
Irrep              :   0
Energy             :  -379.0857190014345406 Eh
Basis              : AO
                                X                 Y                 Z
Electronic contribution:     -0.000000004       0.000000006      -1.577900576
Nuclear contribution   :      0.000000000       0.000000000       1.549484202
                        -----------------------------------------
Total Dipole Moment    :     -0.000000004       0.000000006      -0.028416374
                        -----------------------------------------
Magnitude (a.u.)       :      0.028416374
Magnitude (Debye)      :      0.072228681



--------------------
Rotational spectrum 
--------------------
 
Rotational constants in cm-1:             0.000000             0.639339             0.639339 
Rotational constants in MHz :             0.000000         19166.891897         19166.891897 

Dipole components along the rotational axes: 
x,y,z [a.u.] :    -0.028416     0.000000    -0.000000 
x,y,z [Debye]:    -0.072229     0.000000    -0.000000 

 

Dipole moment calculation done in   0.0 sec 

-----------------
QUADRUPOLE MOMENT
-----------------

Method             : SCF
Type of density    : Electron Density
Multiplicity       :   2
Irrep              :   0
Energy             :  -379.0857190014345406 Eh
Basis              : AO

                XX              YY              ZZ              XY              XZ              YZ
  NUC        0.000000000     0.000000000    41.817245673     0.000000000     0.000000000     0.000000000
  EL       -18.145736487   -20.786659204   -57.101219957     0.605884653     0.000000012    -0.000000014
  TOT      -18.145736487   -20.786659204   -15.283974283     0.605884653     0.000000012    -0.000000014 (a.u.)
           -24.406636159   -27.958767534   -20.557468123     0.814935580     0.000000016    -0.000000019 (Buckingham)

diagonalized tensor:
           -20.919027641   -18.013368051   -15.283974283 (a.u.)
           -28.136807607   -24.228596085   -20.557468123 (Buckingham)
           -11.487551006     0.237083560    11.250467446 (traceless form in Buckingham)

             0.213437071    -0.976956814     0.000000004
            -0.976956814    -0.213437071    -0.000000002
            -0.000000003     0.000000003     1.000000000
        
Isotropic quadrupole :   -18.072123325

Quadrupole moment calculation done in   0.0 sec (  0.0 sec for integrals)

Maximum memory used throughout the entire PROP-calculation: 1.4 MB

--------------------------------
SUGGESTED CITATIONS FOR THIS RUN
--------------------------------

Below you find a list of papers that are relevant to this ORCA run
We neither can nor want to force you to cite these papers, but we appreciate if you do
You receive ORCA, which is the product of decades of hard work by many enthusiastic individuals, for free
The only thing we kindly ask in return is that you cite our papers,
We deeply appreciate it, if you show your appreciation for ORCA by not just citing the generic ORCA reference.

Please note that relegating all ORCA citations to the supporting information does *not* help us.
SI sections are not indexed - citations you put there will not count into any citation statistics
But we need these citations in order to attract the funding resources that allow us to do what we are doing

Therefore, if you are a happy ORCA user, please consider citing a few of the papers listed below in the main body of your paper

In addition to the list printed below, the program has created the file /cluster/projects/nn14654k/ylvaos/basis_set_n_funcs/functionals/gga_c_pbe/LiS/inp/LiS_gga_c_pbe_def2svp.bibtex that contains the list in bibtex format
You can import this file easily into all common literature databanks and citation aid programs

It goes without saying that in many instances, there are alternative algorithms to achieve similar
results as the ones you have gotten from ORCA. It is, of course, also the case that in some instances
ORCA just re-implements algorithms worked out by others. We are fully aware of that and we are also
fully appreciative of our colleagues work. Hence this citation list should not be read as indicating
that the listed papers, which are focused on our own work, are the only ones worth citing. It simply
meant to make it easier for users to cite ORCA specific papers. It is not a substitute for doing your
own literature research and citing the relevant literature in a scientifically appropriate manner.

List of essential papers. We consider these as the minimum necessary citations

  1. Neese, F.
     Software update: the ORCA program system, version 6.0
     WIRES Comput. Molec. Sci. 2025 15(1), e70019
     doi.org/10.1002/wcms.70019

List of papers to cite with high priority. The work reported in these papers was absolutely
necessary for this run to complete.
Our perspective: the developers of density functionals and basis sets usually get cited in chemistry papers
Good! But without the algorithms to do something with them, the functionals or basis sets would not do anything.
Hence, in our opinion, the algorithm design and method developments papers are equally worthy of getting cited

  1. Lehtola, S.; Steigemann, C.; Oliveira, M.; Marques, M.
     Recent developments in Libxc - A comprehensive library of functionals for density functional theory
     Software X 2018 7 , 
     doi.org/10.1016/j.softx.2017.11.002
  2. Neese, F.
     The SHARK Integral Generation and Digestion System
     J. Comp. Chem. 2022 44(3), 381
     doi.org/10.1002/jcc.26942

List of suggested additional citations. These are papers that are important in the 'surrounding' of 
of this run, or papers that preceded the highly important papers. If you like your results we are grateful for a citation.

  1. Neese, F.
     The ORCA program system
     WIRES Comput. Molec. Sci. 2012 2(1), 73-78
     doi.org/10.1002/wcms.81
  2. Neese, F.
     Software update: the ORCA program system, version 4.0
     WIRES Comput. Molec. Sci. 2018 8(1), 1-6
     doi.org/10.1002/wcms.1327
  3. Neese, F.; Wennmohs, F.; Becker, U.; Riplinger, C.
     The ORCA quantum chemistry program package
     J. Chem. Phys. 2020 152(22), 224108
     doi.org/10.1063/5.0004608
  4. Neese, F.
     Software update: The ORCA program system—Version 5.0
     WIRES Comput. Molec. Sci. 2022 12(1), e1606
     doi.org/10.1002/wcms.1606

List of optional additional citations

  1. Neese, F.
     Approximate second-order SCF convergence for spin unrestricted wavefunctions
     Chem. Phys. Lett. 2000 325(1-3), 93-98
     doi.org/10.1016/s0009-2614(00)00662-x

Timings for individual modules:

Sum of individual times          ...        6.937 sec (=   0.116 min)
Startup calculation              ...        0.433 sec (=   0.007 min)   6.2 %
SCF iterations                   ...        5.972 sec (=   0.100 min)  86.1 %
Property integrals               ...        0.254 sec (=   0.004 min)   3.7 %
Property calculations            ...        0.252 sec (=   0.004 min)   3.6 %
Orbital localization             ...        0.026 sec (=   0.000 min)   0.4 %
                             ****ORCA TERMINATED NORMALLY****
TOTAL RUN TIME: 0 days 0 hours 0 minutes 7 seconds 831 msec
