
                                 *****************
                                 * O   R   C   A *
                                 *****************

                                            #,                                       
                                            ###                                      
                                            ####                                     
                                            #####                                    
                                            ######                                   
                                           ########,                                 
                                     ,,################,,,,,                         
                               ,,#################################,,                 
                          ,,##########################################,,             
                       ,#########################################, ''#####,          
                    ,#############################################,,   '####,        
                  ,##################################################,,,,####,       
                ,###########''''           ''''###############################       
              ,#####''   ,,,,##########,,,,          '''####'''          '####       
            ,##' ,,,,###########################,,,                        '##       
           ' ,,###''''                  '''############,,,                           
         ,,##''                                '''############,,,,        ,,,,,,###''
      ,#''                                            '''#######################'''  
     '                                                          ''''####''''         
             ,#######,   #######,   ,#######,      ##                                
            ,#'     '#,  ##    ##  ,#'     '#,    #''#        ,####,    ,#,          
            ##       ##  ##   ,#'  ##            #'  '#       #'       ,# #          
            ##       ##  #######   ##           ,######,      #####,      #          
            '#,     ,#'  ##    ##  '#,     ,#' ,#      #,     #,   #      #          
             '#######'   ##     ##  '#######'  #'      '#     '####' #    #          



                #########################################################
                #                        -***-                          #
                #          Department of theory and spectroscopy        #
                #                                                       #
                #                      Frank Neese                      #
                #                                                       #
                #     Directorship, Architecture, Infrastructure        #
                #                    SHARK, DRIVERS                     #
                #        Core code/Algorithms in most modules           #
                #                                                       #
                #        Max Planck Institute fuer Kohlenforschung      #
                #                Kaiser Wilhelm Platz 1                 #
                #                 D-45470 Muelheim/Ruhr                 #
                #                      Germany                          #
                #                                                       #
                #                  All rights reserved                  #
                #                        -***-                          #
                #########################################################


                         Program Version 6.1.1  -  RELEASE   -
                                (GIT: $487d211c$)
                          ($2025-11-21 10:33:24 +0100$)


 With contributions from (in alphabetic order):
[Max-Planck-Institut fuer Kohlenforschung]                               
  Daniel Aravena         : Magnetic Suceptibility                        
  Michael Atanasov       : Ab Initio Ligand Field Theory (pilot matlab implementation)
  Alexander A. Auer      : GIAO ZORA, VPT2 properties, NMR spectrum      
  Ute Becker             : All parallelization in ORCA, NUMFREQ, NUMCALC 
  Giovanni Bistoni       : ED, misc. LED, open-shell LED, HFLD           
  Dmytro Bykov           : pre 5.0 version of the SCF Hessian            
  Marcos Casanova-Páez   : Triplet and SCS-CIS(D). UHF-(DLPNO)-IP/EA/STEOM-CCSD. UHF-CVS-IP/STEOM-CCSD   
  Vijay G. Chilkuri      : MRCI spin determinant printing, contributions to CSF-ICE 
  Pauline Colinet        : FMM embedding                                 
  Dipayan Datta          : RHF DLPNO-CCSD density                        
  Achintya Kumar Dutta   : EOM-CC, STEOM-CC                              
  Nicolas Foglia         : Exact transition moments, OPA infrastructure, MCD improvements    
  Dmitry Ganyushin       : Spin-Orbit,Spin-Spin,Magnetic field MRCI      
  Miquel Garcia-Rates    : C-PCM and meta-GGA Hessian, CCSD/C-PCM, Gaussian charge scheme 
  Tiago L. C. Gouveia    : GS-ROHF, GS-ROCIS                             
  Yang Guo               : DLPNO-NEVPT2, F12-NEVPT2, CIM, IAO-localization        
  Andreas Hansen         : Spin unrestricted coupled pair/coupled cluster methods 
  Ingolf Harden          : AUTO-CI MPn and infrastructure                
  Benjamin Helmich-Paris : MC-RPA, TRAH-(SCF,CASSCF), AVAS, COSX integrals, SCF dyn. polar., MC-PDFT, srDFT 
  Lee Huntington         : MR-EOM, pCC                                   
  Robert Izsak           : Overlap fitted RIJCOSX, COSX-SCS-MP3, EOM     
  Riya Kayal             : Wick's Theorem for AUTO-CI, AUTO-CI UHF-CCSDT 
  Emily Kempfer          : AUTO-CI RHF CISDT and CCSDT, approximate NEVPT4
  Christian Kollmar      : KDIIS, OOCD, Brueckner-CCSD(T), CCSD density, CASPT2, CASPT2-K, improved NEVPT2 
  Axel Koslowski         : Symmetry handling                             
  Simone Kossmann        : meta-GGA functionals, TD-DFT gradient, OOMP2, (MP2 Hessian; deprecated post 5.0) 
  Lucas Lang             : DCDCAS, Hyperfine gauge corrections, ICE-SOC+SSC
  Marvin Lechner         : AUTO-CI (C++ implementation), FIC-MRCC        
  Spencer Leger          : CASSCF response                               
  Dagmar Lenk            : GEPOL surface, SMD, ORCA-2-JSON               
  Dimitrios Liakos       : Extrapolation schemes; Compound Job, Property file
  Dimitrios Manganas     : Further ROCIS development; embedding schemes. LFT, Crystal Embedding 
  Dimitrios Pantazis     : SARC Basis sets                               
  Anastasios Papadopoulos: AUTO-CI, single reference methods and gradients 
  Taras Petrenko         : pre 6.0 DFT Hessian and TD-DFT gradient,  ECA, NRVS 
  Petra Pikulova         : Analytic Raman intensities                    
  Peter Pinski           : DLPNO-MP2, DLPNO-MP2 Gradient                 
  Shashank Vittal Rao    : ES-AILFT, MagRelax                            
  Christoph Reimann      : Effective Core Potentials                     
  Marius Retegan         : Local ZFS, SOC                                
  Christoph Riplinger    : Optimizer, TS searches, QM/MM, DLPNO-CCSD(T), (RO)-DLPNO pert. Triples 
  Michael Roemelt        : Original ROCIS implementation, recursive CI coupling coefficients
  Masaaki Saitow         : Open-shell DLPNO-CCSD energy and density      
  Barbara Sandhoefer     : DKH picture change effects                    
  Yorick L. A. Schmerwitz: GMF and freeze-and-release deltaSCF, NEB S-IDPP initial path                    
  Kantharuban Sivalingam : CASSCF convergence/infrastructure, NEVPT2, NEVPT3, NEVPT4(SD), FIC-MRCI and CEPA variants
  Bernardo de Souza      : ESD, SOC TD-DFT                               
  Georgi L. Stoychev     : AutoAux, RI-MP2 NMR, DLPNO-MP2 response, X2C  
  Van Anh Tran           : RI-MP2 g-tensors                              
  Willem Van den Heuvel  : Paramagnetic NMR                              
  Zikuan Wang            : NOTCH, Electric field optimization            
  Frank Wennmohs         : Technical directorship and infrastructure     
  Hang Xu                : AUTO-CI-Response properties                   
                                                                         
[FACCTs GmbH]                                                            
  Markus Bursch, Nicolas Foglia, Miquel Garcia-Rates, Ingolf Harden, Hagen Neugebauer, Anastasios Papadopoulos, 
  Christoph Riplinger, Bernardo de Souza, Georgi L. Stoychev                                                    
                                                                 
  APM, various basis sets, CI-OPT, improved COSX, DLPNO-Multilevel,           
  DOCKER, DRACO, updates on ESD, Fragmentator, GOAT, IRC, LR-CPCM, L-BFGS, MBIS, meta-GGA TD-DFT gradient, ML-optimized integration grids, 
  MM, NACMEs, nearIR, NEB, NEB-TS, NL-DFT gradient (VV10), 2- and 3-layer-ONIOM, interface openCOSMO-RS, QMMM,   
  Crystal-QMMM, RESP, rigid body optimization, SF, symmetry and pop. for TD-DFT, various functionals, SOLVATOR                                   
                                                                         
[Other institutions]                                                     
  V. Asgeirsson          : NEB                                           
  Christoph Bannwarth    : sTDA-DFT, sTD-DFT, PBEh-3c, B97-3c, D3        
  Giovanni Bistoni       : ETS/NOCV, ADLD/ADEX, COVALED                  
  Martin Brehm           : Molecular dynamics                            
  Ronald Cardenas        : ETS/NOCV                                      
  Martina Colucci        : COVALED                                       
  Sebastian Ehlert       : rSCAN, r2SCAN, r2SCAN-3c, D4, dhf basis sets  
  Marvin Friede          : D4 for Fr, Ra, Ac-Lr                          
  Lars Goerigk           : TD-DFT with DH, B97 family of functionals     
  Stefan Grimme          : VdW corrections, initial TS optimization, DFT functionals, gCP, sTDA/sTD-DF 
  Waldemar Hujo          : DFT-NL                                        
  H. Jonsson             : NEB                                           
  Holger Kruse           : gCP                                           
  Marcel Mueller         : wB97X-3c, vDZP basis set                      
  Hagen Neugebauer       : wr2SCAN, Native XTB                           
  Gianluca Regni         : ADLD/ADEX                                     
  Tobias Risthaus        : pre 6.0 range-separated hybrid DFT and stability analysis
  Lukas Wittmann         : regularized MP2, r2SCAN double-hybrids, wr2SCAN        
                                                                         
We gratefully acknowledge several colleagues who have allowed us to      
interface, adapt or use parts of their codes:                            
  Ed Valeev, F. Pavosevic, A. Kumar             : LibInt (2-el integral package), F12 methods 
  Garnet Chan, S. Sharma, J. Yang, R. Olivares  : DMRG                   
  Ulf Ekstrom                                   : XCFun DFT Library      
  Mihaly Kallay                                 : mrcc  (arbitrary order and MRCC methods)
  Frank Weinhold                                : gennbo (NPA and NBO analysis)           
  Simon Mueller                                 : openCOSMO-RS                            
  Christopher J. Cramer and Donald G. Truhlar   : smd solvation model                     
  S Lehtola, MJT Oliveira, MAL Marques          : LibXC Library                           
  Liviu Ungur et al                             : ANISO software                          


 Your calculation uses the libint2 library for the computation of 2-el integrals
 For citations please refer to: http://libint.valeyev.net

 Your ORCA version has been built with support for libXC version: 7.0.0
 For citations please refer to: https://libxc.gitlab.io

 This ORCA versions uses:
   CBLAS   interface :  Fast vector & matrix operations
   LAPACKE interface :  Fast linear algebra routines
   SCALAPACK package :  Parallel linear algebra routines
   Shared memory     :  Shared parallel matrices
   BLAS/LAPACK       :  OpenBLAS 0.3.29  USE64BITINT DYNAMIC_ARCH NO_AFFINITY Cooperlake SINGLE_THREADED
        Core in use  :  Cooperlake
   Copyright (c) 2011-2014, The OpenBLAS Project


  ***********************************
  * Starting time: Wed May 20 12:33:44 2026
  * Host name:     c1-36
  * Process ID:    800407
  * Working dir.:  /cluster/projects/nn14654k/ylvaos/basis_set_n_funcs/functionals/lda_x/CH3COOH/out
  ***********************************

Using LibXC functional ID   1 : Slater exchange
[ 1]  P. A. M. Dirac.,  Math. Proc. Cambridge Philos. Soc. 26, 376 (1930)
[ 2]  F. Bloch.,  Z. Phys. 57, 545 (1929)
Using LibXC functional ID   1 : Slater exchange
[ 1]  P. A. M. Dirac.,  Math. Proc. Cambridge Philos. Soc. 26, 376 (1930)
[ 2]  F. Bloch.,  Z. Phys. 57, 545 (1929)
Your calculation utilizes LibXC
by S. Lehtola, C. Steigemann, M. J. T. Oliveira & M. A. L. Marques
Please cite in your paper:
Lehtola, S.; Steigemann, C.; Oliveira, M.J.T.; Marques, M. A. L. Software X, 7, (2018), 1.
   

================================================================================

----- Orbital basis set information -----
Your calculation utilizes the basis: pcseg-2
   F. Jensen, J. Chem. Theory Comput. 10, 1074 (2014).

================================================================================
                                        WARNINGS
                       Please study these warnings very carefully!
================================================================================


================================================================================
                                       INPUT FILE
================================================================================
NAME = /cluster/projects/nn14654k/ylvaos/basis_set_n_funcs/functionals/lda_x/CH3COOH/inp/CH3COOH_lda_x_pcseg2.inp
|  1> ! dft pcseg-2 TightSCF
|  2> %pal nprocs 8 end
|  3> 
|  4> %loc
|  5>   LocMet NewBoys
|  6>   Occ true
|  7> end
|  8> 
|  9> %method
| 10>   exchange lda_x
| 11>   correlation None
| 12> end
| 13> 
| 14> %elprop
| 15>   Dipole true
| 16>   Quadrupole true
| 17> end
| 18> 
| 19> * xyz 0 1
| 20> C    0.000000000000   0.154560000000   0.000000000000
| 21> C    1.073776000000  -0.892748000000   0.000000000000
| 22> O    0.166384000000   1.360084000000   0.000000000000
| 23> O   -1.236449000000  -0.415036000000   0.000000000000
| 24> H   -1.867646000000   0.333582000000   0.000000000000
| 25> H    2.048189000000  -0.408135000000   0.000000000000
| 26> H    0.968661000000  -1.528353000000   0.881747000000
| 27> H    0.968661000000  -1.528353000000  -0.881747000000
| 28> *
| 29> 
| 30> 
| 31>                          ****END OF INPUT****
================================================================================

                       ****************************
                       * Single Point Calculation *
                       ****************************

---------------------------------
CARTESIAN COORDINATES (ANGSTROEM)
---------------------------------
  C      0.000000    0.154560    0.000000
  C      1.073776   -0.892748    0.000000
  O      0.166384    1.360084    0.000000
  O     -1.236449   -0.415036    0.000000
  H     -1.867646    0.333582    0.000000
  H      2.048189   -0.408135    0.000000
  H      0.968661   -1.528353    0.881747
  H      0.968661   -1.528353   -0.881747

----------------------------
CARTESIAN COORDINATES (A.U.)
----------------------------
  NO LB      ZA    FRAG     MASS         X           Y           Z
   0 C     6.0000    0    12.011    0.000000    0.292076    0.000000
   1 C     6.0000    0    12.011    2.029143   -1.687049    0.000000
   2 O     8.0000    0    15.999    0.314420    2.570186    0.000000
   3 O     8.0000    0    15.999   -2.336550   -0.784304    0.000000
   4 H     1.0000    0     1.008   -3.529339    0.630379    0.000000
   5 H     1.0000    0     1.008    3.870516   -0.771263    0.000000
   6 H     1.0000    0     1.008    1.830504   -2.888169    1.666260
   7 H     1.0000    0     1.008    1.830504   -2.888169   -1.666260

--------------------------------
INTERNAL COORDINATES (ANGSTROEM)
--------------------------------
 C      0   0   0     0.000000000000     0.00000000     0.00000000
 C      1   0   0     1.499949647502     0.00000000     0.00000000
 O      1   2   0     1.216951827326   126.42686784     0.00000000
 O      1   2   3     1.361339683113   110.98078396   180.00000000
 H      4   1   2     0.979203024267   105.40175469   180.00000085
 H      2   1   3     1.088269476893   109.27200725     0.00000000
 H      2   1   3     1.092025938913   109.72406365   120.93315147
 H      2   1   3     1.092025938913   109.72406365   239.06684853

---------------------------
INTERNAL COORDINATES (A.U.)
---------------------------
 C      0   0   0     0.000000000000     0.00000000     0.00000000
 C      1   0   0     2.834494048450     0.00000000     0.00000000
 O      1   2   0     2.299705671821   126.42686784     0.00000000
 O      1   2   3     2.572559176322   110.98078396   180.00000000
 H      4   1   2     1.850425545371   105.40175469   180.00000085
 H      2   1   3     2.056531271234   109.27200725     0.00000000
 H      2   1   3     2.063629955684   109.72406365   120.93315147
 H      2   1   3     2.063629955684   109.72406365   239.06684853

---------------------
BASIS SET INFORMATION
---------------------
There are 3 groups of distinct atoms

 Group   1 Type C   : 11s6p2d1f contracted to 4s3p2d1f pattern {7211/411/11/1}
 Group   2 Type O   : 11s6p2d1f contracted to 4s3p2d1f pattern {7211/411/11/1}
 Group   3 Type H   : 6s2p1d contracted to 3s2p1d pattern {411/11/1}

Atom   0C    basis set group =>   1
Atom   1C    basis set group =>   1
Atom   2O    basis set group =>   2
Atom   3O    basis set group =>   2
Atom   4H    basis set group =>   3
Atom   5H    basis set group =>   3
Atom   6H    basis set group =>   3
Atom   7H    basis set group =>   3


           ************************************************************
           *        Program running with 8 parallel MPI-processes     *
           *              working on a common directory               *
           ************************************************************
------------------------------------------------------------------------------
                             ORCA STARTUP CALCULATIONS
------------------------------------------------------------------------------
------------------------------------------------------------------------------
                   ___                                                        
                  /   \      - P O W E R E D   B Y -                         
                 /     \                                                     
                 |  |  |   _    _      __       _____    __    __             
                 |  |  |  | |  | |    /  \     |  _  \  |  |  /  |          
                  \  \/   | |  | |   /    \    | | | |  |  | /  /          
                 / \  \   | |__| |  /  /\  \   | |_| |  |  |/  /          
                |  |  |   |  __  | /  /__\  \  |    /   |      \           
                |  |  |   | |  | | |   __   |  |    \   |  |\   \          
                \     /   | |  | | |  |  |  |  | |\  \  |  | \   \       
                 \___/    |_|  |_| |__|  |__|  |_| \__\ |__|  \__/        
                                                                              
                      - O R C A' S   B I G   F R I E N D -                    
                                      &                                       
                       - I N T E G R A L  F E E D E R -                       
                                                                              
 v1 FN, 2020, v2 2021, v3 2022-2024                                           
------------------------------------------------------------------------------


----------------------
SHARK INTEGRAL PACKAGE
----------------------

Number of atoms                             ...      8
Number of basis functions                   ...    176
Number of shells                            ...     64
Maximum angular momentum                    ...      3
Integral batch strategy                     ... SHARK/LIBINT Hybrid
RI-J (if used) integral strategy            ... SPLIT-RIJ (Revised 2003 algorithm where possible)
Printlevel                                  ...      1
Contraction scheme used                     ... SEGMENTED contraction
Prescreening option                         ... SCHWARTZ
   Thresh                                   ... 2.500e-11
   Tcut                                     ... 2.500e-12
   Tpresel                                  ... 2.500e-12 
Coulomb Range Separation                    ... NOT USED
Exchange Range Separation                   ... NOT USED
Multipole approximations                    ... NOT USED
Finite Nucleus Model                        ... NOT USED
CABS basis                                  ... NOT available
Auxiliary Coulomb fitting basis             ... NOT available
Auxiliary J/K fitting basis                 ... NOT available
Auxiliary Correlation fitting basis         ... NOT available
Auxiliary 'external' fitting basis          ... NOT available

Checking pre-screening integrals            ... done (  0.0 sec) Dimension = 64
   => SHARK Basis and OBASIS are compatible. Storing Pre-screening
Shell pair information
Shell pair cut-off parameter TPreSel        ...   2.5e-12
Total number of shell pairs                 ...      2080
Shell pairs after pre-screening             ...      2055
Total number of primitive shell pairs       ...      6922
Primitive shell pairs kept                  ...      5575
          la=0 lb=0:    403 shell pairs
          la=1 lb=0:    551 shell pairs
          la=1 lb=1:    207 shell pairs
          la=2 lb=0:    332 shell pairs
          la=2 lb=1:    235 shell pairs
          la=2 lb=2:     77 shell pairs
          la=3 lb=0:    112 shell pairs
          la=3 lb=1:     80 shell pairs
          la=3 lb=2:     48 shell pairs
          la=3 lb=3:     10 shell pairs

Checking whether 4 symmetric matrices of dimension 176 fit in memory
:Max Core in MB      =   4096.00
 MB in use           =      4.63
 MB left             =   4091.37
 MB needed           =      0.48
 Data fit in memory  = YES
Calculating Nuclear repulsion               ... done (  0.0 sec) ENN=    120.693288504615 Eh

Diagonalization of the overlap matrix:
Smallest eigenvalue                        ... 5.081e-04
Time for diagonalization                   ...    0.002 sec
Threshold for overlap eigenvalues          ... 1.000e-07
Number of eigenvalues below threshold      ... 0
Time for construction of square roots      ...    0.002 sec
Total time needed                          ...    0.006 sec

-------------------
DFT GRID GENERATION
-------------------

General Integration Accuracy     IntAcc      ... 4.388
Radial Grid Type                 RadialGrid  ... OptM3 with GC (2021)
Angular Grid (max. ang.)         AngularGrid ... 4 (Lebedev-302)
Angular grid pruning method      GridPruning ... 4 (adaptive)
Weight generation scheme         WeightScheme... mBecke (2022)
Basis function cutoff            BFCut       ... 1.0000e-11
Integration weight cutoff        WCut        ... 1.0000e-14
Partially contracted basis set               ... off
Rotationally invariant grid construction     ... off
Angular grids for H and He will be reduced by one unit
Diffuse basis detected: some atoms will have their outermost
                        angular grid increased by 1.

Total number of grid points                  ...    38011
Total number of batches                      ...      598
Average number of points per batch           ...       63
Average number of grid points per atom       ...     4751
Grids setup in   0.1 sec
Initializing property integral containers    ... done (  0.0 sec)

SHARK setup successfully completed in   0.2 seconds

Maximum memory used throughout the entire STARTUP-calculation: 14.0 MB


           ************************************************************
           *        Program running with 8 parallel MPI-processes     *
           *              working on a common directory               *
           ************************************************************
-------------------------------------------------------------------------------
                                 ORCA GUESS
                   Start orbitals & Density for SCF / CASSCF
-------------------------------------------------------------------------------

------------
SCF SETTINGS
------------
Hamiltonian:
 Density Functional     Method          .... DFT(GTOs)
  Functional kind                       .... Exchange
  Functional name                       .... Slater exchange
  Functional family                     .... LDA
  Functional refs                              
    [ 0] P. A. M. Dirac.,  Math. Proc. Cambridge Philos. Soc. 26, 376 (1930), doi: 10.1017/S0305004100016108
    [ 1] F. Bloch.,  Z. Phys. 57, 545 (1929), doi: 10.1007/BF01340281
  Functional external parameters        .... 0
 Correlation Functional Correlation     .... No Correlation
 Gradients option       PostSCFGGA      .... off


General Settings:
 Integral files         IntName         .... /cluster/projects/nn14654k/ylvaos/basis_set_n_funcs/functionals/lda_x/CH3COOH/inp/CH3COOH_lda_x_pcseg2
 Hartree-Fock type      HFTyp           .... RHF
 Total Charge           Charge          ....    0
 Multiplicity           Mult            ....    1
 Number of Electrons    NEL             ....   32
 Basis Dimension        Dim             ....  176
 Nuclear Repulsion      ENuc            ....    120.6932885046 Eh

Convergence Acceleration:
 AO-DIIS                CNVDIIS         .... on
   Start iteration      DIISMaxIt       ....    12
   Startup error        DIISStart       ....  0.200000
   # of expansion vecs  DIISMaxEq       ....     5
   Bias factor          DIISBfac        ....   1.050
   Max. coefficient     DIISMaxC        ....  10.000
 MO-DIIS                CNVKDIIS        .... off
 Trust-Rad. Augm. Hess. CNVTRAH         .... auto
   Auto Start mean grad. ratio tolernc. ....  1.125000
   Auto Start start iteration           ....    50
   Auto Start num. interpolation iter.  ....    10
   Max. Number of Micro iterations      ....    24
   Max. Number of Macro iterations      .... Maxiter - #DIIS iter
   Number of Davidson start vectors     ....     2
   Converg. threshold    (grad. norm)   ....   1.000e-05
   Grad. Scal. Fac. for Micro threshold ....   0.100
   Minimum threshold for Micro iter.    ....   1.000e-02
   NR start threshold (gradient norm)   ....   1.000e-04
   Initial trust radius                 ....   0.400
   Minimum AH scaling param. (alpha)    ....   1.000
   Maximum AH scaling param. (alpha)    .... 1000.000
   Quad. conv. algorithm                .... NR
   White noise on init. David. guess    .... on
   Maximum white noise                  ....   0.010
   Pseudo random numbers                .... off
   Inactive MOs                         .... canonical
   Orbital update algorithm             .... Taylor
   Preconditioner                       .... Diag
   Full preconditioner red. dimension   ....   250
 SOSCF                 CNVSOSCF           .... on
   Start iteration     SOSCFMaxIt         ....   150
   Startup grad/error  SOSCFStart         ....  0.003300
   Hessian update      SOSCFHessUp        .... L-BFGS
   Autom. constraints  SOSCFAutoConstrain .... off
 Level Shifting         CNVShift        .... on
   Level shift para.    LevelShift      ....    0.2500
   Turn off err/grad.   ShiftErr        ....    0.0010
 Zerner damping         CNVZerner       .... off
 Static damping         CNVDamp         .... on
   Fraction old density DampFac         ....    0.7000
   Max. Damping (<1)    DampMax         ....    0.9800
   Min. Damping (>=0)   DampMin         ....    0.0000
   Turn off err/grad.   DampErr         ....    0.1000

SCF Procedure:
 Maximum # iterations   MaxIter         ....   125
 SCF integral mode      SCFMode         .... Direct
   Integral package                     .... SHARK and LIBINT hybrid scheme
 Reset frequency        DirectResetFreq ....    20
 Integral Threshold     Thresh          ....  2.500e-11 Eh
 Primitive CutOff       TCut            ....  2.500e-12 Eh

Convergence Tolerance:
 Convergence Check Mode ConvCheckMode   .... Total+1el-Energy
 Convergence forced     ConvForced      .... 0
 Energy Change          TolE            ....  1.000e-08 Eh
 1-El. energy change                    ....  1.000e-05 Eh
 Orbital Gradient       TolG            ....  1.000e-05
 Orbital Rotation angle TolX            ....  1.000e-05
 DIIS Error             TolErr          ....  5.000e-07

------------------------------
INITIAL GUESS: MODEL POTENTIAL
------------------------------
Loading Hartree-Fock densities                     ... done
Calculating cut-offs                               ... done
Initializing the effective Hamiltonian             ... done
Setting up the integral package (SHARK)            ... done
Starting the Coulomb interaction                   ... done (   0.0 sec)
Making the grid                                    ... done (   0.0 sec)
Mapping shells                                     ... done
Starting the XC term evaluation                    ... done (   0.0 sec)
  promolecular density results
     # of electrons  =     31.996961635
     EX              =    -25.141974696
     EC              =      0.000000000
     EX+EC           =    -25.141974696
Transforming the Hamiltonian                       ... done (   0.0 sec)
Diagonalizing the Hamiltonian                      ... done (   0.0 sec)
Back transforming the eigenvectors                 ... done (   0.0 sec)
Now organizing SCF variables                       ... done
                      ------------------
                      INITIAL GUESS DONE (   0.1 sec)
                      ------------------
             **** ENERGY FILE WAS UPDATED (/cluster/projects/nn14654k/ylvaos/basis_set_n_funcs/functionals/lda_x/CH3COOH/inp/CH3COOH_lda_x_pcseg2.en.tmp) ****
Finished Guess after   0.1 sec
Maximum memory used throughout the entire GUESS-calculation: 9.0 MB


           ************************************************************
           *        Program running with 8 parallel MPI-processes     *
           *              working on a common directory               *
           ************************************************************

-------------------------------------------------------------------------------------------
                                      ORCA LEAN-SCF
                              memory conserving SCF solver
-------------------------------------------------------------------------------------------

----------------------------------------D-I-I-S--------------------------------------------
Iteration    Energy (Eh)           Delta-E    RMSDP     MaxDP     DIISErr   Damp  Time(sec)
-------------------------------------------------------------------------------------------
               ***  Starting incremental Fock matrix formation  ***
    1    -225.1266423796587333     0.00e+00  6.12e-03  5.92e-02  2.34e-01  0.700   0.3
    2    -225.2042505193042530    -7.76e-02  3.86e-03  3.53e-02  8.26e-02  0.700   0.3
                               ***Turning on AO-DIIS***
    3    -225.2247317015473982    -2.05e-02  1.36e-03  1.57e-02  2.96e-02  0.700   0.3
    4    -225.2395445040562549    -1.48e-02  1.60e-03  1.62e-02  1.98e-02  0.000   0.3
    5    -225.2747474429245358    -3.52e-02  7.76e-04  8.66e-03  1.17e-02  0.000   0.3
                              *** Initializing SOSCF ***
---------------------------------------S-O-S-C-F--------------------------------------
Iteration    Energy (Eh)           Delta-E    RMSDP     MaxDP     MaxGrad    Time(sec)
--------------------------------------------------------------------------------------
    6    -225.2751187189722941    -3.71e-04  2.76e-04  2.60e-03  3.27e-03     0.3
               *** Restarting incremental Fock matrix formation ***
    7    -225.2751442874480290    -2.56e-05  2.82e-04  2.52e-03  8.32e-04     0.3
    8    -225.2751074504204212     3.68e-05  1.64e-04  1.73e-03  2.70e-03     0.3
    9    -225.2751518390741126    -4.44e-05  7.89e-05  7.04e-04  3.01e-04     0.3
   10    -225.2751472200682201     4.62e-06  5.31e-05  5.01e-04  7.64e-04     0.3
   11    -225.2751529751178055    -5.76e-06  1.56e-05  1.29e-04  4.08e-05     0.3
   12    -225.2751529121076715     6.30e-08  9.15e-06  7.19e-05  6.34e-05     0.3
   13    -225.2751530144210506    -1.02e-07  6.39e-07  5.87e-06  1.95e-06     0.3
                  *** Gradient check signals convergence ***

               *****************************************************
               *                     SUCCESS                       *
               *           SCF CONVERGED AFTER  13 CYCLES          *
               *****************************************************

             **** ENERGY FILE WAS UPDATED (/cluster/projects/nn14654k/ylvaos/basis_set_n_funcs/functionals/lda_x/CH3COOH/inp/CH3COOH_lda_x_pcseg2.en.tmp) ****

----------------
TOTAL SCF ENERGY
----------------

Total Energy       :       -225.27515301424592 Eh           -6130.04856 eV

Components:
Nuclear Repulsion  :        120.69328850461517 Eh            3284.23135 eV
Electronic Energy  :       -345.96844151886103 Eh           -9414.27991 eV
One Electron Energy:       -550.52804920200504 Eh          -14980.62982 eV
Two Electron Energy:        204.55960768314398 Eh            5566.34991 eV

Virial components:
Potential Energy   :       -452.54498724719679 Eh          -12314.37515 eV
Kinetic Energy     :        227.26983423295087 Eh            6184.32659 eV
Virial Ratio       :          1.99122329091568

DFT components:
N(Alpha)           :       15.999983839918 electrons
N(Beta)            :       15.999983839918 electrons
N(Total)           :       31.999967679836 electrons
E(X)               :      -25.471067547798 Eh       
E(C)               :        0.000000000000 Eh       
E(XC)              :      -25.471067547798 Eh       

---------------
SCF CONVERGENCE
---------------

  Last Energy change         ...    1.0231e-07  Tolerance :   1.0000e-08
  Last MAX-Density change    ...    5.8737e-06  Tolerance :   1.0000e-07
  Last RMS-Density change    ...    6.3850e-07  Tolerance :   5.0000e-09
  Last DIIS Error            ...    3.2748e-03  Tolerance :   5.0000e-07
  Last Orbital Gradient      ...    1.9451e-06  Tolerance :   1.0000e-05
  Last Orbital Rotation      ...    2.9345e-06  Tolerance :   1.0000e-05


----------------
ORBITAL ENERGIES
----------------

  NO   OCC          E(Eh)            E(eV) 
   0   2.0000     -18.575745      -505.4717 
   1   2.0000     -18.519619      -503.9445 
   2   2.0000      -9.834085      -267.5991 
   3   2.0000      -9.714035      -264.3323 
   4   2.0000      -0.967692       -26.3322 
   5   2.0000      -0.879832       -23.9415 
   6   2.0000      -0.646706       -17.5978 
   7   2.0000      -0.512479       -13.9453 
   8   2.0000      -0.397951       -10.8288 
   9   2.0000      -0.388034       -10.5589 
  10   2.0000      -0.386610       -10.5202 
  11   2.0000      -0.325135        -8.8474 
  12   2.0000      -0.309607        -8.4248 
  13   2.0000      -0.309579        -8.4241 
  14   2.0000      -0.248159        -6.7527 
  15   2.0000      -0.198793        -5.4094 
  16   0.0000      -0.005145        -0.1400 
  17   0.0000       0.014751         0.4014 
  18   0.0000       0.042927         1.1681 
  19   0.0000       0.085388         2.3235 
  20   0.0000       0.086875         2.3640 
  21   0.0000       0.114419         3.1135 
  22   0.0000       0.150677         4.1001 
  23   0.0000       0.175445         4.7741 
  24   0.0000       0.179642         4.8883 
  25   0.0000       0.199024         5.4157 
  26   0.0000       0.201205         5.4751 
*Only the first 10 virtual orbitals were printed.

                    ********************************
                    * MULLIKEN POPULATION ANALYSIS *
                    ********************************

-----------------------
MULLIKEN ATOMIC CHARGES
-----------------------
   0 C :    0.326780
   1 C :   -0.218698
   2 O :   -0.351792
   3 O :   -0.283155
   4 H :    0.208436
   5 H :    0.110845
   6 H :    0.103792
   7 H :    0.103792
Sum of atomic charges:    0.0000000

--------------------------------
MULLIKEN REDUCED ORBITAL CHARGES
--------------------------------
  0 C s       :     3.016444  s :     3.016444
      pz      :     0.796939  p :     2.443113
      px      :     0.806332
      py      :     0.839842
      dz2     :     0.007047  d :     0.199754
      dxz     :     0.026308
      dyz     :     0.042309
      dx2y2   :     0.045662
      dxy     :     0.078428
      f0      :     0.001527  f :     0.013909
      f+1     :     0.000991
      f-1     :     0.001515
      f+2     :     0.001976
      f-2     :     0.000877
      f+3     :     0.004419
      f-3     :     0.002603

  1 C s       :     3.114551  s :     3.114551
      pz      :     1.054688  p :     3.073645
      px      :     0.997103
      py      :     1.021854
      dz2     :     0.004695  d :     0.029586
      dxz     :     0.002821
      dyz     :     0.005840
      dx2y2   :     0.006536
      dxy     :     0.009695
      f0      :     0.000133  f :     0.000915
      f+1     :     0.000119
      f-1     :    -0.000064
      f+2     :    -0.000023
      f-2     :     0.000178
      f+3     :     0.000330
      f-3     :     0.000242

  2 O s       :     3.827994  s :     3.827994
      pz      :     1.395661  p :     4.489812
      px      :     1.764675
      py      :     1.329476
      dz2     :     0.002754  d :     0.031082
      dxz     :     0.000364
      dyz     :     0.010736
      dx2y2   :     0.008499
      dxy     :     0.008728
      f0      :     0.000319  f :     0.002904
      f+1     :     0.000056
      f-1     :     0.000216
      f+2     :     0.000677
      f-2     :     0.000070
      f+3     :     0.000876
      f-3     :     0.000691

  3 O s       :     3.736564  s :     3.736564
      pz      :     1.737218  p :     4.517920
      px      :     1.252490
      py      :     1.528212
      dz2     :     0.003437  d :     0.026686
      dxz     :     0.003259
      dyz     :     0.003031
      dx2y2   :     0.006141
      dxy     :     0.010818
      f0      :     0.000363  f :     0.001985
      f+1     :     0.000428
      f-1     :     0.000184
      f+2     :     0.000115
      f-2     :     0.000171
      f+3     :     0.000392
      f-3     :     0.000330

  4 H s       :     0.699608  s :     0.699608
      pz      :     0.027152  p :     0.084878
      px      :     0.025697
      py      :     0.032030
      dz2     :     0.000832  d :     0.007078
      dxz     :     0.000877
      dyz     :     0.001081
      dx2y2   :     0.001785
      dxy     :     0.002504

  5 H s       :     0.850821  s :     0.850821
      pz      :     0.008644  p :     0.036543
      px      :     0.018011
      py      :     0.009888
      dz2     :     0.000172  d :     0.001791
      dxz     :     0.000370
      dyz     :     0.000165
      dx2y2   :     0.000541
      dxy     :     0.000543

  6 H s       :     0.853883  s :     0.853883
      pz      :     0.016946  p :     0.040457
      px      :     0.008631
      py      :     0.014880
      dz2     :     0.000579  d :     0.001867
      dxz     :     0.000322
      dyz     :     0.000565
      dx2y2   :     0.000178
      dxy     :     0.000223

  7 H s       :     0.853883  s :     0.853883
      pz      :     0.016946  p :     0.040457
      px      :     0.008631
      py      :     0.014880
      dz2     :     0.000579  d :     0.001867
      dxz     :     0.000322
      dyz     :     0.000565
      dx2y2   :     0.000178
      dxy     :     0.000223



                     *******************************
                     * LOEWDIN POPULATION ANALYSIS *
                     *******************************

----------------------
LOEWDIN ATOMIC CHARGES
----------------------
   0 C :   -0.176318
   1 C :   -0.010946
   2 O :   -0.057705
   3 O :    0.167139
   4 H :   -0.036453
   5 H :    0.034556
   6 H :    0.039864
   7 H :    0.039864

-------------------------------
LOEWDIN REDUCED ORBITAL CHARGES
-------------------------------
  0 C s       :     2.779243  s :     2.779243
      pz      :     0.760792  p :     2.664843
      px      :     0.895113
      py      :     1.008938
      dz2     :     0.038407  d :     0.650799
      dxz     :     0.068700
      dyz     :     0.108419
      dx2y2   :     0.168038
      dxy     :     0.267235
      f0      :     0.004152  f :     0.081434
      f+1     :     0.004248
      f-1     :     0.007121
      f+2     :     0.013214
      f-2     :     0.005251
      f+3     :     0.030388
      f-3     :     0.017059

  1 C s       :     2.754172  s :     2.754172
      pz      :     1.052545  p :     3.078813
      px      :     1.011100
      py      :     1.015168
      dz2     :     0.031413  d :     0.161841
      dxz     :     0.008919
      dyz     :     0.042933
      dx2y2   :     0.028628
      dxy     :     0.049947
      f0      :     0.000740  f :     0.016120
      f+1     :     0.002803
      f-1     :     0.003123
      f+2     :     0.002292
      f-2     :     0.001197
      f+3     :     0.002456
      f-3     :     0.003510

  2 O s       :     3.471234  s :     3.471234
      pz      :     1.353579  p :     4.499280
      px      :     1.654848
      py      :     1.490853
      dz2     :     0.009005  d :     0.072661
      dxz     :     0.000556
      dyz     :     0.015114
      dx2y2   :     0.026536
      dxy     :     0.021450
      f0      :     0.001094  f :     0.014531
      f+1     :     0.000356
      f-1     :     0.002325
      f+2     :     0.001716
      f-2     :     0.000214
      f+3     :     0.004546
      f-3     :     0.004280

  3 O s       :     3.314082  s :     3.314082
      pz      :     1.614559  p :     4.436001
      px      :     1.278440
      py      :     1.543002
      dz2     :     0.010053  d :     0.071087
      dxz     :     0.008802
      dyz     :     0.002628
      dx2y2   :     0.018075
      dxy     :     0.031530
      f0      :     0.000856  f :     0.011691
      f+1     :     0.001393
      f-1     :     0.000625
      f+2     :     0.000463
      f-2     :     0.001079
      f+3     :     0.004135
      f-3     :     0.003139

  4 H s       :     0.676878  s :     0.676878
      pz      :     0.082894  p :     0.291071
      px      :     0.083369
      py      :     0.124808
      dz2     :     0.006147  d :     0.068504
      dxz     :     0.009668
      dyz     :     0.012763
      dx2y2   :     0.020517
      dxy     :     0.019409

  5 H s       :     0.816511  s :     0.816511
      pz      :     0.033800  p :     0.127112
      px      :     0.056495
      py      :     0.036816
      dz2     :     0.002026  d :     0.021821
      dxz     :     0.005314
      dyz     :     0.001548
      dx2y2   :     0.006764
      dxy     :     0.006168

  6 H s       :     0.807152  s :     0.807152
      pz      :     0.052275  p :     0.131452
      px      :     0.033453
      py      :     0.045724
      dz2     :     0.006561  d :     0.021532
      dxz     :     0.004140
      dyz     :     0.006079
      dx2y2   :     0.002215
      dxy     :     0.002537

  7 H s       :     0.807152  s :     0.807152
      pz      :     0.052275  p :     0.131452
      px      :     0.033453
      py      :     0.045724
      dz2     :     0.006561  d :     0.021532
      dxz     :     0.004140
      dyz     :     0.006079
      dx2y2   :     0.002215
      dxy     :     0.002537



                      *****************************
                      * MAYER POPULATION ANALYSIS *
                      *****************************

  NA   - Mulliken gross atomic population
  ZA   - Total nuclear charge
  QA   - Mulliken gross atomic charge
  VA   - Mayer's total valence
  BVA  - Mayer's bonded valence
  FA   - Mayer's free valence

  ATOM       NA         ZA         QA         VA         BVA        FA
  0 C      5.6732     6.0000     0.3268     4.0853     4.0853    -0.0000
  1 C      6.2187     6.0000    -0.2187     3.8633     3.8633     0.0000
  2 O      8.3518     8.0000    -0.3518     2.1249     2.1249     0.0000
  3 O      8.2832     8.0000    -0.2832     2.1464     2.1464    -0.0000
  4 H      0.7916     1.0000     0.2084     1.0635     1.0635     0.0000
  5 H      0.8892     1.0000     0.1108     1.0069     1.0069     0.0000
  6 H      0.8962     1.0000     0.1038     1.0031     1.0031     0.0000
  7 H      0.8962     1.0000     0.1038     1.0031     1.0031     0.0000

  Mayer bond orders larger than 0.100000
B(  0-C ,  1-C ) :   0.9299 B(  0-C ,  2-O ) :   1.9903 B(  0-C ,  3-O ) :   1.1451 
B(  1-C ,  5-H ) :   1.0008 B(  1-C ,  6-H ) :   0.9625 B(  1-C ,  7-H ) :   0.9625 
B(  3-O ,  4-H ) :   0.9631 

-------
TIMINGS
-------

Total SCF time: 0 days 0 hours 0 min 4 sec 

Total time                  ....       4.535 sec
Sum of individual times     ....       4.256 sec  ( 93.9%)

SCF preparation             ....       0.124 sec  (  2.7%)
Fock matrix formation       ....       3.799 sec  ( 83.8%)
  Startup                   ....       0.009 sec  (  0.2% of F)
  Coulomb formation         ....       3.376 sec  ( 88.9% of F)
  XC integration            ....       0.444 sec  ( 11.7% of F)
    XC Preparation          ....       0.000 sec  (  0.0% of XC)
    Basis function eval.    ....       0.047 sec  ( 10.6% of XC)
    Density eval.           ....       0.052 sec  ( 11.6% of XC)
    XC-Functional eval.     ....       0.010 sec  (  2.3% of XC)
    XC-Potential eval.      ....       0.064 sec  ( 14.5% of XC)
Diagonalization             ....       0.000 sec  (  0.0%)
Density matrix formation    ....       0.055 sec  (  1.2%)
Total Energy calculation    ....       0.019 sec  (  0.4%)
Population analysis         ....       0.027 sec  (  0.6%)
Orbital Transformation      ....       0.017 sec  (  0.4%)
Orbital Orthonormalization  ....       0.000 sec  (  0.0%)
DIIS solution               ....       0.156 sec  (  3.4%)
SOSCF solution              ....       0.059 sec  (  1.3%)
Finished LeanSCF after   4.6 sec

Maximum memory used throughout the entire LEANSCF-calculation: 16.1 MB


           ************************************************************
           *        Program running with 8 parallel MPI-processes     *
           *              working on a common directory               *
           ************************************************************

------------------------------------------------------------------------------
                         ORCA PROPERTY INTEGRAL CALCULATIONS
------------------------------------------------------------------------------

GBWName                                   ... /cluster/projects/nn14654k/ylvaos/basis_set_n_funcs/functionals/lda_x/CH3COOH/inp/CH3COOH_lda_x_pcseg2.gbw
Number of atoms                           ...      8
Number of basis functions                 ...    176
Max core memory                           ...   4096 MB

Dipole integrals                          ... YES
Quadrupole integrals                      ... YES
Linear momentum integrals                 ...  NO
Angular momentum integrals                ...  NO
Higher moments length integrals           ...  NO
Higher moments velocity integrals         ...  NO
Kinetic energy integrals                  ...  NO
GIAO right hand sides                     ...  NO
GIAO dipole derivative integrals          ...  NO
SOC integrals                             ...  NO
EPR diamagnetic integrals (GIAO)          ...  NO
EPR gauge integrals                       ...  NO
Field gradient integrals                  ...  NO (   0 nuclei)
Spin-dipole/Fermi contact integrals       ...  NO (   0 nuclei)
Contact density integrals                 ...  NO (   0 nuclei)
Nucleus-orbit integrals                   ...  NO (   0 nuclei)
Geometric perturbations                   ...  NO (   8 nuclei)

Choice of electric origin   ... Center of mass
Position of electric origin ... ( -0.0657,  0.0975,  0.0000) 
Choice of magnetic origin   ... GIAO
Position of magnetic origin ... (  0.0000,  0.0000,  0.0000) 

Calculating integrals                     ... Electric Dipole (Length)     done (  0.0 sec)
Calculating integrals                     ... Electric Quadrupole (Length) done (  0.0 sec)

Property integrals calculated in   0.0 sec

Maximum memory used throughout the entire PROPINT-calculation: 9.7 MB
------------------------------------------------------------------------------
                           ORCA ORBITAL LOCALIZATION
------------------------------------------------------------------------------

Input orbitals are from                  ... /cluster/projects/nn14654k/ylvaos/basis_set_n_funcs/functionals/lda_x/CH3COOH/inp/CH3COOH_lda_x_pcseg2.gbw
Output orbitals are to                   ... /cluster/projects/nn14654k/ylvaos/basis_set_n_funcs/functionals/lda_x/CH3COOH/inp/CH3COOH_lda_x_pcseg2.loc
Max. number of iterations                ... 128
Localizations seeded randomly            ... on
Convergence tolerance                    ... 1.000e-06
Threshold for strong local MOs           ... 9.500e-01
Threshold for bond MOs                   ... 8.500e-01
Operator                                 ... 0
Orbital range for localization           ... 4 to 15
Localization criterion                   ... NEW-BOYS
Doing the dipole integrals               ... o.k.
Initial value of the localization sum :    67.940910
ITERATION   0 : L=   79.5451267001 DL=  1.16e+01 (AVERGE_DL)=    0.4193107095 
ITERATION   1 : L=   80.8678386532 DL=  1.32e+00 (AVERGE_DL)=    0.1415665575 
ITERATION   2 : L=   80.9099698420 DL=  4.21e-02 (AVERGE_DL)=    0.0252656159 
ITERATION   3 : L=   80.9128348311 DL=  2.86e-03 (AVERGE_DL)=    0.0065885449 
ITERATION   4 : L=   80.9139868002 DL=  1.15e-03 (AVERGE_DL)=    0.0041778078 
ITERATION   5 : L=   80.9149993656 DL=  1.01e-03 (AVERGE_DL)=    0.0039168738 
ITERATION   6 : L=   80.9158774088 DL=  8.78e-04 (AVERGE_DL)=    0.0036474215 
ITERATION   7 : L=   80.9165939410 DL=  7.17e-04 (AVERGE_DL)=    0.0032949277 
ITERATION   8 : L=   80.9171463810 DL=  5.52e-04 (AVERGE_DL)=    0.0028931476 
ITERATION   9 : L=   80.9175531071 DL=  4.07e-04 (AVERGE_DL)=    0.0024824417 
ITERATION  10 : L=   80.9178419318 DL=  2.89e-04 (AVERGE_DL)=    0.0020919207 
ITERATION  11 : L=   80.9180414580 DL=  2.00e-04 (AVERGE_DL)=    0.0017387135 
ITERATION  12 : L=   80.9181764637 DL=  1.35e-04 (AVERGE_DL)=    0.0014302242 
ITERATION  13 : L=   80.9182664130 DL=  8.99e-05 (AVERGE_DL)=    0.0011674190 
ITERATION  14 : L=   80.9183256575 DL=  5.92e-05 (AVERGE_DL)=    0.0009474411 
ITERATION  15 : L=   80.9183643454 DL=  3.87e-05 (AVERGE_DL)=    0.0007656242 
ITERATION  16 : L=   80.9183894486 DL=  2.51e-05 (AVERGE_DL)=    0.0006167256 
ITERATION  17 : L=   80.9184056597 DL=  1.62e-05 (AVERGE_DL)=    0.0004956042 
ITERATION  18 : L=   80.9184160897 DL=  1.04e-05 (AVERGE_DL)=    0.0003975294 
ITERATION  19 : L=   80.9184227821 DL=  6.69e-06 (AVERGE_DL)=    0.0003184342 
ITERATION  20 : L=   80.9184270674 DL=  4.29e-06 (AVERGE_DL)=    0.0002548113 
ITERATION  21 : L=   80.9184298061 DL=  2.74e-06 (AVERGE_DL)=    0.0002037050 
ITERATION  22 : L=   80.9184315551 DL=  1.75e-06 (AVERGE_DL)=    0.0001627873 
ITERATION  23 : L=   80.9184326705 DL=  1.12e-06 (AVERGE_DL)=    0.0001299983 
ITERATION  24 : L=   80.9184333815 DL=  7.11e-07 (AVERGE_DL)=    0.0001037955 
LOCALIZATION SUM CONVERGED


--------------------------------------------------------------------------------
                    LOCALIZED MOLECULAR ORBITAL COMPOSITIONS
--------------------------------------------------------------------------------

The Mulliken populations for each LMO on each atom are computed
The LMO`s will be ordered according to atom index and type
  (A) Strongly localized MO`s have populations of >=0.950 on one atom
  (B) Two center bond orbitals have populations of >=0.850 on two atoms
  (C) Other MO`s are considered to be `delocalized`

FOUND  -   2 strongly local MO`s
       -  10 two center bond MO`s
       -   0 significantly delocalized MO`s

Rather strongly localized orbitals:
MO   5:   3O  -   0.972850
MO   4:   2O  -   0.952834
Bond-like localized orbitals:
MO  15:   7H  -   0.455128  and   1C  -   0.541575
MO  14:   6H  -   0.455156  and   1C  -   0.541527
MO  13:   5H  -   0.450029  and   1C  -   0.578448
MO  12:   4H  -   0.369287  and   3O  -   0.635513
MO  11:   3O  -   0.701957  and   0C  -   0.315450
MO  10:   3O  -   0.873534  and   0C  -   0.120878
MO   9:   2O  -   0.650326  and   0C  -   0.360504
MO   8:   2O  -   0.649668  and   0C  -   0.361511
MO   7:   2O  -   0.941568  and   0C  -   0.056275
MO   6:   1C  -   0.469185  and   0C  -   0.556379
Localized MO's were stored in: /cluster/projects/nn14654k/ylvaos/basis_set_n_funcs/functionals/lda_x/CH3COOH/inp/CH3COOH_lda_x_pcseg2.loc

-------------------------   --------------------
FINAL SINGLE POINT ENERGY      -225.275153014246
-------------------------   --------------------



           ************************************************************
           *        Program running with 8 parallel MPI-processes     *
           *              working on a common directory               *
           ************************************************************

------------------------------------------------------------------------------
                              ORCA PROPERTY CALCULATIONS
------------------------------------------------------------------------------

GBWName                                 ... /cluster/projects/nn14654k/ylvaos/basis_set_n_funcs/functionals/lda_x/CH3COOH/inp/CH3COOH_lda_x_pcseg2.gbw
Number of atoms                         ...      8
Number of basis functions               ...    176
Max core memory                         ...   4096 MB

Electric properties:
Dipole moment                           ... YES
Quadrupole moment                       ... YES
Static polarizability (Dipole/Dipole)   ...  NO
Static polarizability (Dipole/Quad.)    ...  NO
Static polarizability (Quad./Quad.)     ...  NO
Static polarizability (Velocity)        ...  NO
Static hyperpolarizability              ...  NO

Atomic electric properties:
Dipole moment                           ...  NO
Quadrupole moment                       ...  NO
Static polarizability                   ...  NO

Choice of electric origin               ... Center of mass
Position of electric origin             ...    -0.065707     0.097461     0.000000

General magnetic properties:
Magnetizability                         ...  NO

EPR properties:
g-Tensor (aka g-matrix)                 ...  NO
Zero-Field splitting spin-orbit         ...  NO
Zero-field splitting spin-spin          ...  NO
Hyperfine couplings                     ...  NO (   0 nuclei)
Quadrupole couplings                    ...  NO (   0 nuclei)
Contact density                         ...  NO (   0 nuclei)

NMR properties:
Chemical shifts                         ...  NO (   0 nuclei)
Spin-rotation constants                 ...  NO (   0 nuclei)
Spin-spin couplings                     ...  NO (   0 nuclei,    0 pairs)

Choice of magnetic origin               ... GIAO
Position of magnetic origin             ...     0.000000     0.000000     0.000000

Properties with geometric perturbations:
SCF Hessian                             ...  NO
IR spectrum                             ...  NO
VCD spectrum                            ...  NO
X-ray spectroscopy properties:
SCF XES/XAS/RIXS spectra                ...  NO

SCF SOC stabilization energy            ...  NO
Diagonal Born-Oppenheimer correction    ...  NO

-------------
DIPOLE MOMENT
-------------

Method             : SCF
Type of density    : Electron Density
Multiplicity       :   1
Irrep              :   0
Energy             :  -225.2751530142459160 Eh
Basis              : AO
                                X                 Y                 Z
Electronic contribution:     -2.218476398       2.433836753       0.000000003
Nuclear contribution   :      2.102617427      -3.118765285       0.000000000
                        -----------------------------------------
Total Dipole Moment    :     -0.115858971      -0.684928532       0.000000003
                        -----------------------------------------
Magnitude (a.u.)       :      0.694658473
Magnitude (Debye)      :      1.765681518



--------------------
Rotational spectrum 
--------------------
 
Rotational constants in cm-1:             0.373252             0.316126             0.176788 
Rotational constants in MHz :         11189.819630          9477.229268          5299.974115 

Dipole components along the rotational axes: 
x,y,z [a.u.] :    -0.356822    -0.596011     0.000000 
x,y,z [Debye]:    -0.906969    -1.514939     0.000000 

 

Dipole moment calculation done in   0.0 sec 

-----------------
QUADRUPOLE MOMENT
-----------------

Method             : SCF
Type of density    : Electron Density
Multiplicity       :   1
Irrep              :   0
Energy             :  -225.2751530142459160 Eh
Basis              : AO

                XX              YY              ZZ              XY              XZ              YZ
  NUC      103.447904006    93.335807526     5.552847104   -15.402641721     0.000000000     0.000000000
  EL      -119.095170742  -114.386214788   -23.466250083    12.688974990     0.000000001    -0.000000002
  TOT      -15.647266736   -21.050407262   -17.913402979    -2.713666731     0.000000001    -0.000000002 (a.u.)
           -21.046108897   -28.313517691   -24.094139646    -3.649974561     0.000000002    -0.000000002 (Buckingham)

diagonalized tensor:
           -22.177997352   -17.913402979   -14.519676646 (a.u.)
           -29.830164926   -24.094139646   -19.529461661 (Buckingham)
           -16.036728546     1.171347296    14.865381250 (traceless form in Buckingham)

            -0.383715065    -0.000000001    -0.923451541
            -0.923451541    -0.000000000     0.383715065
            -0.000000000     1.000000000    -0.000000001
        
Isotropic quadrupole :   -18.203692326

Quadrupole moment calculation done in   0.0 sec (  0.0 sec for integrals)

Maximum memory used throughout the entire PROP-calculation: 6.4 MB

--------------------------------
SUGGESTED CITATIONS FOR THIS RUN
--------------------------------

Below you find a list of papers that are relevant to this ORCA run
We neither can nor want to force you to cite these papers, but we appreciate if you do
You receive ORCA, which is the product of decades of hard work by many enthusiastic individuals, for free
The only thing we kindly ask in return is that you cite our papers,
We deeply appreciate it, if you show your appreciation for ORCA by not just citing the generic ORCA reference.

Please note that relegating all ORCA citations to the supporting information does *not* help us.
SI sections are not indexed - citations you put there will not count into any citation statistics
But we need these citations in order to attract the funding resources that allow us to do what we are doing

Therefore, if you are a happy ORCA user, please consider citing a few of the papers listed below in the main body of your paper

In addition to the list printed below, the program has created the file /cluster/projects/nn14654k/ylvaos/basis_set_n_funcs/functionals/lda_x/CH3COOH/inp/CH3COOH_lda_x_pcseg2.bibtex that contains the list in bibtex format
You can import this file easily into all common literature databanks and citation aid programs

It goes without saying that in many instances, there are alternative algorithms to achieve similar
results as the ones you have gotten from ORCA. It is, of course, also the case that in some instances
ORCA just re-implements algorithms worked out by others. We are fully aware of that and we are also
fully appreciative of our colleagues work. Hence this citation list should not be read as indicating
that the listed papers, which are focused on our own work, are the only ones worth citing. It simply
meant to make it easier for users to cite ORCA specific papers. It is not a substitute for doing your
own literature research and citing the relevant literature in a scientifically appropriate manner.

List of essential papers. We consider these as the minimum necessary citations

  1. Neese, F.
     Software update: the ORCA program system, version 6.0
     WIRES Comput. Molec. Sci. 2025 15(1), e70019
     doi.org/10.1002/wcms.70019

List of papers to cite with high priority. The work reported in these papers was absolutely
necessary for this run to complete.
Our perspective: the developers of density functionals and basis sets usually get cited in chemistry papers
Good! But without the algorithms to do something with them, the functionals or basis sets would not do anything.
Hence, in our opinion, the algorithm design and method developments papers are equally worthy of getting cited

  1. Lehtola, S.; Steigemann, C.; Oliveira, M.; Marques, M.
     Recent developments in Libxc - A comprehensive library of functionals for density functional theory
     Software X 2018 7 , 
     doi.org/10.1016/j.softx.2017.11.002
  2. Neese, F.
     The SHARK Integral Generation and Digestion System
     J. Comp. Chem. 2022 44(3), 381
     doi.org/10.1002/jcc.26942

List of suggested additional citations. These are papers that are important in the 'surrounding' of 
of this run, or papers that preceded the highly important papers. If you like your results we are grateful for a citation.

  1. Neese, F.
     The ORCA program system
     WIRES Comput. Molec. Sci. 2012 2(1), 73-78
     doi.org/10.1002/wcms.81
  2. Neese, F.
     Software update: the ORCA program system, version 4.0
     WIRES Comput. Molec. Sci. 2018 8(1), 1-6
     doi.org/10.1002/wcms.1327
  3. Neese, F.; Wennmohs, F.; Becker, U.; Riplinger, C.
     The ORCA quantum chemistry program package
     J. Chem. Phys. 2020 152(22), 224108
     doi.org/10.1063/5.0004608
  4. Neese, F.
     Software update: The ORCA program system—Version 5.0
     WIRES Comput. Molec. Sci. 2022 12(1), e1606
     doi.org/10.1002/wcms.1606

List of optional additional citations

  1. Neese, F.
     Approximate second-order SCF convergence for spin unrestricted wavefunctions
     Chem. Phys. Lett. 2000 325(1-3), 93-98
     doi.org/10.1016/s0009-2614(00)00662-x

Timings for individual modules:

Sum of individual times          ...        6.025 sec (=   0.100 min)
Startup calculation              ...        0.388 sec (=   0.006 min)   6.4 %
SCF iterations                   ...        5.112 sec (=   0.085 min)  84.8 %
Property integrals               ...        0.278 sec (=   0.005 min)   4.6 %
Property calculations            ...        0.242 sec (=   0.004 min)   4.0 %
Orbital localization             ...        0.005 sec (=   0.000 min)   0.1 %
                             ****ORCA TERMINATED NORMALLY****
TOTAL RUN TIME: 0 days 0 hours 0 minutes 6 seconds 816 msec
