
                                 *****************
                                 * O   R   C   A *
                                 *****************

                                            #,                                       
                                            ###                                      
                                            ####                                     
                                            #####                                    
                                            ######                                   
                                           ########,                                 
                                     ,,################,,,,,                         
                               ,,#################################,,                 
                          ,,##########################################,,             
                       ,#########################################, ''#####,          
                    ,#############################################,,   '####,        
                  ,##################################################,,,,####,       
                ,###########''''           ''''###############################       
              ,#####''   ,,,,##########,,,,          '''####'''          '####       
            ,##' ,,,,###########################,,,                        '##       
           ' ,,###''''                  '''############,,,                           
         ,,##''                                '''############,,,,        ,,,,,,###''
      ,#''                                            '''#######################'''  
     '                                                          ''''####''''         
             ,#######,   #######,   ,#######,      ##                                
            ,#'     '#,  ##    ##  ,#'     '#,    #''#        ,####,    ,#,          
            ##       ##  ##   ,#'  ##            #'  '#       #'       ,# #          
            ##       ##  #######   ##           ,######,      #####,      #          
            '#,     ,#'  ##    ##  '#,     ,#' ,#      #,     #,   #      #          
             '#######'   ##     ##  '#######'  #'      '#     '####' #    #          



                #########################################################
                #                        -***-                          #
                #          Department of theory and spectroscopy        #
                #                                                       #
                #                      Frank Neese                      #
                #                                                       #
                #     Directorship, Architecture, Infrastructure        #
                #                    SHARK, DRIVERS                     #
                #        Core code/Algorithms in most modules           #
                #                                                       #
                #        Max Planck Institute fuer Kohlenforschung      #
                #                Kaiser Wilhelm Platz 1                 #
                #                 D-45470 Muelheim/Ruhr                 #
                #                      Germany                          #
                #                                                       #
                #                  All rights reserved                  #
                #                        -***-                          #
                #########################################################


                         Program Version 6.1.1  -  RELEASE   -
                                (GIT: $487d211c$)
                          ($2025-11-21 10:33:24 +0100$)


 With contributions from (in alphabetic order):
[Max-Planck-Institut fuer Kohlenforschung]                               
  Daniel Aravena         : Magnetic Suceptibility                        
  Michael Atanasov       : Ab Initio Ligand Field Theory (pilot matlab implementation)
  Alexander A. Auer      : GIAO ZORA, VPT2 properties, NMR spectrum      
  Ute Becker             : All parallelization in ORCA, NUMFREQ, NUMCALC 
  Giovanni Bistoni       : ED, misc. LED, open-shell LED, HFLD           
  Dmytro Bykov           : pre 5.0 version of the SCF Hessian            
  Marcos Casanova-Páez   : Triplet and SCS-CIS(D). UHF-(DLPNO)-IP/EA/STEOM-CCSD. UHF-CVS-IP/STEOM-CCSD   
  Vijay G. Chilkuri      : MRCI spin determinant printing, contributions to CSF-ICE 
  Pauline Colinet        : FMM embedding                                 
  Dipayan Datta          : RHF DLPNO-CCSD density                        
  Achintya Kumar Dutta   : EOM-CC, STEOM-CC                              
  Nicolas Foglia         : Exact transition moments, OPA infrastructure, MCD improvements    
  Dmitry Ganyushin       : Spin-Orbit,Spin-Spin,Magnetic field MRCI      
  Miquel Garcia-Rates    : C-PCM and meta-GGA Hessian, CCSD/C-PCM, Gaussian charge scheme 
  Tiago L. C. Gouveia    : GS-ROHF, GS-ROCIS                             
  Yang Guo               : DLPNO-NEVPT2, F12-NEVPT2, CIM, IAO-localization        
  Andreas Hansen         : Spin unrestricted coupled pair/coupled cluster methods 
  Ingolf Harden          : AUTO-CI MPn and infrastructure                
  Benjamin Helmich-Paris : MC-RPA, TRAH-(SCF,CASSCF), AVAS, COSX integrals, SCF dyn. polar., MC-PDFT, srDFT 
  Lee Huntington         : MR-EOM, pCC                                   
  Robert Izsak           : Overlap fitted RIJCOSX, COSX-SCS-MP3, EOM     
  Riya Kayal             : Wick's Theorem for AUTO-CI, AUTO-CI UHF-CCSDT 
  Emily Kempfer          : AUTO-CI RHF CISDT and CCSDT, approximate NEVPT4
  Christian Kollmar      : KDIIS, OOCD, Brueckner-CCSD(T), CCSD density, CASPT2, CASPT2-K, improved NEVPT2 
  Axel Koslowski         : Symmetry handling                             
  Simone Kossmann        : meta-GGA functionals, TD-DFT gradient, OOMP2, (MP2 Hessian; deprecated post 5.0) 
  Lucas Lang             : DCDCAS, Hyperfine gauge corrections, ICE-SOC+SSC
  Marvin Lechner         : AUTO-CI (C++ implementation), FIC-MRCC        
  Spencer Leger          : CASSCF response                               
  Dagmar Lenk            : GEPOL surface, SMD, ORCA-2-JSON               
  Dimitrios Liakos       : Extrapolation schemes; Compound Job, Property file
  Dimitrios Manganas     : Further ROCIS development; embedding schemes. LFT, Crystal Embedding 
  Dimitrios Pantazis     : SARC Basis sets                               
  Anastasios Papadopoulos: AUTO-CI, single reference methods and gradients 
  Taras Petrenko         : pre 6.0 DFT Hessian and TD-DFT gradient,  ECA, NRVS 
  Petra Pikulova         : Analytic Raman intensities                    
  Peter Pinski           : DLPNO-MP2, DLPNO-MP2 Gradient                 
  Shashank Vittal Rao    : ES-AILFT, MagRelax                            
  Christoph Reimann      : Effective Core Potentials                     
  Marius Retegan         : Local ZFS, SOC                                
  Christoph Riplinger    : Optimizer, TS searches, QM/MM, DLPNO-CCSD(T), (RO)-DLPNO pert. Triples 
  Michael Roemelt        : Original ROCIS implementation, recursive CI coupling coefficients
  Masaaki Saitow         : Open-shell DLPNO-CCSD energy and density      
  Barbara Sandhoefer     : DKH picture change effects                    
  Yorick L. A. Schmerwitz: GMF and freeze-and-release deltaSCF, NEB S-IDPP initial path                    
  Kantharuban Sivalingam : CASSCF convergence/infrastructure, NEVPT2, NEVPT3, NEVPT4(SD), FIC-MRCI and CEPA variants
  Bernardo de Souza      : ESD, SOC TD-DFT                               
  Georgi L. Stoychev     : AutoAux, RI-MP2 NMR, DLPNO-MP2 response, X2C  
  Van Anh Tran           : RI-MP2 g-tensors                              
  Willem Van den Heuvel  : Paramagnetic NMR                              
  Zikuan Wang            : NOTCH, Electric field optimization            
  Frank Wennmohs         : Technical directorship and infrastructure     
  Hang Xu                : AUTO-CI-Response properties                   
                                                                         
[FACCTs GmbH]                                                            
  Markus Bursch, Nicolas Foglia, Miquel Garcia-Rates, Ingolf Harden, Hagen Neugebauer, Anastasios Papadopoulos, 
  Christoph Riplinger, Bernardo de Souza, Georgi L. Stoychev                                                    
                                                                 
  APM, various basis sets, CI-OPT, improved COSX, DLPNO-Multilevel,           
  DOCKER, DRACO, updates on ESD, Fragmentator, GOAT, IRC, LR-CPCM, L-BFGS, MBIS, meta-GGA TD-DFT gradient, ML-optimized integration grids, 
  MM, NACMEs, nearIR, NEB, NEB-TS, NL-DFT gradient (VV10), 2- and 3-layer-ONIOM, interface openCOSMO-RS, QMMM,   
  Crystal-QMMM, RESP, rigid body optimization, SF, symmetry and pop. for TD-DFT, various functionals, SOLVATOR                                   
                                                                         
[Other institutions]                                                     
  V. Asgeirsson          : NEB                                           
  Christoph Bannwarth    : sTDA-DFT, sTD-DFT, PBEh-3c, B97-3c, D3        
  Giovanni Bistoni       : ETS/NOCV, ADLD/ADEX, COVALED                  
  Martin Brehm           : Molecular dynamics                            
  Ronald Cardenas        : ETS/NOCV                                      
  Martina Colucci        : COVALED                                       
  Sebastian Ehlert       : rSCAN, r2SCAN, r2SCAN-3c, D4, dhf basis sets  
  Marvin Friede          : D4 for Fr, Ra, Ac-Lr                          
  Lars Goerigk           : TD-DFT with DH, B97 family of functionals     
  Stefan Grimme          : VdW corrections, initial TS optimization, DFT functionals, gCP, sTDA/sTD-DF 
  Waldemar Hujo          : DFT-NL                                        
  H. Jonsson             : NEB                                           
  Holger Kruse           : gCP                                           
  Marcel Mueller         : wB97X-3c, vDZP basis set                      
  Hagen Neugebauer       : wr2SCAN, Native XTB                           
  Gianluca Regni         : ADLD/ADEX                                     
  Tobias Risthaus        : pre 6.0 range-separated hybrid DFT and stability analysis
  Lukas Wittmann         : regularized MP2, r2SCAN double-hybrids, wr2SCAN        
                                                                         
We gratefully acknowledge several colleagues who have allowed us to      
interface, adapt or use parts of their codes:                            
  Ed Valeev, F. Pavosevic, A. Kumar             : LibInt (2-el integral package), F12 methods 
  Garnet Chan, S. Sharma, J. Yang, R. Olivares  : DMRG                   
  Ulf Ekstrom                                   : XCFun DFT Library      
  Mihaly Kallay                                 : mrcc  (arbitrary order and MRCC methods)
  Frank Weinhold                                : gennbo (NPA and NBO analysis)           
  Simon Mueller                                 : openCOSMO-RS                            
  Christopher J. Cramer and Donald G. Truhlar   : smd solvation model                     
  S Lehtola, MJT Oliveira, MAL Marques          : LibXC Library                           
  Liviu Ungur et al                             : ANISO software                          


 Your calculation uses the libint2 library for the computation of 2-el integrals
 For citations please refer to: http://libint.valeyev.net

 Your ORCA version has been built with support for libXC version: 7.0.0
 For citations please refer to: https://libxc.gitlab.io

 This ORCA versions uses:
   CBLAS   interface :  Fast vector & matrix operations
   LAPACKE interface :  Fast linear algebra routines
   SCALAPACK package :  Parallel linear algebra routines
   Shared memory     :  Shared parallel matrices
   BLAS/LAPACK       :  OpenBLAS 0.3.29  USE64BITINT DYNAMIC_ARCH NO_AFFINITY Cooperlake SINGLE_THREADED
        Core in use  :  Cooperlake
   Copyright (c) 2011-2014, The OpenBLAS Project


  ***********************************
  * Starting time: Wed May 20 12:33:32 2026
  * Host name:     c1-4
  * Process ID:    475068
  * Working dir.:  /cluster/projects/nn14654k/ylvaos/basis_set_n_funcs/functionals/lda_x/CH3COOH/out
  ***********************************

Using LibXC functional ID   1 : Slater exchange
[ 1]  P. A. M. Dirac.,  Math. Proc. Cambridge Philos. Soc. 26, 376 (1930)
[ 2]  F. Bloch.,  Z. Phys. 57, 545 (1929)
Using LibXC functional ID   1 : Slater exchange
[ 1]  P. A. M. Dirac.,  Math. Proc. Cambridge Philos. Soc. 26, 376 (1930)
[ 2]  F. Bloch.,  Z. Phys. 57, 545 (1929)
Your calculation utilizes LibXC
by S. Lehtola, C. Steigemann, M. J. T. Oliveira & M. A. L. Marques
Please cite in your paper:
Lehtola, S.; Steigemann, C.; Oliveira, M.J.T.; Marques, M. A. L. Software X, 7, (2018), 1.
   

================================================================================

----- Orbital basis set information -----
Your calculation utilizes the basis: aug-cc-pVQZ 
    H, B-Ne : Obtained from the ccRepo (grant-hill.group.shef.ac.uk/ccrepo) Feb. 2017
              R. A. Kendall, T. H. Dunning, Jr., R. J. Harrison, J. Chem. Phys. 96, 6796 (1992)
         He : Obtained from the ccRepo (grant-hill.group.shef.ac.uk/ccrepo) Feb. 2017
              D. E. Woon, T. H. Dunning, Jr., J. Chem. Phys. 100, 2975 (1994)
  Li-Be, Na : Obtained from the ccRepo (grant-hill.group.shef.ac.uk/ccrepo) Feb. 2017
              B. P. Prascher, D. E. Woon, K. A. Peterson, T. H. Dunning, Jr., A. K. Wilson, Theor. Chem. Acc. 128, 69 (2011)
         Mg : Obtained from the Peterson Research Group Website (tyr0.chem.wsu.edu/~kipeters) Feb. 2017
              B. P. Prascher, D. E. Woon, K. A. Peterson, T. H. Dunning, Jr., A. K. Wilson, Theor. Chem. Acc. 128, 69 (2011)
      Al-Ar : Obtained from the ccRepo (grant-hill.group.shef.ac.uk/ccrepo) Feb. 2017
              D. E. Woon, T. H. Dunning, Jr., J. Chem. Phys. 98, 1358 (1993)
      Sc-Zn : Obtained from the ccRepo (grant-hill.group.shef.ac.uk/ccrepo) Feb. 2017
              N. B. Balabanov, K. A. Peterson, J. Chem. Phys. 123, 064107 (2005)
              N. B. Balabanov, K. A. Peterson, J. Chem. Phys. 125, 074110 (2006)
      Ga-Kr : Obtained from the ccRepo (grant-hill.group.shef.ac.uk/ccrepo) Feb. 2017
              A. K. Wilson, D. E. Woon, K. A. Peterson, T. H. Dunning, Jr., J. Chem. Phys. 110, 7667 (1999)

================================================================================
                                        WARNINGS
                       Please study these warnings very carefully!
================================================================================


================================================================================
                                       INPUT FILE
================================================================================
NAME = /cluster/projects/nn14654k/ylvaos/basis_set_n_funcs/functionals/lda_x/CH3COOH/inp/CH3COOH_lda_x_augccpvqz.inp
|  1> ! dft aug-cc-pVQZ TightSCF
|  2> %pal nprocs 8 end
|  3> 
|  4> %loc
|  5>   LocMet NewBoys
|  6>   Occ true
|  7> end
|  8> 
|  9> %method
| 10>   exchange lda_x
| 11>   correlation None
| 12> end
| 13> 
| 14> %elprop
| 15>   Dipole true
| 16>   Quadrupole true
| 17> end
| 18> 
| 19> * xyz 0 1
| 20> C    0.000000000000   0.154560000000   0.000000000000
| 21> C    1.073776000000  -0.892748000000   0.000000000000
| 22> O    0.166384000000   1.360084000000   0.000000000000
| 23> O   -1.236449000000  -0.415036000000   0.000000000000
| 24> H   -1.867646000000   0.333582000000   0.000000000000
| 25> H    2.048189000000  -0.408135000000   0.000000000000
| 26> H    0.968661000000  -1.528353000000   0.881747000000
| 27> H    0.968661000000  -1.528353000000  -0.881747000000
| 28> *
| 29> 
| 30> 
| 31>                          ****END OF INPUT****
================================================================================

                       ****************************
                       * Single Point Calculation *
                       ****************************

---------------------------------
CARTESIAN COORDINATES (ANGSTROEM)
---------------------------------
  C      0.000000    0.154560    0.000000
  C      1.073776   -0.892748    0.000000
  O      0.166384    1.360084    0.000000
  O     -1.236449   -0.415036    0.000000
  H     -1.867646    0.333582    0.000000
  H      2.048189   -0.408135    0.000000
  H      0.968661   -1.528353    0.881747
  H      0.968661   -1.528353   -0.881747

----------------------------
CARTESIAN COORDINATES (A.U.)
----------------------------
  NO LB      ZA    FRAG     MASS         X           Y           Z
   0 C     6.0000    0    12.011    0.000000    0.292076    0.000000
   1 C     6.0000    0    12.011    2.029143   -1.687049    0.000000
   2 O     8.0000    0    15.999    0.314420    2.570186    0.000000
   3 O     8.0000    0    15.999   -2.336550   -0.784304    0.000000
   4 H     1.0000    0     1.008   -3.529339    0.630379    0.000000
   5 H     1.0000    0     1.008    3.870516   -0.771263    0.000000
   6 H     1.0000    0     1.008    1.830504   -2.888169    1.666260
   7 H     1.0000    0     1.008    1.830504   -2.888169   -1.666260

--------------------------------
INTERNAL COORDINATES (ANGSTROEM)
--------------------------------
 C      0   0   0     0.000000000000     0.00000000     0.00000000
 C      1   0   0     1.499949647502     0.00000000     0.00000000
 O      1   2   0     1.216951827326   126.42686784     0.00000000
 O      1   2   3     1.361339683113   110.98078396   180.00000000
 H      4   1   2     0.979203024267   105.40175469   180.00000085
 H      2   1   3     1.088269476893   109.27200725     0.00000000
 H      2   1   3     1.092025938913   109.72406365   120.93315147
 H      2   1   3     1.092025938913   109.72406365   239.06684853

---------------------------
INTERNAL COORDINATES (A.U.)
---------------------------
 C      0   0   0     0.000000000000     0.00000000     0.00000000
 C      1   0   0     2.834494048450     0.00000000     0.00000000
 O      1   2   0     2.299705671821   126.42686784     0.00000000
 O      1   2   3     2.572559176322   110.98078396   180.00000000
 H      4   1   2     1.850425545371   105.40175469   180.00000085
 H      2   1   3     2.056531271234   109.27200725     0.00000000
 H      2   1   3     2.063629955684   109.72406365   120.93315147
 H      2   1   3     2.063629955684   109.72406365   239.06684853

---------------------
BASIS SET INFORMATION
---------------------
There are 3 groups of distinct atoms

 Group   1 Type C   : 22s7p4d3f2g contracted to 6s5p4d3f2g pattern {991111/31111/1111/111/11}
 Group   2 Type O   : 22s7p4d3f2g contracted to 6s5p4d3f2g pattern {991111/31111/1111/111/11}
 Group   3 Type H   : 7s4p3d2f contracted to 5s4p3d2f pattern {31111/1111/111/11}

Atom   0C    basis set group =>   1
Atom   1C    basis set group =>   1
Atom   2O    basis set group =>   2
Atom   3O    basis set group =>   2
Atom   4H    basis set group =>   3
Atom   5H    basis set group =>   3
Atom   6H    basis set group =>   3
Atom   7H    basis set group =>   3


           ************************************************************
           *        Program running with 8 parallel MPI-processes     *
           *              working on a common directory               *
           ************************************************************
------------------------------------------------------------------------------
                             ORCA STARTUP CALCULATIONS
------------------------------------------------------------------------------
------------------------------------------------------------------------------
                   ___                                                        
                  /   \      - P O W E R E D   B Y -                         
                 /     \                                                     
                 |  |  |   _    _      __       _____    __    __             
                 |  |  |  | |  | |    /  \     |  _  \  |  |  /  |          
                  \  \/   | |  | |   /    \    | | | |  |  | /  /          
                 / \  \   | |__| |  /  /\  \   | |_| |  |  |/  /          
                |  |  |   |  __  | /  /__\  \  |    /   |      \           
                |  |  |   | |  | | |   __   |  |    \   |  |\   \          
                \     /   | |  | | |  |  |  |  | |\  \  |  | \   \       
                 \___/    |_|  |_| |__|  |__|  |_| \__\ |__|  \__/        
                                                                              
                      - O R C A' S   B I G   F R I E N D -                    
                                      &                                       
                       - I N T E G R A L  F E E D E R -                       
                                                                              
 v1 FN, 2020, v2 2021, v3 2022-2024                                           
------------------------------------------------------------------------------


----------------------
SHARK INTEGRAL PACKAGE
----------------------

Number of atoms                             ...      8
Number of basis functions                   ...    532
Number of shells                            ...    164
Maximum angular momentum                    ...      4
Integral batch strategy                     ... SHARK/LIBINT Hybrid
RI-J (if used) integral strategy            ... SPLIT-RIJ (Revised 2003 algorithm where possible)
Printlevel                                  ...      1
Contraction scheme used                     ... PARTIAL GENERAL contraction
Prescreening option                         ... SCHWARTZ
   Thresh                                   ... 2.500e-11
   Tcut                                     ... 2.500e-12
   Tpresel                                  ... 2.500e-12 
Coulomb Range Separation                    ... NOT USED
Exchange Range Separation                   ... NOT USED
Multipole approximations                    ... NOT USED
Finite Nucleus Model                        ... NOT USED
CABS basis                                  ... NOT available
Auxiliary Coulomb fitting basis             ... NOT available
Auxiliary J/K fitting basis                 ... NOT available
Auxiliary Correlation fitting basis         ... NOT available
Auxiliary 'external' fitting basis          ... NOT available

Checking pre-screening integrals            ... done (  0.0 sec) Dimension = 164
Save PGC pre-screening integrals            ... done (  0.0 sec) Dimension = 164
Calculate PGC overlap integrals             ... done (  0.0 sec) Dimension = 136
Calculating pre-screening integrals (ORCA)  ... done (  0.1 sec) Dimension = 136
Shell pair information
Shell pair cut-off parameter TPreSel        ...   2.5e-12
Total number of shell pairs                 ...     13530
Shell pairs after pre-screening             ...     12315
Total number of primitive shell pairs       ...     16314
Primitive shell pairs kept                  ...     14239
          la=0 lb=0:   2022 shell pairs
          la=1 lb=0:   2362 shell pairs
          la=1 lb=1:    648 shell pairs
          la=2 lb=0:   1853 shell pairs
          la=2 lb=1:    983 shell pairs
          la=2 lb=2:    398 shell pairs
          la=3 lb=0:   1334 shell pairs
          la=3 lb=1:    708 shell pairs
          la=3 lb=2:    548 shell pairs
          la=3 lb=3:    209 shell pairs
          la=4 lb=0:    546 shell pairs
          la=4 lb=1:    285 shell pairs
          la=4 lb=2:    223 shell pairs
          la=4 lb=3:    160 shell pairs
          la=4 lb=4:     36 shell pairs

Checking whether 4 symmetric matrices of dimension 532 fit in memory
:Max Core in MB      =   4096.00
 MB in use           =     18.46
 MB left             =   4077.54
 MB needed           =      4.33
 Data fit in memory  = YES
Calculating Nuclear repulsion               ... done (  0.0 sec) ENN=    120.693288504615 Eh

Diagonalization of the overlap matrix:
Smallest eigenvalue                        ... 5.493e-06
Time for diagonalization                   ...    0.017 sec
Threshold for overlap eigenvalues          ... 1.000e-07
Number of eigenvalues below threshold      ... 0
Time for construction of square roots      ...    0.010 sec
Total time needed                          ...    0.030 sec

-------------------
DFT GRID GENERATION
-------------------

General Integration Accuracy     IntAcc      ... 4.388
Radial Grid Type                 RadialGrid  ... OptM3 with GC (2021)
Angular Grid (max. ang.)         AngularGrid ... 4 (Lebedev-302)
Angular grid pruning method      GridPruning ... 4 (adaptive)
Weight generation scheme         WeightScheme... mBecke (2022)
Basis function cutoff            BFCut       ... 1.0000e-11
Integration weight cutoff        WCut        ... 1.0000e-14
Partially contracted basis set               ... off
Rotationally invariant grid construction     ... off
Angular grids for H and He will be reduced by one unit
Diffuse basis detected: some atoms will have their outermost
                        angular grid increased by 1.

Total number of grid points                  ...    39456
Total number of batches                      ...      622
Average number of points per batch           ...       63
Average number of grid points per atom       ...     4932

---------------------
SHARK GRID GENERATION
---------------------

General Integration Accuracy     IntAcc      ... 4.388
Radial Grid Type                 RadialGrid  ... OptM3 with GC (2021)
Angular Grid (max. ang.)         AngularGrid ... 4 (Lebedev-302)
Angular grid pruning method      GridPruning ... 4 (adaptive)
Weight generation scheme         WeightScheme... mBecke (2022)
Basis function cutoff            BFCut       ... 1.0000e-11
Integration weight cutoff        WCut        ... 1.0000e-14
Partially contracted basis set               ... off
Rotationally invariant grid construction     ... off
Angular grids for H and He will be reduced by one unit
Diffuse basis detected: some atoms will have their outermost
                        angular grid increased by 1.
Steep s-basis detected: some atoms will have their radial
                        grid points doubled.

Total number of grid points                  ...    65362
Total number of batches                      ...     1026
Average number of points per batch           ...       63
Average number of grid points per atom       ...     8170
Grids setup in   0.5 sec
Initializing property integral containers    ... done (  0.0 sec)

SHARK setup successfully completed in   0.9 seconds

Maximum memory used throughout the entire STARTUP-calculation: 44.5 MB


           ************************************************************
           *        Program running with 8 parallel MPI-processes     *
           *              working on a common directory               *
           ************************************************************
-------------------------------------------------------------------------------
                                 ORCA GUESS
                   Start orbitals & Density for SCF / CASSCF
-------------------------------------------------------------------------------

------------
SCF SETTINGS
------------
Hamiltonian:
 Density Functional     Method          .... DFT(GTOs)
  Functional kind                       .... Exchange
  Functional name                       .... Slater exchange
  Functional family                     .... LDA
  Functional refs                              
    [ 0] P. A. M. Dirac.,  Math. Proc. Cambridge Philos. Soc. 26, 376 (1930), doi: 10.1017/S0305004100016108
    [ 1] F. Bloch.,  Z. Phys. 57, 545 (1929), doi: 10.1007/BF01340281
  Functional external parameters        .... 0
 Correlation Functional Correlation     .... No Correlation
 Gradients option       PostSCFGGA      .... off


General Settings:
 Integral files         IntName         .... /cluster/projects/nn14654k/ylvaos/basis_set_n_funcs/functionals/lda_x/CH3COOH/inp/CH3COOH_lda_x_augccpvqz
 Hartree-Fock type      HFTyp           .... RHF
 Total Charge           Charge          ....    0
 Multiplicity           Mult            ....    1
 Number of Electrons    NEL             ....   32
 Basis Dimension        Dim             ....  504
 Nuclear Repulsion      ENuc            ....    120.6932885046 Eh

Convergence Acceleration:
 AO-DIIS                CNVDIIS         .... on
   Start iteration      DIISMaxIt       ....    12
   Startup error        DIISStart       ....  0.200000
   # of expansion vecs  DIISMaxEq       ....     5
   Bias factor          DIISBfac        ....   1.050
   Max. coefficient     DIISMaxC        ....  10.000
 MO-DIIS                CNVKDIIS        .... off
 Trust-Rad. Augm. Hess. CNVTRAH         .... auto
   Auto Start mean grad. ratio tolernc. ....  1.125000
   Auto Start start iteration           ....    50
   Auto Start num. interpolation iter.  ....    10
   Max. Number of Micro iterations      ....    24
   Max. Number of Macro iterations      .... Maxiter - #DIIS iter
   Number of Davidson start vectors     ....     2
   Converg. threshold    (grad. norm)   ....   1.000e-05
   Grad. Scal. Fac. for Micro threshold ....   0.100
   Minimum threshold for Micro iter.    ....   1.000e-02
   NR start threshold (gradient norm)   ....   1.000e-04
   Initial trust radius                 ....   0.400
   Minimum AH scaling param. (alpha)    ....   1.000
   Maximum AH scaling param. (alpha)    .... 1000.000
   Quad. conv. algorithm                .... NR
   White noise on init. David. guess    .... on
   Maximum white noise                  ....   0.010
   Pseudo random numbers                .... off
   Inactive MOs                         .... canonical
   Orbital update algorithm             .... Taylor
   Preconditioner                       .... Diag
   Full preconditioner red. dimension   ....   250
 SOSCF                 CNVSOSCF           .... on
   Start iteration     SOSCFMaxIt         ....   150
   Startup grad/error  SOSCFStart         ....  0.003300
   Hessian update      SOSCFHessUp        .... L-BFGS
   Autom. constraints  SOSCFAutoConstrain .... off
 Level Shifting         CNVShift        .... on
   Level shift para.    LevelShift      ....    0.2500
   Turn off err/grad.   ShiftErr        ....    0.0010
 Zerner damping         CNVZerner       .... off
 Static damping         CNVDamp         .... on
   Fraction old density DampFac         ....    0.7000
   Max. Damping (<1)    DampMax         ....    0.9800
   Min. Damping (>=0)   DampMin         ....    0.0000
   Turn off err/grad.   DampErr         ....    0.1000

SCF Procedure:
 Maximum # iterations   MaxIter         ....   125
 SCF integral mode      SCFMode         .... Direct
   Integral package                     .... SHARK and LIBINT hybrid scheme
 Reset frequency        DirectResetFreq ....    20
 Integral Threshold     Thresh          ....  2.500e-11 Eh
 Primitive CutOff       TCut            ....  2.500e-12 Eh

Convergence Tolerance:
 Convergence Check Mode ConvCheckMode   .... Total+1el-Energy
 Convergence forced     ConvForced      .... 0
 Energy Change          TolE            ....  1.000e-08 Eh
 1-El. energy change                    ....  1.000e-05 Eh
 Orbital Gradient       TolG            ....  1.000e-05
 Orbital Rotation angle TolX            ....  1.000e-05
 DIIS Error             TolErr          ....  5.000e-07

------------------------------
INITIAL GUESS: MODEL POTENTIAL
------------------------------
Loading Hartree-Fock densities                     ... done
Calculating cut-offs                               ... done
Initializing the effective Hamiltonian             ... done
Setting up the integral package (SHARK)            ... done
Starting the Coulomb interaction                   ... done (   0.1 sec)
Making the grid                                    ... done (   0.0 sec)
Mapping shells                                     ... done
Starting the XC term evaluation                    ... done (   0.0 sec)
  promolecular density results
     # of electrons  =     31.997033092
     EX              =    -25.141976411
     EC              =      0.000000000
     EX+EC           =    -25.141976411
Transforming the Hamiltonian                       ... done (   0.0 sec)
Diagonalizing the Hamiltonian                      ... done (   0.0 sec)
Back transforming the eigenvectors                 ... done (   0.0 sec)
Now organizing SCF variables                       ... done
                      ------------------
                      INITIAL GUESS DONE (   0.2 sec)
                      ------------------
             **** ENERGY FILE WAS UPDATED (/cluster/projects/nn14654k/ylvaos/basis_set_n_funcs/functionals/lda_x/CH3COOH/inp/CH3COOH_lda_x_augccpvqz.en.tmp) ****
Finished Guess after   0.3 sec
Maximum memory used throughout the entire GUESS-calculation: 32.7 MB


           ************************************************************
           *        Program running with 8 parallel MPI-processes     *
           *              working on a common directory               *
           ************************************************************

-------------------------------------------------------------------------------------------
                                      ORCA LEAN-SCF
                              memory conserving SCF solver
-------------------------------------------------------------------------------------------

----------------------------------------D-I-I-S--------------------------------------------
Iteration    Energy (Eh)           Delta-E    RMSDP     MaxDP     DIISErr   Damp  Time(sec)
-------------------------------------------------------------------------------------------
               ***  Starting incremental Fock matrix formation  ***
    1    -225.1443573476745996     0.00e+00  1.70e-03  4.05e-02  2.25e-01  0.700  12.0
    2    -225.2216335003590757    -7.73e-02  1.01e-03  3.18e-02  8.34e-02  0.700  11.3
                               ***Turning on AO-DIIS***
    3    -225.2419727761602530    -2.03e-02  4.11e-04  1.51e-02  3.03e-02  0.700  11.2
    4    -225.2567600339672822    -1.48e-02  6.83e-04  2.03e-02  2.05e-02  0.000  10.9
    5    -225.2918001838310147    -3.50e-02  1.63e-04  3.76e-03  1.16e-02  0.000  11.1
    6    -225.2921721059548759    -3.72e-04  6.88e-05  1.30e-03  3.54e-03  0.000  10.5
                              *** Initializing SOSCF ***
---------------------------------------S-O-S-C-F--------------------------------------
Iteration    Energy (Eh)           Delta-E    RMSDP     MaxDP     MaxGrad    Time(sec)
--------------------------------------------------------------------------------------
    7    -225.2922030535506224    -3.09e-05  3.76e-05  8.45e-04  2.05e-03    10.1
               *** Restarting incremental Fock matrix formation ***
    8    -225.2922122019451763    -9.15e-06  4.09e-05  9.90e-04  2.38e-04    11.7
    9    -225.2922073457616534     4.86e-06  1.68e-05  4.77e-04  9.10e-04     9.7
   10    -225.2922135865357518    -6.24e-06  1.28e-05  3.04e-04  1.31e-04     9.3
   11    -225.2922131655072349     4.21e-07  5.40e-06  9.37e-05  2.16e-04     9.2
   12    -225.2922137753251377    -6.10e-07  2.88e-06  5.89e-05  2.12e-05     8.8
   13    -225.2922137527385757     2.26e-08  1.67e-06  2.86e-05  2.78e-05     8.3
   14    -225.2922137891246166    -3.64e-08  2.05e-06  4.47e-05  1.87e-06     8.1
                  *** Gradient check signals convergence ***

               *****************************************************
               *                     SUCCESS                       *
               *           SCF CONVERGED AFTER  14 CYCLES          *
               *****************************************************

             **** ENERGY FILE WAS UPDATED (/cluster/projects/nn14654k/ylvaos/basis_set_n_funcs/functionals/lda_x/CH3COOH/inp/CH3COOH_lda_x_augccpvqz.en.tmp) ****

----------------
TOTAL SCF ENERGY
----------------

Total Energy       :       -225.29221378863889 Eh           -6130.51281 eV

Components:
Nuclear Repulsion  :        120.69328850461517 Eh            3284.23135 eV
Electronic Energy  :       -345.98550229325406 Eh           -9414.74415 eV
One Electron Energy:       -550.46903751231525 Eh          -14979.02403 eV
Two Electron Energy:        204.48353521906120 Eh            5564.27988 eV

Virial components:
Potential Energy   :       -450.66066922975813 Eh          -12263.10025 eV
Kinetic Energy     :        225.36845544111924 Eh            6132.58745 eV
Virial Ratio       :          1.99966170220082

DFT components:
N(Alpha)           :       15.999976758704 electrons
N(Beta)            :       15.999976758704 electrons
N(Total)           :       31.999953517408 electrons
E(X)               :      -25.413520520193 Eh       
E(C)               :        0.000000000000 Eh       
E(XC)              :      -25.413520520193 Eh       

---------------
SCF CONVERGENCE
---------------

  Last Energy change         ...    3.6386e-08  Tolerance :   1.0000e-08
  Last MAX-Density change    ...    4.4713e-05  Tolerance :   1.0000e-07
  Last RMS-Density change    ...    2.0530e-06  Tolerance :   5.0000e-09
  Last DIIS Error            ...    2.0522e-03  Tolerance :   5.0000e-07
  Last Orbital Gradient      ...    1.8693e-06  Tolerance :   1.0000e-05
  Last Orbital Rotation      ...    6.4073e-06  Tolerance :   1.0000e-05


----------------
ORBITAL ENERGIES
----------------

  NO   OCC          E(Eh)            E(eV) 
   0   2.0000     -18.591566      -505.9022 
   1   2.0000     -18.536005      -504.3903 
   2   2.0000      -9.845787      -267.9175 
   3   2.0000      -9.727750      -264.7055 
   4   2.0000      -0.968618       -26.3574 
   5   2.0000      -0.880987       -23.9729 
   6   2.0000      -0.647551       -17.6208 
   7   2.0000      -0.512835       -13.9550 
   8   2.0000      -0.398710       -10.8495 
   9   2.0000      -0.388241       -10.5646 
  10   2.0000      -0.387525       -10.5451 
  11   2.0000      -0.325574        -8.8593 
  12   2.0000      -0.310392        -8.4462 
  13   2.0000      -0.310022        -8.4361 
  14   2.0000      -0.248748        -6.7688 
  15   2.0000      -0.199497        -5.4286 
  16   0.0000      -0.008729        -0.2375 
  17   0.0000      -0.008374        -0.2279 
  18   0.0000       0.011792         0.3209 
  19   0.0000       0.028065         0.7637 
  20   0.0000       0.030437         0.8282 
  21   0.0000       0.046797         1.2734 
  22   0.0000       0.060161         1.6371 
  23   0.0000       0.064106         1.7444 
  24   0.0000       0.065278         1.7763 
  25   0.0000       0.077011         2.0956 
  26   0.0000       0.079520         2.1638 
*Only the first 10 virtual orbitals were printed.

                    ********************************
                    * MULLIKEN POPULATION ANALYSIS *
                    ********************************

-----------------------
MULLIKEN ATOMIC CHARGES
-----------------------
   0 C :    0.657309
   1 C :   -0.722949
   2 O :   -0.556062
   3 O :   -0.487170
   4 H :    0.284159
   5 H :    0.282121
   6 H :    0.271294
   7 H :    0.271297
Sum of atomic charges:    0.0000000

--------------------------------
MULLIKEN REDUCED ORBITAL CHARGES
--------------------------------
  0 C s       :     2.979181  s :     2.979181
      pz      :     0.688195  p :     2.212045
      px      :     0.720879
      py      :     0.802971
      dz2     :     0.012803  d :     0.142187
      dxz     :     0.027068
      dyz     :     0.035379
      dx2y2   :    -0.016457
      dxy     :     0.083393
      f0      :     0.002704  f :     0.008346
      f+1     :     0.001558
      f-1     :     0.003466
      f+2     :     0.003124
      f-2     :     0.003016
      f+3     :    -0.006283
      f-3     :     0.000761
      g0      :     0.000190  g :     0.000932
      g+1     :    -0.000395
      g-1     :    -0.000585
      g+2     :    -0.000129
      g-2     :     0.000014
      g+3     :     0.000168
      g-3     :     0.000398
      g+4     :    -0.002515
      g-4     :     0.003786

  1 C s       :     3.178184  s :     3.178184
      pz      :     1.225621  p :     3.435955
      px      :     1.095545
      py      :     1.114788
      dz2     :     0.023640  d :     0.111976
      dxz     :     0.013583
      dyz     :     0.025725
      dx2y2   :     0.020578
      dxy     :     0.028450
      f0      :    -0.002815  f :    -0.005318
      f+1     :    -0.000220
      f-1     :     0.000144
      f+2     :    -0.002196
      f-2     :     0.001124
      f+3     :     0.000818
      f-3     :    -0.002174
      g0      :    -0.000113  g :     0.002151
      g+1     :     0.000631
      g-1     :     0.000516
      g+2     :     0.000225
      g-2     :     0.000001
      g+3     :     0.000061
      g-3     :     0.000340
      g+4     :     0.000092
      g-4     :     0.000399

  2 O s       :     3.886718  s :     3.886718
      pz      :     1.440861  p :     4.616407
      px      :     1.817414
      py      :     1.358132
      dz2     :     0.003155  d :     0.048648
      dxz     :     0.001880
      dyz     :     0.027470
      dx2y2   :     0.008444
      dxy     :     0.007699
      f0      :     0.001923  f :     0.004301
      f+1     :     0.000208
      f-1     :    -0.001310
      f+2     :     0.002596
      f-2     :     0.000714
      f+3     :     0.000967
      f-3     :    -0.000797
      g0      :    -0.000168  g :    -0.000014
      g+1     :     0.000017
      g-1     :     0.000380
      g+2     :    -0.000304
      g-2     :     0.000074
      g+3     :     0.000042
      g-3     :     0.000173
      g+4     :    -0.000226
      g-4     :    -0.000001

  3 O s       :     3.828289  s :     3.828289
      pz      :     1.742029  p :     4.600233
      px      :     1.285022
      py      :     1.573181
      dz2     :     0.004923  d :     0.054857
      dxz     :     0.012412
      dyz     :     0.008570
      dx2y2   :     0.009865
      dxy     :     0.019088
      f0      :     0.001307  f :     0.003059
      f+1     :     0.000536
      f-1     :     0.000670
      f+2     :     0.000144
      f-2     :     0.001760
      f+3     :    -0.001326
      f-3     :    -0.000031
      g0      :    -0.000018  g :     0.000731
      g+1     :     0.000176
      g-1     :     0.000094
      g+2     :    -0.000022
      g-2     :     0.000053
      g+3     :     0.000023
      g-3     :     0.000135
      g+4     :     0.000302
      g-4     :    -0.000012

  4 H s       :     0.610770  s :     0.610770
      pz      :     0.038833  p :     0.092324
      px      :     0.030167
      py      :     0.023324
      dz2     :    -0.000039  d :     0.013904
      dxz     :     0.001147
      dyz     :     0.004996
      dx2y2   :     0.005607
      dxy     :     0.002192
      f0      :    -0.000069  f :    -0.001157
      f+1     :    -0.000291
      f-1     :     0.000039
      f+2     :    -0.000152
      f-2     :     0.000033
      f+3     :    -0.000031
      f-3     :    -0.000685

  5 H s       :     0.679248  s :     0.679248
      pz      :     0.018954  p :     0.038170
      px      :     0.010082
      py      :     0.009134
      dz2     :    -0.000625  d :     0.001416
      dxz     :     0.001130
      dyz     :     0.000872
      dx2y2   :     0.000779
      dxy     :    -0.000739
      f0      :     0.000069  f :    -0.000955
      f+1     :    -0.000437
      f-1     :     0.000058
      f+2     :    -0.000120
      f-2     :    -0.000256
      f+3     :     0.000268
      f-3     :    -0.000537

  6 H s       :     0.675114  s :     0.675114
      pz      :     0.018131  p :     0.052045
      px      :     0.016257
      py      :     0.017658
      dz2     :     0.001438  d :     0.002781
      dxz     :     0.000969
      dyz     :    -0.001950
      dx2y2   :     0.001212
      dxy     :     0.001112
      f0      :    -0.000192  f :    -0.001235
      f+1     :     0.000007
      f-1     :    -0.000617
      f+2     :    -0.000271
      f-2     :    -0.000106
      f+3     :    -0.000049
      f-3     :    -0.000006

  7 H s       :     0.675112  s :     0.675112
      pz      :     0.018131  p :     0.052044
      px      :     0.016257
      py      :     0.017656
      dz2     :     0.001438  d :     0.002781
      dxz     :     0.000969
      dyz     :    -0.001950
      dx2y2   :     0.001212
      dxy     :     0.001112
      f0      :    -0.000192  f :    -0.001235
      f+1     :     0.000007
      f-1     :    -0.000617
      f+2     :    -0.000271
      f-2     :    -0.000106
      f+3     :    -0.000049
      f-3     :    -0.000006



                     *******************************
                     * LOEWDIN POPULATION ANALYSIS *
                     *******************************

----------------------
LOEWDIN ATOMIC CHARGES
----------------------
   0 C :   -1.049363
   1 C :    0.818722
   2 O :    0.713967
   3 O :    1.246268
   4 H :   -0.808378
   5 H :   -0.320293
   6 H :   -0.300461
   7 H :   -0.300461

-------------------------------
LOEWDIN REDUCED ORBITAL CHARGES
-------------------------------
  0 C s       :     2.421053  s :     2.421053
      pz      :     0.505008  p :     2.074897
      px      :     0.707532
      py      :     0.862357
      dz2     :     0.113158  d :     1.378094
      dxz     :     0.152217
      dyz     :     0.253215
      dx2y2   :     0.408474
      dxy     :     0.451031
      f0      :     0.055452  f :     0.869747
      f+1     :     0.048935
      f-1     :     0.059510
      f+2     :     0.108865
      f-2     :     0.085095
      f+3     :     0.305680
      f-3     :     0.206209
      g0      :     0.010115  g :     0.305571
      g+1     :     0.026930
      g-1     :     0.038734
      g+2     :     0.022902
      g-2     :     0.021915
      g+3     :     0.008684
      g-3     :     0.027561
      g+4     :     0.079653
      g-4     :     0.069078

  1 C s       :     2.396617  s :     2.396617
      pz      :     0.680620  p :     2.027380
      px      :     0.671057
      py      :     0.675704
      dz2     :     0.071136  d :     0.427943
      dxz     :     0.034886
      dyz     :     0.100808
      dx2y2   :     0.119510
      dxy     :     0.101603
      f0      :     0.023469  f :     0.254129
      f+1     :     0.024987
      f-1     :     0.030966
      f+2     :     0.024761
      f-2     :     0.029250
      f+3     :     0.061055
      f-3     :     0.059642
      g0      :     0.004180  g :     0.075208
      g+1     :     0.005755
      g-1     :     0.008455
      g+2     :     0.007072
      g-2     :     0.006565
      g+3     :     0.004997
      g-3     :     0.003786
      g+4     :     0.011781
      g-4     :     0.022616

  2 O s       :     3.105751  s :     3.105751
      pz      :     1.093497  p :     3.785982
      px      :     1.314008
      py      :     1.378477
      dz2     :     0.030794  d :     0.239589
      dxz     :     0.009719
      dyz     :     0.047717
      dx2y2   :     0.063744
      dxy     :     0.087617
      f0      :     0.011783  f :     0.120811
      f+1     :     0.005483
      f-1     :     0.014758
      f+2     :     0.014575
      f-2     :     0.005620
      f+3     :     0.040423
      f-3     :     0.028169
      g0      :     0.002194  g :     0.033899
      g+1     :     0.000107
      g-1     :     0.004097
      g+2     :     0.004446
      g-2     :     0.002161
      g+3     :     0.000714
      g-3     :     0.002247
      g+4     :     0.008893
      g-4     :     0.009039

  3 O s       :     2.875986  s :     2.875986
      pz      :     1.159416  p :     3.439703
      px      :     1.078165
      py      :     1.202121
      dz2     :     0.035363  d :     0.286623
      dxz     :     0.043679
      dyz     :     0.020354
      dx2y2   :     0.078647
      dxy     :     0.108580
      f0      :     0.013123  f :     0.126775
      f+1     :     0.013697
      f-1     :     0.006959
      f+2     :     0.006015
      f-2     :     0.014825
      f+3     :     0.049029
      f-3     :     0.023127
      g0      :     0.001219  g :     0.024646
      g+1     :     0.003149
      g-1     :     0.000753
      g+2     :     0.001594
      g-2     :     0.002582
      g+3     :     0.000274
      g-3     :     0.002060
      g+4     :     0.008598
      g-4     :     0.004416

  4 H s       :     0.565520  s :     0.565520
      pz      :     0.141791  p :     0.547375
      px      :     0.174160
      py      :     0.231423
      dz2     :     0.041818  d :     0.458350
      dxz     :     0.063996
      dyz     :     0.078458
      dx2y2   :     0.156141
      dxy     :     0.117937
      f0      :     0.027807  f :     0.237134
      f+1     :     0.016068
      f-1     :     0.014655
      f+2     :     0.005225
      f-2     :     0.044849
      f+3     :     0.059250
      f-3     :     0.069281

  5 H s       :     0.586966  s :     0.586966
      pz      :     0.088915  p :     0.323384
      px      :     0.131995
      py      :     0.102473
      dz2     :     0.019192  d :     0.281420
      dxz     :     0.068977
      dyz     :     0.038518
      dx2y2   :     0.071043
      dxy     :     0.083689
      f0      :     0.017225  f :     0.128524
      f+1     :     0.010656
      f-1     :     0.002736
      f+2     :     0.004875
      f-2     :     0.028634
      f+3     :     0.042822
      f-3     :     0.021576

  6 H s       :     0.578214  s :     0.578214
      pz      :     0.129725  p :     0.325699
      px      :     0.089143
      py      :     0.106830
      dz2     :     0.092253  d :     0.272274
      dxz     :     0.048519
      dyz     :     0.054384
      dx2y2   :     0.026324
      dxy     :     0.050793
      f0      :     0.042430  f :     0.124275
      f+1     :     0.007276
      f-1     :     0.015223
      f+2     :     0.014669
      f-2     :     0.029143
      f+3     :     0.009969
      f-3     :     0.005565

  7 H s       :     0.578214  s :     0.578214
      pz      :     0.129725  p :     0.325699
      px      :     0.089143
      py      :     0.106830
      dz2     :     0.092253  d :     0.272274
      dxz     :     0.048519
      dyz     :     0.054384
      dx2y2   :     0.026324
      dxy     :     0.050793
      f0      :     0.042430  f :     0.124275
      f+1     :     0.007276
      f-1     :     0.015223
      f+2     :     0.014669
      f-2     :     0.029143
      f+3     :     0.009969
      f-3     :     0.005565



                      *****************************
                      * MAYER POPULATION ANALYSIS *
                      *****************************

  NA   - Mulliken gross atomic population
  ZA   - Total nuclear charge
  QA   - Mulliken gross atomic charge
  VA   - Mayer's total valence
  BVA  - Mayer's bonded valence
  FA   - Mayer's free valence

  ATOM       NA         ZA         QA         VA         BVA        FA
  0 C      5.3427     6.0000     0.6573     3.7422     3.7422     0.0000
  1 C      6.7229     6.0000    -0.7229     3.9467     3.9467     0.0000
  2 O      8.5561     8.0000    -0.5561     1.8915     1.8915    -0.0000
  3 O      8.4872     8.0000    -0.4872     2.1564     2.1564    -0.0000
  4 H      0.7158     1.0000     0.2842     1.0028     1.0028    -0.0000
  5 H      0.7179     1.0000     0.2821     0.9600     0.9600     0.0000
  6 H      0.7287     1.0000     0.2713     0.9787     0.9787     0.0000
  7 H      0.7287     1.0000     0.2713     0.9787     0.9787     0.0000

  Mayer bond orders larger than 0.100000
B(  0-C ,  1-C ) :   1.0875 B(  0-C ,  2-O ) :   1.6216 B(  0-C ,  3-O ) :   1.0519 
B(  1-C ,  5-H ) :   0.9393 B(  1-C ,  6-H ) :   0.8911 B(  1-C ,  7-H ) :   0.8911 
B(  2-O ,  3-O ) :   0.1288 B(  3-O ,  4-H ) :   0.9256 

-------
TIMINGS
-------

Total SCF time: 0 days 0 hours 2 min 30 sec 

Total time                  ....     150.101 sec
Sum of individual times     ....     142.509 sec  ( 94.9%)

SCF preparation             ....       0.107 sec  (  0.1%)
Fock matrix formation       ....     141.240 sec  ( 94.1%)
  Startup                   ....       0.017 sec  (  0.0% of F)
  Coulomb formation         ....     146.969 sec  (104.1% of F)
  XC integration            ....       1.523 sec  (  1.1% of F)
    XC Preparation          ....       0.000 sec  (  0.0% of XC)
    Basis function eval.    ....       0.117 sec  (  7.7% of XC)
    Density eval.           ....       0.421 sec  ( 27.7% of XC)
    XC-Functional eval.     ....       0.012 sec  (  0.8% of XC)
    XC-Potential eval.      ....       0.672 sec  ( 44.1% of XC)
Diagonalization             ....       0.000 sec  (  0.0%)
Density matrix formation    ....       0.117 sec  (  0.1%)
Total Energy calculation    ....       0.044 sec  (  0.0%)
Population analysis         ....       0.047 sec  (  0.0%)
Orbital Transformation      ....       0.094 sec  (  0.1%)
Orbital Orthonormalization  ....       0.000 sec  (  0.0%)
DIIS solution               ....       0.538 sec  (  0.4%)
SOSCF solution              ....       0.323 sec  (  0.2%)
Finished LeanSCF after 150.1 sec

Maximum memory used throughout the entire LEANSCF-calculation: 43.3 MB


           ************************************************************
           *        Program running with 8 parallel MPI-processes     *
           *              working on a common directory               *
           ************************************************************

------------------------------------------------------------------------------
                         ORCA PROPERTY INTEGRAL CALCULATIONS
------------------------------------------------------------------------------

GBWName                                   ... /cluster/projects/nn14654k/ylvaos/basis_set_n_funcs/functionals/lda_x/CH3COOH/inp/CH3COOH_lda_x_augccpvqz.gbw
Number of atoms                           ...      8
Number of basis functions                 ...    532
Max core memory                           ...   4096 MB

Dipole integrals                          ... YES
Quadrupole integrals                      ... YES
Linear momentum integrals                 ...  NO
Angular momentum integrals                ...  NO
Higher moments length integrals           ...  NO
Higher moments velocity integrals         ...  NO
Kinetic energy integrals                  ...  NO
GIAO right hand sides                     ...  NO
GIAO dipole derivative integrals          ...  NO
SOC integrals                             ...  NO
EPR diamagnetic integrals (GIAO)          ...  NO
EPR gauge integrals                       ...  NO
Field gradient integrals                  ...  NO (   0 nuclei)
Spin-dipole/Fermi contact integrals       ...  NO (   0 nuclei)
Contact density integrals                 ...  NO (   0 nuclei)
Nucleus-orbit integrals                   ...  NO (   0 nuclei)
Geometric perturbations                   ...  NO (   8 nuclei)

Choice of electric origin   ... Center of mass
Position of electric origin ... ( -0.0657,  0.0975,  0.0000) 
Choice of magnetic origin   ... GIAO
Position of magnetic origin ... (  0.0000,  0.0000,  0.0000) 

Calculating integrals                     ... Electric Dipole (Length)     done (  0.0 sec)
Calculating integrals                     ... Electric Quadrupole (Length) done (  0.0 sec)

Property integrals calculated in   0.1 sec

Maximum memory used throughout the entire PROPINT-calculation: 37.7 MB
------------------------------------------------------------------------------
                           ORCA ORBITAL LOCALIZATION
------------------------------------------------------------------------------

Input orbitals are from                  ... /cluster/projects/nn14654k/ylvaos/basis_set_n_funcs/functionals/lda_x/CH3COOH/inp/CH3COOH_lda_x_augccpvqz.gbw
Output orbitals are to                   ... /cluster/projects/nn14654k/ylvaos/basis_set_n_funcs/functionals/lda_x/CH3COOH/inp/CH3COOH_lda_x_augccpvqz.loc
Max. number of iterations                ... 128
Localizations seeded randomly            ... on
Convergence tolerance                    ... 1.000e-06
Threshold for strong local MOs           ... 9.500e-01
Threshold for bond MOs                   ... 8.500e-01
Operator                                 ... 0
Orbital range for localization           ... 4 to 15
Localization criterion                   ... NEW-BOYS
Doing the dipole integrals               ... o.k.
Initial value of the localization sum :    60.158629
ITERATION   0 : L=   78.2700514372 DL=  1.81e+01 (AVERGE_DL)=    0.5238468191 
ITERATION   1 : L=   80.7570562294 DL=  2.49e+00 (AVERGE_DL)=    0.1941182392 
ITERATION   2 : L=   80.8502016417 DL=  9.31e-02 (AVERGE_DL)=    0.0375671948 
ITERATION   3 : L=   80.8561072212 DL=  5.91e-03 (AVERGE_DL)=    0.0094593064 
ITERATION   4 : L=   80.8599709922 DL=  3.86e-03 (AVERGE_DL)=    0.0076512734 
ITERATION   5 : L=   80.8627765432 DL=  2.81e-03 (AVERGE_DL)=    0.0065198426 
ITERATION   6 : L=   80.8647763713 DL=  2.00e-03 (AVERGE_DL)=    0.0055045823 
ITERATION   7 : L=   80.8661141131 DL=  1.34e-03 (AVERGE_DL)=    0.0045020900 
ITERATION   8 : L=   80.8669714547 DL=  8.57e-04 (AVERGE_DL)=    0.0036041677 
ITERATION   9 : L=   80.8675077131 DL=  5.36e-04 (AVERGE_DL)=    0.0028504610 
ITERATION  10 : L=   80.8678393596 DL=  3.32e-04 (AVERGE_DL)=    0.0022416392 
ITERATION  11 : L=   80.8680437449 DL=  2.04e-04 (AVERGE_DL)=    0.0017597576 
ITERATION  12 : L=   80.8681697931 DL=  1.26e-04 (AVERGE_DL)=    0.0013819626 
ITERATION  13 : L=   80.8682477451 DL=  7.80e-05 (AVERGE_DL)=    0.0010867805 
ITERATION  14 : L=   80.8682961240 DL=  4.84e-05 (AVERGE_DL)=    0.0008561621 
ITERATION  15 : L=   80.8683262579 DL=  3.01e-05 (AVERGE_DL)=    0.0006757028 
ITERATION  16 : L=   80.8683450912 DL=  1.88e-05 (AVERGE_DL)=    0.0005341843 
ITERATION  17 : L=   80.8683568978 DL=  1.18e-05 (AVERGE_DL)=    0.0004229518 
ITERATION  18 : L=   80.8683643190 DL=  7.42e-06 (AVERGE_DL)=    0.0003353233 
ITERATION  19 : L=   80.8683689926 DL=  4.67e-06 (AVERGE_DL)=    0.0002661072 
ITERATION  20 : L=   80.8683719420 DL=  2.95e-06 (AVERGE_DL)=    0.0002113924 
ITERATION  21 : L=   80.8683738059 DL=  1.86e-06 (AVERGE_DL)=    0.0001680537 
ITERATION  22 : L=   80.8683749851 DL=  1.18e-06 (AVERGE_DL)=    0.0001336629 
ITERATION  23 : L=   80.8683757323 DL=  7.47e-07 (AVERGE_DL)=    0.0001064034 
LOCALIZATION SUM CONVERGED


--------------------------------------------------------------------------------
                    LOCALIZED MOLECULAR ORBITAL COMPOSITIONS
--------------------------------------------------------------------------------

The Mulliken populations for each LMO on each atom are computed
The LMO`s will be ordered according to atom index and type
  (A) Strongly localized MO`s have populations of >=0.950 on one atom
  (B) Two center bond orbitals have populations of >=0.850 on two atoms
  (C) Other MO`s are considered to be `delocalized`

FOUND  -   3 strongly local MO`s
       -   9 two center bond MO`s
       -   0 significantly delocalized MO`s

Rather strongly localized orbitals:
MO   6:   3O  -   1.044228
MO   5:   2O  -   0.982249
MO   4:   2O  -   1.007703
Bond-like localized orbitals:
MO  15:   7H  -   0.343436  and   1C  -   0.625189
MO  14:   6H  -   0.343499  and   1C  -   0.625171
MO  13:   5H  -   0.345925  and   1C  -   0.669959
MO  12:   4H  -   0.344379  and   3O  -   0.671667
MO  11:   3O  -   0.678218  and   0C  -   0.310456
MO  10:   3O  -   0.873284  and   0C  -   0.110057
MO   9:   2O  -   0.663872  and   0C  -   0.328733
MO   8:   2O  -   0.664580  and   0C  -   0.327593
MO   7:   1C  -   0.416308  and   0C  -   0.619750
Localized MO's were stored in: /cluster/projects/nn14654k/ylvaos/basis_set_n_funcs/functionals/lda_x/CH3COOH/inp/CH3COOH_lda_x_augccpvqz.loc

-------------------------   --------------------
FINAL SINGLE POINT ENERGY      -225.292213788639
-------------------------   --------------------



           ************************************************************
           *        Program running with 8 parallel MPI-processes     *
           *              working on a common directory               *
           ************************************************************

------------------------------------------------------------------------------
                              ORCA PROPERTY CALCULATIONS
------------------------------------------------------------------------------

GBWName                                 ... /cluster/projects/nn14654k/ylvaos/basis_set_n_funcs/functionals/lda_x/CH3COOH/inp/CH3COOH_lda_x_augccpvqz.gbw
Number of atoms                         ...      8
Number of basis functions               ...    532
Max core memory                         ...   4096 MB

Electric properties:
Dipole moment                           ... YES
Quadrupole moment                       ... YES
Static polarizability (Dipole/Dipole)   ...  NO
Static polarizability (Dipole/Quad.)    ...  NO
Static polarizability (Quad./Quad.)     ...  NO
Static polarizability (Velocity)        ...  NO
Static hyperpolarizability              ...  NO

Atomic electric properties:
Dipole moment                           ...  NO
Quadrupole moment                       ...  NO
Static polarizability                   ...  NO

Choice of electric origin               ... Center of mass
Position of electric origin             ...    -0.065707     0.097461     0.000000

General magnetic properties:
Magnetizability                         ...  NO

EPR properties:
g-Tensor (aka g-matrix)                 ...  NO
Zero-Field splitting spin-orbit         ...  NO
Zero-field splitting spin-spin          ...  NO
Hyperfine couplings                     ...  NO (   0 nuclei)
Quadrupole couplings                    ...  NO (   0 nuclei)
Contact density                         ...  NO (   0 nuclei)

NMR properties:
Chemical shifts                         ...  NO (   0 nuclei)
Spin-rotation constants                 ...  NO (   0 nuclei)
Spin-spin couplings                     ...  NO (   0 nuclei,    0 pairs)

Choice of magnetic origin               ... GIAO
Position of magnetic origin             ...     0.000000     0.000000     0.000000

Properties with geometric perturbations:
SCF Hessian                             ...  NO
IR spectrum                             ...  NO
VCD spectrum                            ...  NO
X-ray spectroscopy properties:
SCF XES/XAS/RIXS spectra                ...  NO

SCF SOC stabilization energy            ...  NO
Diagonal Born-Oppenheimer correction    ...  NO

-------------
DIPOLE MOMENT
-------------

Method             : SCF
Type of density    : Electron Density
Multiplicity       :   1
Irrep              :   0
Energy             :  -225.2922137886388896 Eh
Basis              : AO
                                X                 Y                 Z
Electronic contribution:     -2.202556253       2.425028944       0.000000016
Nuclear contribution   :      2.102617427      -3.118765285       0.000000000
                        -----------------------------------------
Total Dipole Moment    :     -0.099938827      -0.693736340       0.000000016
                        -----------------------------------------
Magnitude (a.u.)       :      0.700897909
Magnitude (Debye)      :      1.781540904



--------------------
Rotational spectrum 
--------------------
 
Rotational constants in cm-1:             0.373252             0.316126             0.176788 
Rotational constants in MHz :         11189.819630          9477.229268          5299.974115 

Dipole components along the rotational axes: 
x,y,z [a.u.] :    -0.374647    -0.592366     0.000000 
x,y,z [Debye]:    -0.952277    -1.505675     0.000000 

 

Dipole moment calculation done in   0.0 sec 

-----------------
QUADRUPOLE MOMENT
-----------------

Method             : SCF
Type of density    : Electron Density
Multiplicity       :   1
Irrep              :   0
Energy             :  -225.2922137886388896 Eh
Basis              : AO

                XX              YY              ZZ              XY              XZ              YZ
  NUC      103.447904006    93.335807526     5.552847104   -15.402641721     0.000000000     0.000000000
  EL      -119.126029308  -114.337337379   -23.498258874    12.745351287     0.000000013     0.000000046
  TOT      -15.678125302   -21.001529853   -17.945411770    -2.657290434     0.000000013     0.000000046 (a.u.)
           -21.087614723   -28.247775904   -24.137192563    -3.574146513     0.000000017     0.000000062 (Buckingham)

diagonalized tensor:
           -22.100924685   -17.945411770   -14.578730470 (a.u.)
           -29.726499553   -24.137192563   -19.608891074 (Buckingham)
           -15.706915468     1.061005500    14.645909968 (traceless form in Buckingham)

             0.382300243    -0.000000006     0.924038162
             0.924038162    -0.000000010    -0.382300243
            -0.000000011    -1.000000000    -0.000000002
        
Isotropic quadrupole :   -18.208355641

Quadrupole moment calculation done in   0.0 sec (  0.0 sec for integrals)

Maximum memory used throughout the entire PROP-calculation: 34.5 MB

--------------------------------
SUGGESTED CITATIONS FOR THIS RUN
--------------------------------

Below you find a list of papers that are relevant to this ORCA run
We neither can nor want to force you to cite these papers, but we appreciate if you do
You receive ORCA, which is the product of decades of hard work by many enthusiastic individuals, for free
The only thing we kindly ask in return is that you cite our papers,
We deeply appreciate it, if you show your appreciation for ORCA by not just citing the generic ORCA reference.

Please note that relegating all ORCA citations to the supporting information does *not* help us.
SI sections are not indexed - citations you put there will not count into any citation statistics
But we need these citations in order to attract the funding resources that allow us to do what we are doing

Therefore, if you are a happy ORCA user, please consider citing a few of the papers listed below in the main body of your paper

In addition to the list printed below, the program has created the file /cluster/projects/nn14654k/ylvaos/basis_set_n_funcs/functionals/lda_x/CH3COOH/inp/CH3COOH_lda_x_augccpvqz.bibtex that contains the list in bibtex format
You can import this file easily into all common literature databanks and citation aid programs

It goes without saying that in many instances, there are alternative algorithms to achieve similar
results as the ones you have gotten from ORCA. It is, of course, also the case that in some instances
ORCA just re-implements algorithms worked out by others. We are fully aware of that and we are also
fully appreciative of our colleagues work. Hence this citation list should not be read as indicating
that the listed papers, which are focused on our own work, are the only ones worth citing. It simply
meant to make it easier for users to cite ORCA specific papers. It is not a substitute for doing your
own literature research and citing the relevant literature in a scientifically appropriate manner.

List of essential papers. We consider these as the minimum necessary citations

  1. Neese, F.
     Software update: the ORCA program system, version 6.0
     WIRES Comput. Molec. Sci. 2025 15(1), e70019
     doi.org/10.1002/wcms.70019

List of papers to cite with high priority. The work reported in these papers was absolutely
necessary for this run to complete.
Our perspective: the developers of density functionals and basis sets usually get cited in chemistry papers
Good! But without the algorithms to do something with them, the functionals or basis sets would not do anything.
Hence, in our opinion, the algorithm design and method developments papers are equally worthy of getting cited

  1. Lehtola, S.; Steigemann, C.; Oliveira, M.; Marques, M.
     Recent developments in Libxc - A comprehensive library of functionals for density functional theory
     Software X 2018 7 , 
     doi.org/10.1016/j.softx.2017.11.002
  2. Neese, F.
     The SHARK Integral Generation and Digestion System
     J. Comp. Chem. 2022 44(3), 381
     doi.org/10.1002/jcc.26942

List of suggested additional citations. These are papers that are important in the 'surrounding' of 
of this run, or papers that preceded the highly important papers. If you like your results we are grateful for a citation.

  1. Neese, F.
     The ORCA program system
     WIRES Comput. Molec. Sci. 2012 2(1), 73-78
     doi.org/10.1002/wcms.81
  2. Neese, F.
     Software update: the ORCA program system, version 4.0
     WIRES Comput. Molec. Sci. 2018 8(1), 1-6
     doi.org/10.1002/wcms.1327
  3. Neese, F.; Wennmohs, F.; Becker, U.; Riplinger, C.
     The ORCA quantum chemistry program package
     J. Chem. Phys. 2020 152(22), 224108
     doi.org/10.1063/5.0004608
  4. Neese, F.
     Software update: The ORCA program system—Version 5.0
     WIRES Comput. Molec. Sci. 2022 12(1), e1606
     doi.org/10.1002/wcms.1606

List of optional additional citations

  1. Neese, F.
     Approximate second-order SCF convergence for spin unrestricted wavefunctions
     Chem. Phys. Lett. 2000 325(1-3), 93-98
     doi.org/10.1016/s0009-2614(00)00662-x

Timings for individual modules:

Sum of individual times          ...      152.644 sec (=   2.544 min)
Startup calculation              ...        1.116 sec (=   0.019 min)   0.7 %
SCF iterations                   ...      150.850 sec (=   2.514 min)  98.8 %
Property integrals               ...        0.340 sec (=   0.006 min)   0.2 %
Property calculations            ...        0.319 sec (=   0.005 min)   0.2 %
Orbital localization             ...        0.018 sec (=   0.000 min)   0.0 %
                             ****ORCA TERMINATED NORMALLY****
TOTAL RUN TIME: 0 days 0 hours 2 minutes 33 seconds 466 msec
