
                                 *****************
                                 * O   R   C   A *
                                 *****************

                                            #,                                       
                                            ###                                      
                                            ####                                     
                                            #####                                    
                                            ######                                   
                                           ########,                                 
                                     ,,################,,,,,                         
                               ,,#################################,,                 
                          ,,##########################################,,             
                       ,#########################################, ''#####,          
                    ,#############################################,,   '####,        
                  ,##################################################,,,,####,       
                ,###########''''           ''''###############################       
              ,#####''   ,,,,##########,,,,          '''####'''          '####       
            ,##' ,,,,###########################,,,                        '##       
           ' ,,###''''                  '''############,,,                           
         ,,##''                                '''############,,,,        ,,,,,,###''
      ,#''                                            '''#######################'''  
     '                                                          ''''####''''         
             ,#######,   #######,   ,#######,      ##                                
            ,#'     '#,  ##    ##  ,#'     '#,    #''#        ,####,    ,#,          
            ##       ##  ##   ,#'  ##            #'  '#       #'       ,# #          
            ##       ##  #######   ##           ,######,      #####,      #          
            '#,     ,#'  ##    ##  '#,     ,#' ,#      #,     #,   #      #          
             '#######'   ##     ##  '#######'  #'      '#     '####' #    #          



                #########################################################
                #                        -***-                          #
                #          Department of theory and spectroscopy        #
                #                                                       #
                #                      Frank Neese                      #
                #                                                       #
                #     Directorship, Architecture, Infrastructure        #
                #                    SHARK, DRIVERS                     #
                #        Core code/Algorithms in most modules           #
                #                                                       #
                #        Max Planck Institute fuer Kohlenforschung      #
                #                Kaiser Wilhelm Platz 1                 #
                #                 D-45470 Muelheim/Ruhr                 #
                #                      Germany                          #
                #                                                       #
                #                  All rights reserved                  #
                #                        -***-                          #
                #########################################################


                         Program Version 6.1.1  -  RELEASE   -
                                (GIT: $487d211c$)
                          ($2025-11-21 10:33:24 +0100$)


 With contributions from (in alphabetic order):
[Max-Planck-Institut fuer Kohlenforschung]                               
  Daniel Aravena         : Magnetic Suceptibility                        
  Michael Atanasov       : Ab Initio Ligand Field Theory (pilot matlab implementation)
  Alexander A. Auer      : GIAO ZORA, VPT2 properties, NMR spectrum      
  Ute Becker             : All parallelization in ORCA, NUMFREQ, NUMCALC 
  Giovanni Bistoni       : ED, misc. LED, open-shell LED, HFLD           
  Dmytro Bykov           : pre 5.0 version of the SCF Hessian            
  Marcos Casanova-Páez   : Triplet and SCS-CIS(D). UHF-(DLPNO)-IP/EA/STEOM-CCSD. UHF-CVS-IP/STEOM-CCSD   
  Vijay G. Chilkuri      : MRCI spin determinant printing, contributions to CSF-ICE 
  Pauline Colinet        : FMM embedding                                 
  Dipayan Datta          : RHF DLPNO-CCSD density                        
  Achintya Kumar Dutta   : EOM-CC, STEOM-CC                              
  Nicolas Foglia         : Exact transition moments, OPA infrastructure, MCD improvements    
  Dmitry Ganyushin       : Spin-Orbit,Spin-Spin,Magnetic field MRCI      
  Miquel Garcia-Rates    : C-PCM and meta-GGA Hessian, CCSD/C-PCM, Gaussian charge scheme 
  Tiago L. C. Gouveia    : GS-ROHF, GS-ROCIS                             
  Yang Guo               : DLPNO-NEVPT2, F12-NEVPT2, CIM, IAO-localization        
  Andreas Hansen         : Spin unrestricted coupled pair/coupled cluster methods 
  Ingolf Harden          : AUTO-CI MPn and infrastructure                
  Benjamin Helmich-Paris : MC-RPA, TRAH-(SCF,CASSCF), AVAS, COSX integrals, SCF dyn. polar., MC-PDFT, srDFT 
  Lee Huntington         : MR-EOM, pCC                                   
  Robert Izsak           : Overlap fitted RIJCOSX, COSX-SCS-MP3, EOM     
  Riya Kayal             : Wick's Theorem for AUTO-CI, AUTO-CI UHF-CCSDT 
  Emily Kempfer          : AUTO-CI RHF CISDT and CCSDT, approximate NEVPT4
  Christian Kollmar      : KDIIS, OOCD, Brueckner-CCSD(T), CCSD density, CASPT2, CASPT2-K, improved NEVPT2 
  Axel Koslowski         : Symmetry handling                             
  Simone Kossmann        : meta-GGA functionals, TD-DFT gradient, OOMP2, (MP2 Hessian; deprecated post 5.0) 
  Lucas Lang             : DCDCAS, Hyperfine gauge corrections, ICE-SOC+SSC
  Marvin Lechner         : AUTO-CI (C++ implementation), FIC-MRCC        
  Spencer Leger          : CASSCF response                               
  Dagmar Lenk            : GEPOL surface, SMD, ORCA-2-JSON               
  Dimitrios Liakos       : Extrapolation schemes; Compound Job, Property file
  Dimitrios Manganas     : Further ROCIS development; embedding schemes. LFT, Crystal Embedding 
  Dimitrios Pantazis     : SARC Basis sets                               
  Anastasios Papadopoulos: AUTO-CI, single reference methods and gradients 
  Taras Petrenko         : pre 6.0 DFT Hessian and TD-DFT gradient,  ECA, NRVS 
  Petra Pikulova         : Analytic Raman intensities                    
  Peter Pinski           : DLPNO-MP2, DLPNO-MP2 Gradient                 
  Shashank Vittal Rao    : ES-AILFT, MagRelax                            
  Christoph Reimann      : Effective Core Potentials                     
  Marius Retegan         : Local ZFS, SOC                                
  Christoph Riplinger    : Optimizer, TS searches, QM/MM, DLPNO-CCSD(T), (RO)-DLPNO pert. Triples 
  Michael Roemelt        : Original ROCIS implementation, recursive CI coupling coefficients
  Masaaki Saitow         : Open-shell DLPNO-CCSD energy and density      
  Barbara Sandhoefer     : DKH picture change effects                    
  Yorick L. A. Schmerwitz: GMF and freeze-and-release deltaSCF, NEB S-IDPP initial path                    
  Kantharuban Sivalingam : CASSCF convergence/infrastructure, NEVPT2, NEVPT3, NEVPT4(SD), FIC-MRCI and CEPA variants
  Bernardo de Souza      : ESD, SOC TD-DFT                               
  Georgi L. Stoychev     : AutoAux, RI-MP2 NMR, DLPNO-MP2 response, X2C  
  Van Anh Tran           : RI-MP2 g-tensors                              
  Willem Van den Heuvel  : Paramagnetic NMR                              
  Zikuan Wang            : NOTCH, Electric field optimization            
  Frank Wennmohs         : Technical directorship and infrastructure     
  Hang Xu                : AUTO-CI-Response properties                   
                                                                         
[FACCTs GmbH]                                                            
  Markus Bursch, Nicolas Foglia, Miquel Garcia-Rates, Ingolf Harden, Hagen Neugebauer, Anastasios Papadopoulos, 
  Christoph Riplinger, Bernardo de Souza, Georgi L. Stoychev                                                    
                                                                 
  APM, various basis sets, CI-OPT, improved COSX, DLPNO-Multilevel,           
  DOCKER, DRACO, updates on ESD, Fragmentator, GOAT, IRC, LR-CPCM, L-BFGS, MBIS, meta-GGA TD-DFT gradient, ML-optimized integration grids, 
  MM, NACMEs, nearIR, NEB, NEB-TS, NL-DFT gradient (VV10), 2- and 3-layer-ONIOM, interface openCOSMO-RS, QMMM,   
  Crystal-QMMM, RESP, rigid body optimization, SF, symmetry and pop. for TD-DFT, various functionals, SOLVATOR                                   
                                                                         
[Other institutions]                                                     
  V. Asgeirsson          : NEB                                           
  Christoph Bannwarth    : sTDA-DFT, sTD-DFT, PBEh-3c, B97-3c, D3        
  Giovanni Bistoni       : ETS/NOCV, ADLD/ADEX, COVALED                  
  Martin Brehm           : Molecular dynamics                            
  Ronald Cardenas        : ETS/NOCV                                      
  Martina Colucci        : COVALED                                       
  Sebastian Ehlert       : rSCAN, r2SCAN, r2SCAN-3c, D4, dhf basis sets  
  Marvin Friede          : D4 for Fr, Ra, Ac-Lr                          
  Lars Goerigk           : TD-DFT with DH, B97 family of functionals     
  Stefan Grimme          : VdW corrections, initial TS optimization, DFT functionals, gCP, sTDA/sTD-DF 
  Waldemar Hujo          : DFT-NL                                        
  H. Jonsson             : NEB                                           
  Holger Kruse           : gCP                                           
  Marcel Mueller         : wB97X-3c, vDZP basis set                      
  Hagen Neugebauer       : wr2SCAN, Native XTB                           
  Gianluca Regni         : ADLD/ADEX                                     
  Tobias Risthaus        : pre 6.0 range-separated hybrid DFT and stability analysis
  Lukas Wittmann         : regularized MP2, r2SCAN double-hybrids, wr2SCAN        
                                                                         
We gratefully acknowledge several colleagues who have allowed us to      
interface, adapt or use parts of their codes:                            
  Ed Valeev, F. Pavosevic, A. Kumar             : LibInt (2-el integral package), F12 methods 
  Garnet Chan, S. Sharma, J. Yang, R. Olivares  : DMRG                   
  Ulf Ekstrom                                   : XCFun DFT Library      
  Mihaly Kallay                                 : mrcc  (arbitrary order and MRCC methods)
  Frank Weinhold                                : gennbo (NPA and NBO analysis)           
  Simon Mueller                                 : openCOSMO-RS                            
  Christopher J. Cramer and Donald G. Truhlar   : smd solvation model                     
  S Lehtola, MJT Oliveira, MAL Marques          : LibXC Library                           
  Liviu Ungur et al                             : ANISO software                          


 Your calculation uses the libint2 library for the computation of 2-el integrals
 For citations please refer to: http://libint.valeyev.net

 Your ORCA version has been built with support for libXC version: 7.0.0
 For citations please refer to: https://libxc.gitlab.io

 This ORCA versions uses:
   CBLAS   interface :  Fast vector & matrix operations
   LAPACKE interface :  Fast linear algebra routines
   SCALAPACK package :  Parallel linear algebra routines
   Shared memory     :  Shared parallel matrices
   BLAS/LAPACK       :  OpenBLAS 0.3.29  USE64BITINT DYNAMIC_ARCH NO_AFFINITY Cooperlake SINGLE_THREADED
        Core in use  :  Cooperlake
   Copyright (c) 2011-2014, The OpenBLAS Project


  ***********************************
  * Starting time: Wed May 20 12:33:32 2026
  * Host name:     c1-46
  * Process ID:    3830856
  * Working dir.:  /cluster/projects/nn14654k/ylvaos/basis_set_n_funcs/functionals/lda_x/CH3COOH/out
  ***********************************

Using LibXC functional ID   1 : Slater exchange
[ 1]  P. A. M. Dirac.,  Math. Proc. Cambridge Philos. Soc. 26, 376 (1930)
[ 2]  F. Bloch.,  Z. Phys. 57, 545 (1929)
Using LibXC functional ID   1 : Slater exchange
[ 1]  P. A. M. Dirac.,  Math. Proc. Cambridge Philos. Soc. 26, 376 (1930)
[ 2]  F. Bloch.,  Z. Phys. 57, 545 (1929)
Your calculation utilizes LibXC
by S. Lehtola, C. Steigemann, M. J. T. Oliveira & M. A. L. Marques
Please cite in your paper:
Lehtola, S.; Steigemann, C.; Oliveira, M.J.T.; Marques, M. A. L. Software X, 7, (2018), 1.
   

================================================================================

----- Orbital basis set information -----
Your calculation utilizes the basis: cc-pVQZ 
       H, B-Ne : Obtained from the ccRepo (grant-hill.group.shef.ac.uk/ccrepo) Feb. 2017
                 T. H. Dunning, Jr., J. Chem. Phys. 90, 1007 (1989)
            He : Obtained from the ccRepo (grant-hill.group.shef.ac.uk/ccrepo) Feb. 2017
                 D. E. Woon, T. H. Dunning, Jr., J. Chem. Phys. 100, 2975 (1994)
  Li-Be, Na-Mg : Obtained from the ccRepo (grant-hill.group.shef.ac.uk/ccrepo) Feb. 2017
                 B. P. Prascher, D. E. Woon, K. A. Peterson, T. H. Dunning, Jr., A. K. Wilson, Theor. Chem. Acc. 128, 69 (2011)
         Al-Ar : Obtained from the ccRepo (grant-hill.group.shef.ac.uk/ccrepo) Feb. 2017
                 D. E. Woon, T. H. Dunning, Jr., J. Chem. Phys. 98, 1358 (1993)
            Ca : Obtained from the Peterson Research Group Website (tyr0.chem.wsu.edu/~kipeters) Feb. 2017
                 J. Koput, K. A. Peterson, J. Phys. Chem. 106, 9595 (2002)
         Sc-Zn : Obtained from the ccRepo (grant-hill.group.shef.ac.uk/ccrepo) Feb. 2017
                 N. B. Balabanov, K. A. Peterson, J. Chem. Phys. 123, 064107 (2005)
                 N. B. Balabanov, K. A. Peterson, J. Chem. Phys. 125, 074110 (2006)
         Ga-Kr : Obtained from the ccRepo (grant-hill.group.shef.ac.uk/ccrepo) Feb. 2017
                 A. K. Wilson, D. E. Woon, K. A. Peterson, T. H. Dunning, Jr., J. Chem. Phys. 110, 7667 (1999)

================================================================================
                                        WARNINGS
                       Please study these warnings very carefully!
================================================================================


================================================================================
                                       INPUT FILE
================================================================================
NAME = /cluster/projects/nn14654k/ylvaos/basis_set_n_funcs/functionals/lda_x/CH3COOH/inp/CH3COOH_lda_x_ccpvqz.inp
|  1> ! dft cc-pVQZ TightSCF
|  2> %pal nprocs 8 end
|  3> 
|  4> %loc
|  5>   LocMet NewBoys
|  6>   Occ true
|  7> end
|  8> 
|  9> %method
| 10>   exchange lda_x
| 11>   correlation None
| 12> end
| 13> 
| 14> %elprop
| 15>   Dipole true
| 16>   Quadrupole true
| 17> end
| 18> 
| 19> * xyz 0 1
| 20> C    0.000000000000   0.154560000000   0.000000000000
| 21> C    1.073776000000  -0.892748000000   0.000000000000
| 22> O    0.166384000000   1.360084000000   0.000000000000
| 23> O   -1.236449000000  -0.415036000000   0.000000000000
| 24> H   -1.867646000000   0.333582000000   0.000000000000
| 25> H    2.048189000000  -0.408135000000   0.000000000000
| 26> H    0.968661000000  -1.528353000000   0.881747000000
| 27> H    0.968661000000  -1.528353000000  -0.881747000000
| 28> *
| 29> 
| 30> 
| 31>                          ****END OF INPUT****
================================================================================

                       ****************************
                       * Single Point Calculation *
                       ****************************

---------------------------------
CARTESIAN COORDINATES (ANGSTROEM)
---------------------------------
  C      0.000000    0.154560    0.000000
  C      1.073776   -0.892748    0.000000
  O      0.166384    1.360084    0.000000
  O     -1.236449   -0.415036    0.000000
  H     -1.867646    0.333582    0.000000
  H      2.048189   -0.408135    0.000000
  H      0.968661   -1.528353    0.881747
  H      0.968661   -1.528353   -0.881747

----------------------------
CARTESIAN COORDINATES (A.U.)
----------------------------
  NO LB      ZA    FRAG     MASS         X           Y           Z
   0 C     6.0000    0    12.011    0.000000    0.292076    0.000000
   1 C     6.0000    0    12.011    2.029143   -1.687049    0.000000
   2 O     8.0000    0    15.999    0.314420    2.570186    0.000000
   3 O     8.0000    0    15.999   -2.336550   -0.784304    0.000000
   4 H     1.0000    0     1.008   -3.529339    0.630379    0.000000
   5 H     1.0000    0     1.008    3.870516   -0.771263    0.000000
   6 H     1.0000    0     1.008    1.830504   -2.888169    1.666260
   7 H     1.0000    0     1.008    1.830504   -2.888169   -1.666260

--------------------------------
INTERNAL COORDINATES (ANGSTROEM)
--------------------------------
 C      0   0   0     0.000000000000     0.00000000     0.00000000
 C      1   0   0     1.499949647502     0.00000000     0.00000000
 O      1   2   0     1.216951827326   126.42686784     0.00000000
 O      1   2   3     1.361339683113   110.98078396   180.00000000
 H      4   1   2     0.979203024267   105.40175469   180.00000085
 H      2   1   3     1.088269476893   109.27200725     0.00000000
 H      2   1   3     1.092025938913   109.72406365   120.93315147
 H      2   1   3     1.092025938913   109.72406365   239.06684853

---------------------------
INTERNAL COORDINATES (A.U.)
---------------------------
 C      0   0   0     0.000000000000     0.00000000     0.00000000
 C      1   0   0     2.834494048450     0.00000000     0.00000000
 O      1   2   0     2.299705671821   126.42686784     0.00000000
 O      1   2   3     2.572559176322   110.98078396   180.00000000
 H      4   1   2     1.850425545371   105.40175469   180.00000085
 H      2   1   3     2.056531271234   109.27200725     0.00000000
 H      2   1   3     2.063629955684   109.72406365   120.93315147
 H      2   1   3     2.063629955684   109.72406365   239.06684853

---------------------
BASIS SET INFORMATION
---------------------
There are 3 groups of distinct atoms

 Group   1 Type C   : 21s6p3d2f1g contracted to 5s4p3d2f1g pattern {99111/3111/111/11/1}
 Group   2 Type O   : 21s6p3d2f1g contracted to 5s4p3d2f1g pattern {99111/3111/111/11/1}
 Group   3 Type H   : 6s3p2d1f contracted to 4s3p2d1f pattern {3111/111/11/1}

Atom   0C    basis set group =>   1
Atom   1C    basis set group =>   1
Atom   2O    basis set group =>   2
Atom   3O    basis set group =>   2
Atom   4H    basis set group =>   3
Atom   5H    basis set group =>   3
Atom   6H    basis set group =>   3
Atom   7H    basis set group =>   3


           ************************************************************
           *        Program running with 8 parallel MPI-processes     *
           *              working on a common directory               *
           ************************************************************
------------------------------------------------------------------------------
                             ORCA STARTUP CALCULATIONS
------------------------------------------------------------------------------
------------------------------------------------------------------------------
                   ___                                                        
                  /   \      - P O W E R E D   B Y -                         
                 /     \                                                     
                 |  |  |   _    _      __       _____    __    __             
                 |  |  |  | |  | |    /  \     |  _  \  |  |  /  |          
                  \  \/   | |  | |   /    \    | | | |  |  | /  /          
                 / \  \   | |__| |  /  /\  \   | |_| |  |  |/  /          
                |  |  |   |  __  | /  /__\  \  |    /   |      \           
                |  |  |   | |  | | |   __   |  |    \   |  |\   \          
                \     /   | |  | | |  |  |  |  | |\  \  |  | \   \       
                 \___/    |_|  |_| |__|  |__|  |_| \__\ |__|  \__/        
                                                                              
                      - O R C A' S   B I G   F R I E N D -                    
                                      &                                       
                       - I N T E G R A L  F E E D E R -                       
                                                                              
 v1 FN, 2020, v2 2021, v3 2022-2024                                           
------------------------------------------------------------------------------


----------------------
SHARK INTEGRAL PACKAGE
----------------------

Number of atoms                             ...      8
Number of basis functions                   ...    368
Number of shells                            ...    128
Maximum angular momentum                    ...      4
Integral batch strategy                     ... SHARK/LIBINT Hybrid
RI-J (if used) integral strategy            ... SPLIT-RIJ (Revised 2003 algorithm where possible)
Printlevel                                  ...      1
Contraction scheme used                     ... PARTIAL GENERAL contraction
Prescreening option                         ... SCHWARTZ
   Thresh                                   ... 2.500e-11
   Tcut                                     ... 2.500e-12
   Tpresel                                  ... 2.500e-12 
Coulomb Range Separation                    ... NOT USED
Exchange Range Separation                   ... NOT USED
Multipole approximations                    ... NOT USED
Finite Nucleus Model                        ... NOT USED
CABS basis                                  ... NOT available
Auxiliary Coulomb fitting basis             ... NOT available
Auxiliary J/K fitting basis                 ... NOT available
Auxiliary Correlation fitting basis         ... NOT available
Auxiliary 'external' fitting basis          ... NOT available

Checking pre-screening integrals            ... done (  0.0 sec) Dimension = 128
Save PGC pre-screening integrals            ... done (  0.0 sec) Dimension = 128
Calculate PGC overlap integrals             ... done (  0.0 sec) Dimension = 100
Calculating pre-screening integrals (ORCA)  ... done (  0.1 sec) Dimension = 100
Shell pair information
Shell pair cut-off parameter TPreSel        ...   2.5e-12
Total number of shell pairs                 ...      8256
Shell pairs after pre-screening             ...      7045
Total number of primitive shell pairs       ...     10464
Primitive shell pairs kept                  ...      8393
          la=0 lb=0:   1474 shell pairs
          la=1 lb=0:   1562 shell pairs
          la=1 lb=1:    388 shell pairs
          la=2 lb=0:   1117 shell pairs
          la=2 lb=1:    535 shell pairs
          la=2 lb=2:    202 shell pairs
          la=3 lb=0:    662 shell pairs
          la=3 lb=1:    324 shell pairs
          la=3 lb=2:    228 shell pairs
          la=3 lb=3:     77 shell pairs
          la=4 lb=0:    230 shell pairs
          la=4 lb=1:    109 shell pairs
          la=4 lb=2:     79 shell pairs
          la=4 lb=3:     48 shell pairs
          la=4 lb=4:     10 shell pairs

Checking whether 4 symmetric matrices of dimension 368 fit in memory
:Max Core in MB      =   4096.00
 MB in use           =     11.63
 MB left             =   4084.37
 MB needed           =      2.07
 Data fit in memory  = YES
Calculating Nuclear repulsion               ... done (  0.0 sec) ENN=    120.693288504615 Eh

Diagonalization of the overlap matrix:
Smallest eigenvalue                        ... 1.217e-04
Time for diagonalization                   ...    0.007 sec
Threshold for overlap eigenvalues          ... 1.000e-07
Number of eigenvalues below threshold      ... 0
Time for construction of square roots      ...    0.005 sec
Total time needed                          ...    0.015 sec

-------------------
DFT GRID GENERATION
-------------------

General Integration Accuracy     IntAcc      ... 4.388
Radial Grid Type                 RadialGrid  ... OptM3 with GC (2021)
Angular Grid (max. ang.)         AngularGrid ... 4 (Lebedev-302)
Angular grid pruning method      GridPruning ... 4 (adaptive)
Weight generation scheme         WeightScheme... mBecke (2022)
Basis function cutoff            BFCut       ... 1.0000e-11
Integration weight cutoff        WCut        ... 1.0000e-14
Partially contracted basis set               ... off
Rotationally invariant grid construction     ... off
Angular grids for H and He will be reduced by one unit

Total number of grid points                  ...    37392
Total number of batches                      ...      588
Average number of points per batch           ...       63
Average number of grid points per atom       ...     4674

---------------------
SHARK GRID GENERATION
---------------------

General Integration Accuracy     IntAcc      ... 4.388
Radial Grid Type                 RadialGrid  ... OptM3 with GC (2021)
Angular Grid (max. ang.)         AngularGrid ... 4 (Lebedev-302)
Angular grid pruning method      GridPruning ... 4 (adaptive)
Weight generation scheme         WeightScheme... mBecke (2022)
Basis function cutoff            BFCut       ... 1.0000e-11
Integration weight cutoff        WCut        ... 1.0000e-14
Partially contracted basis set               ... off
Rotationally invariant grid construction     ... off
Angular grids for H and He will be reduced by one unit
Steep s-basis detected: some atoms will have their radial
                        grid points doubled.

Total number of grid points                  ...    62114
Total number of batches                      ...      975
Average number of points per batch           ...       63
Average number of grid points per atom       ...     7764
Grids setup in   0.4 sec
Initializing property integral containers    ... done (  0.0 sec)

SHARK setup successfully completed in   0.6 seconds

Maximum memory used throughout the entire STARTUP-calculation: 37.6 MB


           ************************************************************
           *        Program running with 8 parallel MPI-processes     *
           *              working on a common directory               *
           ************************************************************
-------------------------------------------------------------------------------
                                 ORCA GUESS
                   Start orbitals & Density for SCF / CASSCF
-------------------------------------------------------------------------------

------------
SCF SETTINGS
------------
Hamiltonian:
 Density Functional     Method          .... DFT(GTOs)
  Functional kind                       .... Exchange
  Functional name                       .... Slater exchange
  Functional family                     .... LDA
  Functional refs                              
    [ 0] P. A. M. Dirac.,  Math. Proc. Cambridge Philos. Soc. 26, 376 (1930), doi: 10.1017/S0305004100016108
    [ 1] F. Bloch.,  Z. Phys. 57, 545 (1929), doi: 10.1007/BF01340281
  Functional external parameters        .... 0
 Correlation Functional Correlation     .... No Correlation
 Gradients option       PostSCFGGA      .... off


General Settings:
 Integral files         IntName         .... /cluster/projects/nn14654k/ylvaos/basis_set_n_funcs/functionals/lda_x/CH3COOH/inp/CH3COOH_lda_x_ccpvqz
 Hartree-Fock type      HFTyp           .... RHF
 Total Charge           Charge          ....    0
 Multiplicity           Mult            ....    1
 Number of Electrons    NEL             ....   32
 Basis Dimension        Dim             ....  340
 Nuclear Repulsion      ENuc            ....    120.6932885046 Eh

Convergence Acceleration:
 AO-DIIS                CNVDIIS         .... on
   Start iteration      DIISMaxIt       ....    12
   Startup error        DIISStart       ....  0.200000
   # of expansion vecs  DIISMaxEq       ....     5
   Bias factor          DIISBfac        ....   1.050
   Max. coefficient     DIISMaxC        ....  10.000
 MO-DIIS                CNVKDIIS        .... off
 Trust-Rad. Augm. Hess. CNVTRAH         .... auto
   Auto Start mean grad. ratio tolernc. ....  1.125000
   Auto Start start iteration           ....    50
   Auto Start num. interpolation iter.  ....    10
   Max. Number of Micro iterations      ....    24
   Max. Number of Macro iterations      .... Maxiter - #DIIS iter
   Number of Davidson start vectors     ....     2
   Converg. threshold    (grad. norm)   ....   1.000e-05
   Grad. Scal. Fac. for Micro threshold ....   0.100
   Minimum threshold for Micro iter.    ....   1.000e-02
   NR start threshold (gradient norm)   ....   1.000e-04
   Initial trust radius                 ....   0.400
   Minimum AH scaling param. (alpha)    ....   1.000
   Maximum AH scaling param. (alpha)    .... 1000.000
   Quad. conv. algorithm                .... NR
   White noise on init. David. guess    .... on
   Maximum white noise                  ....   0.010
   Pseudo random numbers                .... off
   Inactive MOs                         .... canonical
   Orbital update algorithm             .... Taylor
   Preconditioner                       .... Diag
   Full preconditioner red. dimension   ....   250
 SOSCF                 CNVSOSCF           .... on
   Start iteration     SOSCFMaxIt         ....   150
   Startup grad/error  SOSCFStart         ....  0.003300
   Hessian update      SOSCFHessUp        .... L-BFGS
   Autom. constraints  SOSCFAutoConstrain .... off
 Level Shifting         CNVShift        .... on
   Level shift para.    LevelShift      ....    0.2500
   Turn off err/grad.   ShiftErr        ....    0.0010
 Zerner damping         CNVZerner       .... off
 Static damping         CNVDamp         .... on
   Fraction old density DampFac         ....    0.7000
   Max. Damping (<1)    DampMax         ....    0.9800
   Min. Damping (>=0)   DampMin         ....    0.0000
   Turn off err/grad.   DampErr         ....    0.1000

SCF Procedure:
 Maximum # iterations   MaxIter         ....   125
 SCF integral mode      SCFMode         .... Direct
   Integral package                     .... SHARK and LIBINT hybrid scheme
 Reset frequency        DirectResetFreq ....    20
 Integral Threshold     Thresh          ....  2.500e-11 Eh
 Primitive CutOff       TCut            ....  2.500e-12 Eh

Convergence Tolerance:
 Convergence Check Mode ConvCheckMode   .... Total+1el-Energy
 Convergence forced     ConvForced      .... 0
 Energy Change          TolE            ....  1.000e-08 Eh
 1-El. energy change                    ....  1.000e-05 Eh
 Orbital Gradient       TolG            ....  1.000e-05
 Orbital Rotation angle TolX            ....  1.000e-05
 DIIS Error             TolErr          ....  5.000e-07

------------------------------
INITIAL GUESS: MODEL POTENTIAL
------------------------------
Loading Hartree-Fock densities                     ... done
Calculating cut-offs                               ... done
Initializing the effective Hamiltonian             ... done
Setting up the integral package (SHARK)            ... done
Starting the Coulomb interaction                   ... done (   0.0 sec)
Making the grid                                    ... done (   0.0 sec)
Mapping shells                                     ... done
Starting the XC term evaluation                    ... done (   0.0 sec)
  promolecular density results
     # of electrons  =     31.997224895
     EX              =    -25.141976082
     EC              =      0.000000000
     EX+EC           =    -25.141976082
Transforming the Hamiltonian                       ... done (   0.0 sec)
Diagonalizing the Hamiltonian                      ... done (   0.0 sec)
Back transforming the eigenvectors                 ... done (   0.0 sec)
Now organizing SCF variables                       ... done
                      ------------------
                      INITIAL GUESS DONE (   0.1 sec)
                      ------------------
             **** ENERGY FILE WAS UPDATED (/cluster/projects/nn14654k/ylvaos/basis_set_n_funcs/functionals/lda_x/CH3COOH/inp/CH3COOH_lda_x_ccpvqz.en.tmp) ****
Finished Guess after   0.2 sec
Maximum memory used throughout the entire GUESS-calculation: 20.7 MB


           ************************************************************
           *        Program running with 8 parallel MPI-processes     *
           *              working on a common directory               *
           ************************************************************

-------------------------------------------------------------------------------------------
                                      ORCA LEAN-SCF
                              memory conserving SCF solver
-------------------------------------------------------------------------------------------

----------------------------------------D-I-I-S--------------------------------------------
Iteration    Energy (Eh)           Delta-E    RMSDP     MaxDP     DIISErr   Damp  Time(sec)
-------------------------------------------------------------------------------------------
               ***  Starting incremental Fock matrix formation  ***
    1    -225.1417999177807587     0.00e+00  3.33e-03  7.35e-02  2.26e-01  0.700   2.5
    2    -225.2190761012224129    -7.73e-02  2.47e-03  6.22e-02  8.36e-02  0.700   2.3
                               ***Turning on AO-DIIS***
    3    -225.2395681509204337    -2.05e-02  9.00e-04  1.73e-02  2.96e-02  0.700   2.2
    4    -225.2542894938310383    -1.47e-02  1.02e-03  1.65e-02  2.19e-02  0.000   2.1
    5    -225.2894758372156616    -3.52e-02  5.85e-04  1.66e-02  1.25e-02  0.000   2.2
    6    -225.2899118407719925    -4.36e-04  2.12e-04  5.39e-03  3.43e-03  0.000   2.1
                              *** Initializing SOSCF ***
---------------------------------------S-O-S-C-F--------------------------------------
Iteration    Energy (Eh)           Delta-E    RMSDP     MaxDP     MaxGrad    Time(sec)
--------------------------------------------------------------------------------------
    7    -225.2899437061878416    -3.19e-05  8.95e-05  2.31e-03  1.88e-03     2.1
               *** Restarting incremental Fock matrix formation ***
    8    -225.2899513048800486    -7.60e-06  5.00e-05  8.66e-04  2.37e-04     2.6
    9    -225.2899468470474744     4.46e-06  3.45e-05  7.48e-04  9.03e-04     1.8
   10    -225.2899524612544155    -5.61e-06  2.00e-05  4.23e-04  1.18e-04     1.8
   11    -225.2899520800533537     3.81e-07  8.32e-06  1.40e-04  2.10e-04     1.7
   12    -225.2899525961660174    -5.16e-07  5.93e-06  1.42e-04  1.98e-05     1.6
   13    -225.2899525873056632     8.86e-09  3.34e-06  8.16e-05  3.00e-05     1.5
                 **** Energy Check signals convergence ****

               *****************************************************
               *                     SUCCESS                       *
               *           SCF CONVERGED AFTER  13 CYCLES          *
               *****************************************************

             **** ENERGY FILE WAS UPDATED (/cluster/projects/nn14654k/ylvaos/basis_set_n_funcs/functionals/lda_x/CH3COOH/inp/CH3COOH_lda_x_ccpvqz.en.tmp) ****

----------------
TOTAL SCF ENERGY
----------------

Total Energy       :       -225.28995260355265 Eh           -6130.45128 eV

Components:
Nuclear Repulsion  :        120.69328850461517 Eh            3284.23135 eV
Electronic Energy  :       -345.98324110816782 Eh           -9414.68262 eV
One Electron Energy:       -550.54812083611432 Eh          -14981.17600 eV
Two Electron Energy:        204.56487972794648 Eh            5566.49337 eV

Virial components:
Potential Energy   :       -450.67374123260663 Eh          -12263.45596 eV
Kinetic Energy     :        225.38378862905395 Eh            6133.00468 eV
Virial Ratio       :          1.99958366115828

DFT components:
N(Alpha)           :       15.999987515936 electrons
N(Beta)            :       15.999987515936 electrons
N(Total)           :       31.999975031873 electrons
E(X)               :      -25.420257318004 Eh       
E(C)               :        0.000000000000 Eh       
E(XC)              :      -25.420257318004 Eh       

---------------
SCF CONVERGENCE
---------------

  Last Energy change         ...   -8.8604e-09  Tolerance :   1.0000e-08
  Last MAX-Density change    ...    8.1568e-05  Tolerance :   1.0000e-07
  Last RMS-Density change    ...    3.3387e-06  Tolerance :   5.0000e-09
  Last DIIS Error            ...    1.8750e-03  Tolerance :   5.0000e-07
  Last Orbital Gradient      ...    2.9951e-05  Tolerance :   1.0000e-05
  Last Orbital Rotation      ...    2.2581e-05  Tolerance :   1.0000e-05


----------------
ORBITAL ENERGIES
----------------

  NO   OCC          E(Eh)            E(eV) 
   0   2.0000     -18.587602      -505.7944 
   1   2.0000     -18.531940      -504.2797 
   2   2.0000      -9.842399      -267.8253 
   3   2.0000      -9.725707      -264.6499 
   4   2.0000      -0.965616       -26.2757 
   5   2.0000      -0.877887       -23.8885 
   6   2.0000      -0.645665       -17.5694 
   7   2.0000      -0.510467       -13.8905 
   8   2.0000      -0.396406       -10.7867 
   9   2.0000      -0.385942       -10.5020 
  10   2.0000      -0.384698       -10.4682 
  11   2.0000      -0.323907        -8.8139 
  12   2.0000      -0.307945        -8.3796 
  13   2.0000      -0.307629        -8.3710 
  14   2.0000      -0.245552        -6.6818 
  15   2.0000      -0.196400        -5.3443 
  16   0.0000      -0.002875        -0.0782 
  17   0.0000       0.024036         0.6541 
  18   0.0000       0.053041         1.4433 
  19   0.0000       0.098975         2.6932 
  20   0.0000       0.103808         2.8248 
  21   0.0000       0.126840         3.4515 
  22   0.0000       0.161190         4.3862 
  23   0.0000       0.189848         5.1660 
  24   0.0000       0.195377         5.3165 
  25   0.0000       0.210144         5.7183 
  26   0.0000       0.231881         6.3098 
*Only the first 10 virtual orbitals were printed.

                    ********************************
                    * MULLIKEN POPULATION ANALYSIS *
                    ********************************

-----------------------
MULLIKEN ATOMIC CHARGES
-----------------------
   0 C :    0.347878
   1 C :   -0.353374
   2 O :   -0.331992
   3 O :   -0.273585
   4 H :    0.224431
   5 H :    0.134906
   6 H :    0.125868
   7 H :    0.125868
Sum of atomic charges:   -0.0000000

--------------------------------
MULLIKEN REDUCED ORBITAL CHARGES
--------------------------------
  0 C s       :     2.990151  s :     2.990151
      pz      :     0.793417  p :     2.440886
      px      :     0.814667
      py      :     0.832802
      dz2     :     0.017505  d :     0.194098
      dxz     :     0.024767
      dyz     :     0.045299
      dx2y2   :     0.050437
      dxy     :     0.056090
      f0      :     0.003539  f :     0.023469
      f+1     :     0.002081
      f-1     :     0.002833
      f+2     :     0.000217
      f-2     :     0.001362
      f+3     :     0.006677
      f-3     :     0.006760
      g0      :     0.000129  g :     0.003518
      g+1     :     0.000171
      g-1     :     0.000299
      g+2     :     0.000264
      g-2     :     0.000180
      g+3     :     0.000095
      g-3     :     0.000443
      g+4     :     0.000900
      g-4     :     0.001037

  1 C s       :     3.211340  s :     3.211340
      pz      :     1.054907  p :     3.094056
      px      :     1.008240
      py      :     1.030909
      dz2     :     0.008151  d :     0.041750
      dxz     :     0.000900
      dyz     :     0.012110
      dx2y2   :     0.007189
      dxy     :     0.013401
      f0      :     0.000647  f :     0.005513
      f+1     :     0.000492
      f-1     :     0.001142
      f+2     :    -0.000208
      f-2     :     0.000558
      f+3     :     0.001277
      f-3     :     0.001605
      g0      :     0.000058  g :     0.000716
      g+1     :     0.000024
      g-1     :     0.000139
      g+2     :     0.000107
      g-2     :     0.000088
      g+3     :     0.000023
      g-3     :     0.000053
      g+4     :     0.000127
      g-4     :     0.000097

  2 O s       :     3.682800  s :     3.682800
      pz      :     1.397839  p :     4.605947
      px      :     1.775978
      py      :     1.432130
      dz2     :     0.004007  d :     0.039707
      dxz     :     0.000527
      dyz     :     0.013873
      dx2y2   :     0.010844
      dxy     :     0.010457
      f0      :     0.000498  f :     0.003357
      f+1     :     0.000064
      f-1     :     0.000108
      f+2     :     0.001019
      f-2     :     0.000091
      f+3     :     0.001003
      f-3     :     0.000573
      g0      :     0.000009  g :     0.000181
      g+1     :     0.000001
      g-1     :     0.000042
      g+2     :     0.000018
      g-2     :     0.000007
      g+3     :     0.000005
      g-3     :     0.000027
      g+4     :     0.000035
      g-4     :     0.000037

  3 O s       :     3.674377  s :     3.674377
      pz      :     1.719039  p :     4.563091
      px      :     1.253389
      py      :     1.590662
      dz2     :     0.005753  d :     0.032970
      dxz     :     0.004097
      dyz     :     0.003358
      dx2y2   :     0.006643
      dxy     :     0.013119
      f0      :     0.000484  f :     0.003000
      f+1     :     0.000630
      f-1     :     0.000377
      f+2     :     0.000194
      f-2     :     0.000231
      f+3     :     0.000498
      f-3     :     0.000586
      g0      :     0.000011  g :     0.000148
      g+1     :     0.000011
      g-1     :     0.000006
      g+2     :     0.000007
      g-2     :     0.000017
      g+3     :     0.000002
      g-3     :     0.000012
      g+4     :     0.000042
      g-4     :     0.000039

  4 H s       :     0.684513  s :     0.684513
      pz      :     0.034292  p :     0.081046
      px      :     0.016982
      py      :     0.029772
      dz2     :     0.000583  d :     0.009165
      dxz     :     0.001887
      dyz     :     0.002837
      dx2y2   :     0.001882
      dxy     :     0.001975
      f0      :     0.000181  f :     0.000845
      f+1     :     0.000010
      f-1     :     0.000012
      f+2     :     0.000009
      f-2     :     0.000317
      f+3     :     0.000121
      f-3     :     0.000194

  5 H s       :     0.829343  s :     0.829343
      pz      :     0.013448  p :     0.033750
      px      :     0.007582
      py      :     0.012719
      dz2     :    -0.000145  d :     0.002046
      dxz     :     0.001111
      dyz     :     0.000377
      dx2y2   :     0.000391
      dxy     :     0.000313
      f0      :     0.000026  f :    -0.000045
      f+1     :    -0.000044
      f-1     :    -0.000020
      f+2     :     0.000013
      f-2     :     0.000039
      f+3     :     0.000055
      f-3     :    -0.000114

  6 H s       :     0.830582  s :     0.830582
      pz      :     0.013848  p :     0.040867
      px      :     0.014260
      py      :     0.012759
      dz2     :     0.000907  d :     0.002686
      dxz     :     0.000895
      dyz     :    -0.000103
      dx2y2   :     0.000309
      dxy     :     0.000679
      f0      :     0.000069  f :    -0.000003
      f+1     :     0.000012
      f-1     :    -0.000117
      f+2     :    -0.000023
      f-2     :     0.000043
      f+3     :     0.000011
      f-3     :     0.000002

  7 H s       :     0.830582  s :     0.830582
      pz      :     0.013848  p :     0.040867
      px      :     0.014260
      py      :     0.012759
      dz2     :     0.000907  d :     0.002686
      dxz     :     0.000895
      dyz     :    -0.000103
      dx2y2   :     0.000309
      dxy     :     0.000679
      f0      :     0.000069  f :    -0.000003
      f+1     :     0.000012
      f-1     :    -0.000117
      f+2     :    -0.000023
      f-2     :     0.000043
      f+3     :     0.000011
      f-3     :     0.000002



                     *******************************
                     * LOEWDIN POPULATION ANALYSIS *
                     *******************************

----------------------
LOEWDIN ATOMIC CHARGES
----------------------
   0 C :   -0.879281
   1 C :    0.278268
   2 O :    0.395614
   3 O :    0.800314
   4 H :   -0.377178
   5 H :   -0.074481
   6 H :   -0.071628
   7 H :   -0.071628

-------------------------------
LOEWDIN REDUCED ORBITAL CHARGES
-------------------------------
  0 C s       :     2.670331  s :     2.670331
      pz      :     0.712337  p :     2.608419
      px      :     0.863900
      py      :     1.032182
      dz2     :     0.083299  d :     1.201496
      dxz     :     0.140712
      dyz     :     0.216111
      dx2y2   :     0.334794
      dxy     :     0.426579
      f0      :     0.016793  f :     0.352917
      f+1     :     0.015061
      f-1     :     0.021908
      f+2     :     0.052046
      f-2     :     0.031562
      f+3     :     0.139926
      f-3     :     0.075621
      g0      :     0.001452  g :     0.046117
      g+1     :     0.004037
      g-1     :     0.008252
      g+2     :     0.004224
      g-2     :     0.004989
      g+3     :     0.000647
      g-3     :     0.003435
      g+4     :     0.009258
      g-4     :     0.009824

  1 C s       :     2.569809  s :     2.569809
      pz      :     0.918363  p :     2.729923
      px      :     0.903246
      py      :     0.908314
      dz2     :     0.060070  d :     0.346089
      dxz     :     0.024607
      dyz     :     0.088396
      dx2y2   :     0.081327
      dxy     :     0.091688
      f0      :     0.005359  f :     0.072339
      f+1     :     0.008580
      f-1     :     0.011033
      f+2     :     0.006974
      f-2     :     0.008882
      f+3     :     0.014921
      f-3     :     0.016591
      g0      :     0.000132  g :     0.003572
      g+1     :     0.000367
      g-1     :     0.000276
      g+2     :     0.000440
      g-2     :     0.000226
      g+3     :     0.000288
      g-3     :     0.000285
      g+4     :     0.000431
      g-4     :     0.001128

  2 O s       :     3.288382  s :     3.288382
      pz      :     1.236853  p :     4.194778
      px      :     1.491709
      py      :     1.466215
      dz2     :     0.010578  d :     0.098637
      dxz     :     0.001329
      dyz     :     0.020326
      dx2y2   :     0.031891
      dxy     :     0.034513
      f0      :     0.001779  f :     0.021470
      f+1     :     0.000617
      f-1     :     0.002604
      f+2     :     0.002739
      f-2     :     0.000584
      f+3     :     0.007730
      f-3     :     0.005417
      g0      :     0.000051  g :     0.001118
      g+1     :     0.000004
      g-1     :     0.000142
      g+2     :     0.000105
      g-2     :     0.000080
      g+3     :     0.000023
      g-3     :     0.000084
      g+4     :     0.000256
      g-4     :     0.000374

  3 O s       :     3.058923  s :     3.058923
      pz      :     1.401307  p :     3.997732
      px      :     1.187767
      py      :     1.408659
      dz2     :     0.014144  d :     0.121257
      dxz     :     0.016454
      dyz     :     0.006214
      dx2y2   :     0.035276
      dxy     :     0.049168
      f0      :     0.001761  f :     0.021038
      f+1     :     0.001800
      f-1     :     0.000814
      f+2     :     0.000741
      f-2     :     0.002520
      f+3     :     0.007999
      f-3     :     0.005402
      g0      :     0.000034  g :     0.000736
      g+1     :     0.000097
      g-1     :     0.000066
      g+2     :     0.000088
      g-2     :     0.000076
      g+3     :     0.000049
      g-3     :     0.000089
      g+4     :     0.000210
      g-4     :     0.000026

  4 H s       :     0.701169  s :     0.701169
      pz      :     0.122492  p :     0.439874
      px      :     0.127003
      py      :     0.190379
      dz2     :     0.015610  d :     0.197524
      dxz     :     0.028395
      dyz     :     0.040075
      dx2y2   :     0.068867
      dxy     :     0.044577
      f0      :     0.005581  f :     0.038611
      f+1     :     0.001997
      f-1     :     0.002329
      f+2     :     0.000238
      f-2     :     0.009337
      f+3     :     0.008660
      f-3     :     0.010469

  5 H s       :     0.785748  s :     0.785748
      pz      :     0.061999  p :     0.208212
      px      :     0.083724
      py      :     0.062488
      dz2     :     0.004680  d :     0.070911
      dxz     :     0.019252
      dyz     :     0.007143
      dx2y2   :     0.021594
      dxy     :     0.018241
      f0      :     0.001218  f :     0.009610
      f+1     :     0.001027
      f-1     :     0.000330
      f+2     :     0.000550
      f-2     :     0.001550
      f+3     :     0.002968
      f-3     :     0.001967

  6 H s       :     0.777231  s :     0.777231
      pz      :     0.080107  p :     0.214108
      px      :     0.059677
      py      :     0.074323
      dz2     :     0.023284  d :     0.070822
      dxz     :     0.014408
      dyz     :     0.015454
      dx2y2   :     0.006809
      dxy     :     0.010866
      f0      :     0.002557  f :     0.009467
      f+1     :     0.000753
      f-1     :     0.002002
      f+2     :     0.001453
      f-2     :     0.001930
      f+3     :     0.000482
      f-3     :     0.000289

  7 H s       :     0.777231  s :     0.777231
      pz      :     0.080107  p :     0.214108
      px      :     0.059677
      py      :     0.074323
      dz2     :     0.023284  d :     0.070822
      dxz     :     0.014408
      dyz     :     0.015454
      dx2y2   :     0.006809
      dxy     :     0.010866
      f0      :     0.002557  f :     0.009467
      f+1     :     0.000753
      f-1     :     0.002002
      f+2     :     0.001453
      f-2     :     0.001930
      f+3     :     0.000482
      f-3     :     0.000289



                      *****************************
                      * MAYER POPULATION ANALYSIS *
                      *****************************

  NA   - Mulliken gross atomic population
  ZA   - Total nuclear charge
  QA   - Mulliken gross atomic charge
  VA   - Mayer's total valence
  BVA  - Mayer's bonded valence
  FA   - Mayer's free valence

  ATOM       NA         ZA         QA         VA         BVA        FA
  0 C      5.6521     6.0000     0.3479     4.4530     4.4530     0.0000
  1 C      6.3534     6.0000    -0.3534     3.8358     3.8358    -0.0000
  2 O      8.3320     8.0000    -0.3320     2.2823     2.2823    -0.0000
  3 O      8.2736     8.0000    -0.2736     2.2807     2.2807     0.0000
  4 H      0.7756     1.0000     0.2244     1.0694     1.0694     0.0000
  5 H      0.8651     1.0000     0.1349     1.0042     1.0042     0.0000
  6 H      0.8741     1.0000     0.1259     1.0065     1.0065     0.0000
  7 H      0.8741     1.0000     0.1259     1.0065     1.0065     0.0000

  Mayer bond orders larger than 0.100000
B(  0-C ,  1-C ) :   1.0075 B(  0-C ,  2-O ) :   2.1213 B(  0-C ,  3-O ) :   1.2724 
B(  1-C ,  5-H ) :   0.9563 B(  1-C ,  6-H ) :   0.9370 B(  1-C ,  7-H ) :   0.9370 
B(  3-O ,  4-H ) :   0.9548 

-------
TIMINGS
-------

Total SCF time: 0 days 0 hours 0 min 28 sec 

Total time                  ....      28.162 sec
Sum of individual times     ....      26.690 sec  ( 94.8%)

SCF preparation             ....       0.083 sec  (  0.3%)
Fock matrix formation       ....      25.938 sec  ( 92.1%)
  Startup                   ....       0.021 sec  (  0.1% of F)
  Coulomb formation         ....      26.286 sec  (101.3% of F)
  XC integration            ....       0.865 sec  (  3.3% of F)
    XC Preparation          ....       0.000 sec  (  0.0% of XC)
    Basis function eval.    ....       0.067 sec  (  7.8% of XC)
    Density eval.           ....       0.129 sec  ( 15.0% of XC)
    XC-Functional eval.     ....       0.010 sec  (  1.2% of XC)
    XC-Potential eval.      ....       0.180 sec  ( 20.8% of XC)
Diagonalization             ....       0.000 sec  (  0.0%)
Density matrix formation    ....       0.076 sec  (  0.3%)
Total Energy calculation    ....       0.028 sec  (  0.1%)
Population analysis         ....       0.022 sec  (  0.1%)
Orbital Transformation      ....       0.041 sec  (  0.1%)
Orbital Orthonormalization  ....       0.000 sec  (  0.0%)
DIIS solution               ....       0.339 sec  (  1.2%)
SOSCF solution              ....       0.163 sec  (  0.6%)
Finished LeanSCF after  28.2 sec

Maximum memory used throughout the entire LEANSCF-calculation: 30.8 MB


           ************************************************************
           *        Program running with 8 parallel MPI-processes     *
           *              working on a common directory               *
           ************************************************************

------------------------------------------------------------------------------
                         ORCA PROPERTY INTEGRAL CALCULATIONS
------------------------------------------------------------------------------

GBWName                                   ... /cluster/projects/nn14654k/ylvaos/basis_set_n_funcs/functionals/lda_x/CH3COOH/inp/CH3COOH_lda_x_ccpvqz.gbw
Number of atoms                           ...      8
Number of basis functions                 ...    368
Max core memory                           ...   4096 MB

Dipole integrals                          ... YES
Quadrupole integrals                      ... YES
Linear momentum integrals                 ...  NO
Angular momentum integrals                ...  NO
Higher moments length integrals           ...  NO
Higher moments velocity integrals         ...  NO
Kinetic energy integrals                  ...  NO
GIAO right hand sides                     ...  NO
GIAO dipole derivative integrals          ...  NO
SOC integrals                             ...  NO
EPR diamagnetic integrals (GIAO)          ...  NO
EPR gauge integrals                       ...  NO
Field gradient integrals                  ...  NO (   0 nuclei)
Spin-dipole/Fermi contact integrals       ...  NO (   0 nuclei)
Contact density integrals                 ...  NO (   0 nuclei)
Nucleus-orbit integrals                   ...  NO (   0 nuclei)
Geometric perturbations                   ...  NO (   8 nuclei)

Choice of electric origin   ... Center of mass
Position of electric origin ... ( -0.0657,  0.0975,  0.0000) 
Choice of magnetic origin   ... GIAO
Position of magnetic origin ... (  0.0000,  0.0000,  0.0000) 

Calculating integrals                     ... Electric Dipole (Length)     done (  0.0 sec)
Calculating integrals                     ... Electric Quadrupole (Length) done (  0.0 sec)

Property integrals calculated in   0.0 sec

Maximum memory used throughout the entire PROPINT-calculation: 23.1 MB
------------------------------------------------------------------------------
                           ORCA ORBITAL LOCALIZATION
------------------------------------------------------------------------------

Input orbitals are from                  ... /cluster/projects/nn14654k/ylvaos/basis_set_n_funcs/functionals/lda_x/CH3COOH/inp/CH3COOH_lda_x_ccpvqz.gbw
Output orbitals are to                   ... /cluster/projects/nn14654k/ylvaos/basis_set_n_funcs/functionals/lda_x/CH3COOH/inp/CH3COOH_lda_x_ccpvqz.loc
Max. number of iterations                ... 128
Localizations seeded randomly            ... on
Convergence tolerance                    ... 1.000e-06
Threshold for strong local MOs           ... 9.500e-01
Threshold for bond MOs                   ... 8.500e-01
Operator                                 ... 0
Orbital range for localization           ... 4 to 15
Localization criterion                   ... NEW-BOYS
Doing the dipole integrals               ... o.k.
Initial value of the localization sum :    54.849075
ITERATION   0 : L=   78.0915246782 DL=  2.32e+01 (AVERGE_DL)=    0.5934292937 
ITERATION   1 : L=   80.7698594295 DL=  2.68e+00 (AVERGE_DL)=    0.2014468405 
ITERATION   2 : L=   80.8024787667 DL=  3.26e-02 (AVERGE_DL)=    0.0222313379 
ITERATION   3 : L=   80.8085295873 DL=  6.05e-03 (AVERGE_DL)=    0.0095749203 
ITERATION   4 : L=   80.8132494617 DL=  4.72e-03 (AVERGE_DL)=    0.0084565507 
ITERATION   5 : L=   80.8168211523 DL=  3.57e-03 (AVERGE_DL)=    0.0073563934 
ITERATION   6 : L=   80.8193339264 DL=  2.51e-03 (AVERGE_DL)=    0.0061702783 
ITERATION   7 : L=   80.8209888574 DL=  1.65e-03 (AVERGE_DL)=    0.0050074656 
ITERATION   8 : L=   80.8220440091 DL=  1.06e-03 (AVERGE_DL)=    0.0039983932 
ITERATION   9 : L=   80.8227090051 DL=  6.65e-04 (AVERGE_DL)=    0.0031742238 
ITERATION  10 : L=   80.8231284842 DL=  4.19e-04 (AVERGE_DL)=    0.0025210601 
ITERATION  11 : L=   80.8233949918 DL=  2.67e-04 (AVERGE_DL)=    0.0020094759 
ITERATION  12 : L=   80.8235659722 DL=  1.71e-04 (AVERGE_DL)=    0.0016095379 
ITERATION  13 : L=   80.8236768103 DL=  1.11e-04 (AVERGE_DL)=    0.0012959029 
ITERATION  14 : L=   80.8237493776 DL=  7.26e-05 (AVERGE_DL)=    0.0010485732 
ITERATION  15 : L=   80.8237973216 DL=  4.79e-05 (AVERGE_DL)=    0.0008523048 
ITERATION  16 : L=   80.8238292510 DL=  3.19e-05 (AVERGE_DL)=    0.0006955428 
ITERATION  17 : L=   80.8238506648 DL=  2.14e-05 (AVERGE_DL)=    0.0005696062 
ITERATION  18 : L=   80.8238651107 DL=  1.44e-05 (AVERGE_DL)=    0.0004678430 
ITERATION  19 : L=   80.8238749074 DL=  9.80e-06 (AVERGE_DL)=    0.0003852730 
ITERATION  20 : L=   80.8238815783 DL=  6.67e-06 (AVERGE_DL)=    0.0003179201 
ITERATION  21 : L=   80.8238861382 DL=  4.56e-06 (AVERGE_DL)=    0.0002628485 
ITERATION  22 : L=   80.8238892637 DL=  3.13e-06 (AVERGE_DL)=    0.0002176161 
ITERATION  23 : L=   80.8238914125 DL=  2.15e-06 (AVERGE_DL)=    0.0001804343 
ITERATION  24 : L=   80.8238928922 DL=  1.48e-06 (AVERGE_DL)=    0.0001497356 
ITERATION  25 : L=   80.8238939134 DL=  1.02e-06 (AVERGE_DL)=    0.0001243910 
ITERATION  26 : L=   80.8238946191 DL=  7.06e-07 (AVERGE_DL)=    0.0001033979 
LOCALIZATION SUM CONVERGED


--------------------------------------------------------------------------------
                    LOCALIZED MOLECULAR ORBITAL COMPOSITIONS
--------------------------------------------------------------------------------

The Mulliken populations for each LMO on each atom are computed
The LMO`s will be ordered according to atom index and type
  (A) Strongly localized MO`s have populations of >=0.950 on one atom
  (B) Two center bond orbitals have populations of >=0.850 on two atoms
  (C) Other MO`s are considered to be `delocalized`

FOUND  -   0 strongly local MO`s
       -  12 two center bond MO`s
       -   0 significantly delocalized MO`s

Bond-like localized orbitals:
MO  15:   7H  -   0.445380  and   1C  -   0.542076
MO  14:   6H  -   0.445374  and   1C  -   0.542081
MO  13:   5H  -   0.439929  and   1C  -   0.575162
MO  12:   4H  -   0.354277  and   3O  -   0.660988
MO  11:   3O  -   0.731177  and   0C  -   0.298184
MO  10:   3O  -   0.845971  and   0C  -   0.151238
MO   9:   3O  -   0.941537  and   0C  -   0.053460
MO   8:   2O  -   0.681258  and   0C  -   0.327823
MO   7:   2O  -   0.680918  and   0C  -   0.328497
MO   6:   2O  -   0.916018  and   0C  -   0.078228
MO   5:   2O  -   0.917706  and   0C  -   0.092497
MO   4:   1C  -   0.558587  and   0C  -   0.484388
Localized MO's were stored in: /cluster/projects/nn14654k/ylvaos/basis_set_n_funcs/functionals/lda_x/CH3COOH/inp/CH3COOH_lda_x_ccpvqz.loc

-------------------------   --------------------
FINAL SINGLE POINT ENERGY      -225.289952603553
-------------------------   --------------------



           ************************************************************
           *        Program running with 8 parallel MPI-processes     *
           *              working on a common directory               *
           ************************************************************

------------------------------------------------------------------------------
                              ORCA PROPERTY CALCULATIONS
------------------------------------------------------------------------------

GBWName                                 ... /cluster/projects/nn14654k/ylvaos/basis_set_n_funcs/functionals/lda_x/CH3COOH/inp/CH3COOH_lda_x_ccpvqz.gbw
Number of atoms                         ...      8
Number of basis functions               ...    368
Max core memory                         ...   4096 MB

Electric properties:
Dipole moment                           ... YES
Quadrupole moment                       ... YES
Static polarizability (Dipole/Dipole)   ...  NO
Static polarizability (Dipole/Quad.)    ...  NO
Static polarizability (Quad./Quad.)     ...  NO
Static polarizability (Velocity)        ...  NO
Static hyperpolarizability              ...  NO

Atomic electric properties:
Dipole moment                           ...  NO
Quadrupole moment                       ...  NO
Static polarizability                   ...  NO

Choice of electric origin               ... Center of mass
Position of electric origin             ...    -0.065707     0.097461     0.000000

General magnetic properties:
Magnetizability                         ...  NO

EPR properties:
g-Tensor (aka g-matrix)                 ...  NO
Zero-Field splitting spin-orbit         ...  NO
Zero-field splitting spin-spin          ...  NO
Hyperfine couplings                     ...  NO (   0 nuclei)
Quadrupole couplings                    ...  NO (   0 nuclei)
Contact density                         ...  NO (   0 nuclei)

NMR properties:
Chemical shifts                         ...  NO (   0 nuclei)
Spin-rotation constants                 ...  NO (   0 nuclei)
Spin-spin couplings                     ...  NO (   0 nuclei,    0 pairs)

Choice of magnetic origin               ... GIAO
Position of magnetic origin             ...     0.000000     0.000000     0.000000

Properties with geometric perturbations:
SCF Hessian                             ...  NO
IR spectrum                             ...  NO
VCD spectrum                            ...  NO
X-ray spectroscopy properties:
SCF XES/XAS/RIXS spectra                ...  NO

SCF SOC stabilization energy            ...  NO
Diagonal Born-Oppenheimer correction    ...  NO

-------------
DIPOLE MOMENT
-------------

Method             : SCF
Type of density    : Electron Density
Multiplicity       :   1
Irrep              :   0
Energy             :  -225.2899526035526492 Eh
Basis              : AO
                                X                 Y                 Z
Electronic contribution:     -2.224205745       2.445763008       0.000000008
Nuclear contribution   :      2.102617427      -3.118765285       0.000000000
                        -----------------------------------------
Total Dipole Moment    :     -0.121588318      -0.673002277       0.000000008
                        -----------------------------------------
Magnitude (a.u.)       :      0.683897495
Magnitude (Debye)      :      1.738329285



--------------------
Rotational spectrum 
--------------------
 
Rotational constants in cm-1:             0.373252             0.316126             0.176788 
Rotational constants in MHz :         11189.819630          9477.229268          5299.974115 

Dipole components along the rotational axes: 
x,y,z [a.u.] :    -0.344719    -0.590665     0.000000 
x,y,z [Debye]:    -0.876205    -1.501350     0.000000 

 

Dipole moment calculation done in   0.0 sec 

-----------------
QUADRUPOLE MOMENT
-----------------

Method             : SCF
Type of density    : Electron Density
Multiplicity       :   1
Irrep              :   0
Energy             :  -225.2899526035526492 Eh
Basis              : AO

                XX              YY              ZZ              XY              XZ              YZ
  NUC      103.447904006    93.335807526     5.552847104   -15.402641721     0.000000000     0.000000000
  EL      -118.980100885  -114.130330331   -23.365701219    12.794528165     0.000000030     0.000000000
  TOT      -15.532196879   -20.794522805   -17.812854115    -2.608113555     0.000000030     0.000000000 (a.u.)
           -20.891336004   -27.969344346   -23.958897984    -3.508001930     0.000000040     0.000000000 (Buckingham)

diagonalized tensor:
           -21.868123648   -17.812854115   -14.458596036 (a.u.)
           -29.413374196   -23.958897984   -19.447306153 (Buckingham)
           -15.420544256     0.942884382    14.477659874 (traceless form in Buckingham)

             0.380650287    -0.000000006     0.924719070
             0.924719070     0.000000006    -0.380650287
            -0.000000003     1.000000000     0.000000008
        
Isotropic quadrupole :   -18.046524600

Quadrupole moment calculation done in   0.0 sec (  0.0 sec for integrals)

Maximum memory used throughout the entire PROP-calculation: 18.5 MB

--------------------------------
SUGGESTED CITATIONS FOR THIS RUN
--------------------------------

Below you find a list of papers that are relevant to this ORCA run
We neither can nor want to force you to cite these papers, but we appreciate if you do
You receive ORCA, which is the product of decades of hard work by many enthusiastic individuals, for free
The only thing we kindly ask in return is that you cite our papers,
We deeply appreciate it, if you show your appreciation for ORCA by not just citing the generic ORCA reference.

Please note that relegating all ORCA citations to the supporting information does *not* help us.
SI sections are not indexed - citations you put there will not count into any citation statistics
But we need these citations in order to attract the funding resources that allow us to do what we are doing

Therefore, if you are a happy ORCA user, please consider citing a few of the papers listed below in the main body of your paper

In addition to the list printed below, the program has created the file /cluster/projects/nn14654k/ylvaos/basis_set_n_funcs/functionals/lda_x/CH3COOH/inp/CH3COOH_lda_x_ccpvqz.bibtex that contains the list in bibtex format
You can import this file easily into all common literature databanks and citation aid programs

It goes without saying that in many instances, there are alternative algorithms to achieve similar
results as the ones you have gotten from ORCA. It is, of course, also the case that in some instances
ORCA just re-implements algorithms worked out by others. We are fully aware of that and we are also
fully appreciative of our colleagues work. Hence this citation list should not be read as indicating
that the listed papers, which are focused on our own work, are the only ones worth citing. It simply
meant to make it easier for users to cite ORCA specific papers. It is not a substitute for doing your
own literature research and citing the relevant literature in a scientifically appropriate manner.

List of essential papers. We consider these as the minimum necessary citations

  1. Neese, F.
     Software update: the ORCA program system, version 6.0
     WIRES Comput. Molec. Sci. 2025 15(1), e70019
     doi.org/10.1002/wcms.70019

List of papers to cite with high priority. The work reported in these papers was absolutely
necessary for this run to complete.
Our perspective: the developers of density functionals and basis sets usually get cited in chemistry papers
Good! But without the algorithms to do something with them, the functionals or basis sets would not do anything.
Hence, in our opinion, the algorithm design and method developments papers are equally worthy of getting cited

  1. Lehtola, S.; Steigemann, C.; Oliveira, M.; Marques, M.
     Recent developments in Libxc - A comprehensive library of functionals for density functional theory
     Software X 2018 7 , 
     doi.org/10.1016/j.softx.2017.11.002
  2. Neese, F.
     The SHARK Integral Generation and Digestion System
     J. Comp. Chem. 2022 44(3), 381
     doi.org/10.1002/jcc.26942

List of suggested additional citations. These are papers that are important in the 'surrounding' of 
of this run, or papers that preceded the highly important papers. If you like your results we are grateful for a citation.

  1. Neese, F.
     The ORCA program system
     WIRES Comput. Molec. Sci. 2012 2(1), 73-78
     doi.org/10.1002/wcms.81
  2. Neese, F.
     Software update: the ORCA program system, version 4.0
     WIRES Comput. Molec. Sci. 2018 8(1), 1-6
     doi.org/10.1002/wcms.1327
  3. Neese, F.; Wennmohs, F.; Becker, U.; Riplinger, C.
     The ORCA quantum chemistry program package
     J. Chem. Phys. 2020 152(22), 224108
     doi.org/10.1063/5.0004608
  4. Neese, F.
     Software update: The ORCA program system—Version 5.0
     WIRES Comput. Molec. Sci. 2022 12(1), e1606
     doi.org/10.1002/wcms.1606

List of optional additional citations

  1. Neese, F.
     Approximate second-order SCF convergence for spin unrestricted wavefunctions
     Chem. Phys. Lett. 2000 325(1-3), 93-98
     doi.org/10.1016/s0009-2614(00)00662-x

Timings for individual modules:

Sum of individual times          ...       30.348 sec (=   0.506 min)
Startup calculation              ...        0.907 sec (=   0.015 min)   3.0 %
SCF iterations                   ...       28.811 sec (=   0.480 min)  94.9 %
Property integrals               ...        0.297 sec (=   0.005 min)   1.0 %
Property calculations            ...        0.318 sec (=   0.005 min)   1.0 %
Orbital localization             ...        0.015 sec (=   0.000 min)   0.0 %
                             ****ORCA TERMINATED NORMALLY****
TOTAL RUN TIME: 0 days 0 hours 0 minutes 31 seconds 91 msec
