
                                 *****************
                                 * O   R   C   A *
                                 *****************

                                            #,                                       
                                            ###                                      
                                            ####                                     
                                            #####                                    
                                            ######                                   
                                           ########,                                 
                                     ,,################,,,,,                         
                               ,,#################################,,                 
                          ,,##########################################,,             
                       ,#########################################, ''#####,          
                    ,#############################################,,   '####,        
                  ,##################################################,,,,####,       
                ,###########''''           ''''###############################       
              ,#####''   ,,,,##########,,,,          '''####'''          '####       
            ,##' ,,,,###########################,,,                        '##       
           ' ,,###''''                  '''############,,,                           
         ,,##''                                '''############,,,,        ,,,,,,###''
      ,#''                                            '''#######################'''  
     '                                                          ''''####''''         
             ,#######,   #######,   ,#######,      ##                                
            ,#'     '#,  ##    ##  ,#'     '#,    #''#        ,####,    ,#,          
            ##       ##  ##   ,#'  ##            #'  '#       #'       ,# #          
            ##       ##  #######   ##           ,######,      #####,      #          
            '#,     ,#'  ##    ##  '#,     ,#' ,#      #,     #,   #      #          
             '#######'   ##     ##  '#######'  #'      '#     '####' #    #          



                #########################################################
                #                        -***-                          #
                #          Department of theory and spectroscopy        #
                #                                                       #
                #                      Frank Neese                      #
                #                                                       #
                #     Directorship, Architecture, Infrastructure        #
                #                    SHARK, DRIVERS                     #
                #        Core code/Algorithms in most modules           #
                #                                                       #
                #        Max Planck Institute fuer Kohlenforschung      #
                #                Kaiser Wilhelm Platz 1                 #
                #                 D-45470 Muelheim/Ruhr                 #
                #                      Germany                          #
                #                                                       #
                #                  All rights reserved                  #
                #                        -***-                          #
                #########################################################


                         Program Version 6.1.1  -  RELEASE   -
                                (GIT: $487d211c$)
                          ($2025-11-21 10:33:24 +0100$)


 With contributions from (in alphabetic order):
[Max-Planck-Institut fuer Kohlenforschung]                               
  Daniel Aravena         : Magnetic Suceptibility                        
  Michael Atanasov       : Ab Initio Ligand Field Theory (pilot matlab implementation)
  Alexander A. Auer      : GIAO ZORA, VPT2 properties, NMR spectrum      
  Ute Becker             : All parallelization in ORCA, NUMFREQ, NUMCALC 
  Giovanni Bistoni       : ED, misc. LED, open-shell LED, HFLD           
  Dmytro Bykov           : pre 5.0 version of the SCF Hessian            
  Marcos Casanova-Páez   : Triplet and SCS-CIS(D). UHF-(DLPNO)-IP/EA/STEOM-CCSD. UHF-CVS-IP/STEOM-CCSD   
  Vijay G. Chilkuri      : MRCI spin determinant printing, contributions to CSF-ICE 
  Pauline Colinet        : FMM embedding                                 
  Dipayan Datta          : RHF DLPNO-CCSD density                        
  Achintya Kumar Dutta   : EOM-CC, STEOM-CC                              
  Nicolas Foglia         : Exact transition moments, OPA infrastructure, MCD improvements    
  Dmitry Ganyushin       : Spin-Orbit,Spin-Spin,Magnetic field MRCI      
  Miquel Garcia-Rates    : C-PCM and meta-GGA Hessian, CCSD/C-PCM, Gaussian charge scheme 
  Tiago L. C. Gouveia    : GS-ROHF, GS-ROCIS                             
  Yang Guo               : DLPNO-NEVPT2, F12-NEVPT2, CIM, IAO-localization        
  Andreas Hansen         : Spin unrestricted coupled pair/coupled cluster methods 
  Ingolf Harden          : AUTO-CI MPn and infrastructure                
  Benjamin Helmich-Paris : MC-RPA, TRAH-(SCF,CASSCF), AVAS, COSX integrals, SCF dyn. polar., MC-PDFT, srDFT 
  Lee Huntington         : MR-EOM, pCC                                   
  Robert Izsak           : Overlap fitted RIJCOSX, COSX-SCS-MP3, EOM     
  Riya Kayal             : Wick's Theorem for AUTO-CI, AUTO-CI UHF-CCSDT 
  Emily Kempfer          : AUTO-CI RHF CISDT and CCSDT, approximate NEVPT4
  Christian Kollmar      : KDIIS, OOCD, Brueckner-CCSD(T), CCSD density, CASPT2, CASPT2-K, improved NEVPT2 
  Axel Koslowski         : Symmetry handling                             
  Simone Kossmann        : meta-GGA functionals, TD-DFT gradient, OOMP2, (MP2 Hessian; deprecated post 5.0) 
  Lucas Lang             : DCDCAS, Hyperfine gauge corrections, ICE-SOC+SSC
  Marvin Lechner         : AUTO-CI (C++ implementation), FIC-MRCC        
  Spencer Leger          : CASSCF response                               
  Dagmar Lenk            : GEPOL surface, SMD, ORCA-2-JSON               
  Dimitrios Liakos       : Extrapolation schemes; Compound Job, Property file
  Dimitrios Manganas     : Further ROCIS development; embedding schemes. LFT, Crystal Embedding 
  Dimitrios Pantazis     : SARC Basis sets                               
  Anastasios Papadopoulos: AUTO-CI, single reference methods and gradients 
  Taras Petrenko         : pre 6.0 DFT Hessian and TD-DFT gradient,  ECA, NRVS 
  Petra Pikulova         : Analytic Raman intensities                    
  Peter Pinski           : DLPNO-MP2, DLPNO-MP2 Gradient                 
  Shashank Vittal Rao    : ES-AILFT, MagRelax                            
  Christoph Reimann      : Effective Core Potentials                     
  Marius Retegan         : Local ZFS, SOC                                
  Christoph Riplinger    : Optimizer, TS searches, QM/MM, DLPNO-CCSD(T), (RO)-DLPNO pert. Triples 
  Michael Roemelt        : Original ROCIS implementation, recursive CI coupling coefficients
  Masaaki Saitow         : Open-shell DLPNO-CCSD energy and density      
  Barbara Sandhoefer     : DKH picture change effects                    
  Yorick L. A. Schmerwitz: GMF and freeze-and-release deltaSCF, NEB S-IDPP initial path                    
  Kantharuban Sivalingam : CASSCF convergence/infrastructure, NEVPT2, NEVPT3, NEVPT4(SD), FIC-MRCI and CEPA variants
  Bernardo de Souza      : ESD, SOC TD-DFT                               
  Georgi L. Stoychev     : AutoAux, RI-MP2 NMR, DLPNO-MP2 response, X2C  
  Van Anh Tran           : RI-MP2 g-tensors                              
  Willem Van den Heuvel  : Paramagnetic NMR                              
  Zikuan Wang            : NOTCH, Electric field optimization            
  Frank Wennmohs         : Technical directorship and infrastructure     
  Hang Xu                : AUTO-CI-Response properties                   
                                                                         
[FACCTs GmbH]                                                            
  Markus Bursch, Nicolas Foglia, Miquel Garcia-Rates, Ingolf Harden, Hagen Neugebauer, Anastasios Papadopoulos, 
  Christoph Riplinger, Bernardo de Souza, Georgi L. Stoychev                                                    
                                                                 
  APM, various basis sets, CI-OPT, improved COSX, DLPNO-Multilevel,           
  DOCKER, DRACO, updates on ESD, Fragmentator, GOAT, IRC, LR-CPCM, L-BFGS, MBIS, meta-GGA TD-DFT gradient, ML-optimized integration grids, 
  MM, NACMEs, nearIR, NEB, NEB-TS, NL-DFT gradient (VV10), 2- and 3-layer-ONIOM, interface openCOSMO-RS, QMMM,   
  Crystal-QMMM, RESP, rigid body optimization, SF, symmetry and pop. for TD-DFT, various functionals, SOLVATOR                                   
                                                                         
[Other institutions]                                                     
  V. Asgeirsson          : NEB                                           
  Christoph Bannwarth    : sTDA-DFT, sTD-DFT, PBEh-3c, B97-3c, D3        
  Giovanni Bistoni       : ETS/NOCV, ADLD/ADEX, COVALED                  
  Martin Brehm           : Molecular dynamics                            
  Ronald Cardenas        : ETS/NOCV                                      
  Martina Colucci        : COVALED                                       
  Sebastian Ehlert       : rSCAN, r2SCAN, r2SCAN-3c, D4, dhf basis sets  
  Marvin Friede          : D4 for Fr, Ra, Ac-Lr                          
  Lars Goerigk           : TD-DFT with DH, B97 family of functionals     
  Stefan Grimme          : VdW corrections, initial TS optimization, DFT functionals, gCP, sTDA/sTD-DF 
  Waldemar Hujo          : DFT-NL                                        
  H. Jonsson             : NEB                                           
  Holger Kruse           : gCP                                           
  Marcel Mueller         : wB97X-3c, vDZP basis set                      
  Hagen Neugebauer       : wr2SCAN, Native XTB                           
  Gianluca Regni         : ADLD/ADEX                                     
  Tobias Risthaus        : pre 6.0 range-separated hybrid DFT and stability analysis
  Lukas Wittmann         : regularized MP2, r2SCAN double-hybrids, wr2SCAN        
                                                                         
We gratefully acknowledge several colleagues who have allowed us to      
interface, adapt or use parts of their codes:                            
  Ed Valeev, F. Pavosevic, A. Kumar             : LibInt (2-el integral package), F12 methods 
  Garnet Chan, S. Sharma, J. Yang, R. Olivares  : DMRG                   
  Ulf Ekstrom                                   : XCFun DFT Library      
  Mihaly Kallay                                 : mrcc  (arbitrary order and MRCC methods)
  Frank Weinhold                                : gennbo (NPA and NBO analysis)           
  Simon Mueller                                 : openCOSMO-RS                            
  Christopher J. Cramer and Donald G. Truhlar   : smd solvation model                     
  S Lehtola, MJT Oliveira, MAL Marques          : LibXC Library                           
  Liviu Ungur et al                             : ANISO software                          


 Your calculation uses the libint2 library for the computation of 2-el integrals
 For citations please refer to: http://libint.valeyev.net

 Your ORCA version has been built with support for libXC version: 7.0.0
 For citations please refer to: https://libxc.gitlab.io

 This ORCA versions uses:
   CBLAS   interface :  Fast vector & matrix operations
   LAPACKE interface :  Fast linear algebra routines
   SCALAPACK package :  Parallel linear algebra routines
   Shared memory     :  Shared parallel matrices
   BLAS/LAPACK       :  OpenBLAS 0.3.29  USE64BITINT DYNAMIC_ARCH NO_AFFINITY Cooperlake SINGLE_THREADED
        Core in use  :  Cooperlake
   Copyright (c) 2011-2014, The OpenBLAS Project


  ***********************************
  * Starting time: Wed May 20 12:33:32 2026
  * Host name:     c1-48
  * Process ID:    1323198
  * Working dir.:  /cluster/projects/nn14654k/ylvaos/basis_set_n_funcs/functionals/hyb_gga_xc_b97/CH3COOH/out
  ***********************************

Using LibXC functional ID 407 : Becke 97
[ 1]  A. D. Becke.,  J. Chem. Phys. 107, 8554 (1997)
Using LibXC functional ID 407 : Becke 97
[ 1]  A. D. Becke.,  J. Chem. Phys. 107, 8554 (1997)
Your calculation utilizes LibXC
by S. Lehtola, C. Steigemann, M. J. T. Oliveira & M. A. L. Marques
Please cite in your paper:
Lehtola, S.; Steigemann, C.; Oliveira, M.J.T.; Marques, M. A. L. Software X, 7, (2018), 1.
   

================================================================================

----- Orbital basis set information -----
Your calculation utilizes the basis: pc-0
   H, C-F              : F. Jensen, J. Chem. Phys. 115, 9113 (2001).
                         F. Jensen, J. Chem. Phys. 116, 7372 (2002).
                         F. Jensen, J. Chem. Phys. 117, 9234 (2002).
   Si-Cl               : F. Jensen, T. Helgaker, J. Chem. Phys. 121, 3463 (2004).
   He-B, Ne-Mg, Al, Ar : F. Jensen, J. Phys. Chem. A 111, 11198 (2007).
   K, Ca, Ga-Kr        : F. Jensen, J. Chem. Phys. 136, 094110 (2012).
   Sc-Zn               : F. Jensen, J. Chem. Phys. 138, 014107 (2013).

================================================================================
                                        WARNINGS
                       Please study these warnings very carefully!
================================================================================


================================================================================
                                       INPUT FILE
================================================================================
NAME = /cluster/projects/nn14654k/ylvaos/basis_set_n_funcs/functionals/hyb_gga_xc_b97/CH3COOH/inp/CH3COOH_hyb_gga_xc_b97_pc0.inp
|  1> ! dft pc-0 TightSCF
|  2> %pal nprocs 8 end
|  3> 
|  4> %loc
|  5>   LocMet NewBoys
|  6>   Occ true
|  7> end
|  8> 
|  9> %method
| 10>   
| 11>   functional hyb_gga_xc_b97
| 12> end
| 13> 
| 14> %elprop
| 15>   Dipole true
| 16>   Quadrupole true
| 17> end
| 18> 
| 19> * xyz 0 1
| 20> C    0.000000000000   0.154560000000   0.000000000000
| 21> C    1.073776000000  -0.892748000000   0.000000000000
| 22> O    0.166384000000   1.360084000000   0.000000000000
| 23> O   -1.236449000000  -0.415036000000   0.000000000000
| 24> H   -1.867646000000   0.333582000000   0.000000000000
| 25> H    2.048189000000  -0.408135000000   0.000000000000
| 26> H    0.968661000000  -1.528353000000   0.881747000000
| 27> H    0.968661000000  -1.528353000000  -0.881747000000
| 28> *
| 29> 
| 30> 
| 31>                          ****END OF INPUT****
================================================================================

                       ****************************
                       * Single Point Calculation *
                       ****************************

---------------------------------
CARTESIAN COORDINATES (ANGSTROEM)
---------------------------------
  C      0.000000    0.154560    0.000000
  C      1.073776   -0.892748    0.000000
  O      0.166384    1.360084    0.000000
  O     -1.236449   -0.415036    0.000000
  H     -1.867646    0.333582    0.000000
  H      2.048189   -0.408135    0.000000
  H      0.968661   -1.528353    0.881747
  H      0.968661   -1.528353   -0.881747

----------------------------
CARTESIAN COORDINATES (A.U.)
----------------------------
  NO LB      ZA    FRAG     MASS         X           Y           Z
   0 C     6.0000    0    12.011    0.000000    0.292076    0.000000
   1 C     6.0000    0    12.011    2.029143   -1.687049    0.000000
   2 O     8.0000    0    15.999    0.314420    2.570186    0.000000
   3 O     8.0000    0    15.999   -2.336550   -0.784304    0.000000
   4 H     1.0000    0     1.008   -3.529339    0.630379    0.000000
   5 H     1.0000    0     1.008    3.870516   -0.771263    0.000000
   6 H     1.0000    0     1.008    1.830504   -2.888169    1.666260
   7 H     1.0000    0     1.008    1.830504   -2.888169   -1.666260

--------------------------------
INTERNAL COORDINATES (ANGSTROEM)
--------------------------------
 C      0   0   0     0.000000000000     0.00000000     0.00000000
 C      1   0   0     1.499949647502     0.00000000     0.00000000
 O      1   2   0     1.216951827326   126.42686784     0.00000000
 O      1   2   3     1.361339683113   110.98078396   180.00000000
 H      4   1   2     0.979203024267   105.40175469   180.00000085
 H      2   1   3     1.088269476893   109.27200725     0.00000000
 H      2   1   3     1.092025938913   109.72406365   120.93315147
 H      2   1   3     1.092025938913   109.72406365   239.06684853

---------------------------
INTERNAL COORDINATES (A.U.)
---------------------------
 C      0   0   0     0.000000000000     0.00000000     0.00000000
 C      1   0   0     2.834494048450     0.00000000     0.00000000
 O      1   2   0     2.299705671821   126.42686784     0.00000000
 O      1   2   3     2.572559176322   110.98078396   180.00000000
 H      4   1   2     1.850425545371   105.40175469   180.00000085
 H      2   1   3     2.056531271234   109.27200725     0.00000000
 H      2   1   3     2.063629955684   109.72406365   120.93315147
 H      2   1   3     2.063629955684   109.72406365   239.06684853

---------------------
BASIS SET INFORMATION
---------------------
There are 3 groups of distinct atoms

 Group   1 Type C   : 7s3p contracted to 3s2p pattern {331/21}
 Group   2 Type O   : 7s3p contracted to 3s2p pattern {331/21}
 Group   3 Type H   : 3s contracted to 2s pattern {21}

Atom   0C    basis set group =>   1
Atom   1C    basis set group =>   1
Atom   2O    basis set group =>   2
Atom   3O    basis set group =>   2
Atom   4H    basis set group =>   3
Atom   5H    basis set group =>   3
Atom   6H    basis set group =>   3
Atom   7H    basis set group =>   3


           ************************************************************
           *        Program running with 8 parallel MPI-processes     *
           *              working on a common directory               *
           ************************************************************
------------------------------------------------------------------------------
                             ORCA STARTUP CALCULATIONS
------------------------------------------------------------------------------
------------------------------------------------------------------------------
                   ___                                                        
                  /   \      - P O W E R E D   B Y -                         
                 /     \                                                     
                 |  |  |   _    _      __       _____    __    __             
                 |  |  |  | |  | |    /  \     |  _  \  |  |  /  |          
                  \  \/   | |  | |   /    \    | | | |  |  | /  /          
                 / \  \   | |__| |  /  /\  \   | |_| |  |  |/  /          
                |  |  |   |  __  | /  /__\  \  |    /   |      \           
                |  |  |   | |  | | |   __   |  |    \   |  |\   \          
                \     /   | |  | | |  |  |  |  | |\  \  |  | \   \       
                 \___/    |_|  |_| |__|  |__|  |_| \__\ |__|  \__/        
                                                                              
                      - O R C A' S   B I G   F R I E N D -                    
                                      &                                       
                       - I N T E G R A L  F E E D E R -                       
                                                                              
 v1 FN, 2020, v2 2021, v3 2022-2024                                           
------------------------------------------------------------------------------


----------------------
SHARK INTEGRAL PACKAGE
----------------------

Number of atoms                             ...      8
Number of basis functions                   ...     44
Number of shells                            ...     28
Maximum angular momentum                    ...      1
Integral batch strategy                     ... SHARK/LIBINT Hybrid
RI-J (if used) integral strategy            ... SPLIT-RIJ (Revised 2003 algorithm where possible)
Printlevel                                  ...      1
Contraction scheme used                     ... SEGMENTED contraction
Prescreening option                         ... SCHWARTZ
   Thresh                                   ... 2.500e-11
   Tcut                                     ... 2.500e-12
   Tpresel                                  ... 2.500e-12 
Coulomb Range Separation                    ... NOT USED
Exchange Range Separation                   ... NOT USED
Multipole approximations                    ... NOT USED
Finite Nucleus Model                        ... NOT USED
CABS basis                                  ... NOT available
Auxiliary Coulomb fitting basis             ... NOT available
Auxiliary J/K fitting basis                 ... NOT available
Auxiliary Correlation fitting basis         ... NOT available
Auxiliary 'external' fitting basis          ... NOT available

Checking pre-screening integrals            ... done (  0.0 sec) Dimension = 28
   => SHARK Basis and OBASIS are compatible. Storing Pre-screening
Shell pair information
Shell pair cut-off parameter TPreSel        ...   2.5e-12
Total number of shell pairs                 ...       406
Shell pairs after pre-screening             ...       386
Total number of primitive shell pairs       ...      1410
Primitive shell pairs kept                  ...      1053
          la=0 lb=0:    194 shell pairs
          la=1 lb=0:    156 shell pairs
          la=1 lb=1:     36 shell pairs

Checking whether 4 symmetric matrices of dimension 44 fit in memory
:Max Core in MB      =   4096.00
 MB in use           =      1.25
 MB left             =   4094.75
 MB needed           =      0.03
 Data fit in memory  = YES
Calculating Nuclear repulsion               ... done (  0.0 sec) ENN=    120.693288504615 Eh

Diagonalization of the overlap matrix:
Smallest eigenvalue                        ... 5.583e-02
Time for diagonalization                   ...    0.001 sec
Threshold for overlap eigenvalues          ... 1.000e-07
Number of eigenvalues below threshold      ... 0
Time for construction of square roots      ...    0.001 sec
Total time needed                          ...    0.004 sec

-------------------
DFT GRID GENERATION
-------------------

General Integration Accuracy     IntAcc      ... 4.388
Radial Grid Type                 RadialGrid  ... OptM3 with GC (2021)
Angular Grid (max. ang.)         AngularGrid ... 4 (Lebedev-302)
Angular grid pruning method      GridPruning ... 4 (adaptive)
Weight generation scheme         WeightScheme... mBecke (2022)
Basis function cutoff            BFCut       ... 1.0000e-11
Integration weight cutoff        WCut        ... 1.0000e-14
Partially contracted basis set               ... off
Rotationally invariant grid construction     ... off
Angular grids for H and He will be reduced by one unit

Total number of grid points                  ...    37392
Total number of batches                      ...      588
Average number of points per batch           ...       63
Average number of grid points per atom       ...     4674
Grids setup in   0.1 sec
Initializing property integral containers    ... done (  0.0 sec)

SHARK setup successfully completed in   0.1 seconds

Maximum memory used throughout the entire STARTUP-calculation: 8.3 MB


           ************************************************************
           *        Program running with 8 parallel MPI-processes     *
           *              working on a common directory               *
           ************************************************************
-------------------------------------------------------------------------------
                                 ORCA GUESS
                   Start orbitals & Density for SCF / CASSCF
-------------------------------------------------------------------------------

------------
SCF SETTINGS
------------
Hamiltonian:
 Density Functional     Method          .... DFT(GTOs)
  Functional kind                       .... Exchange-Correlation
  Functional name                       .... Becke 97
  Functional family                     .... Hybrid GGA
  Functional refs                              
    [ 0] A. D. Becke.,  J. Chem. Phys. 107, 8554 (1997), doi: 10.1063/1.475007
  Fraction of HF Exchange               .... 0.1943
  Functional external parameters        .... 16
    Parameter  0 _cx0       =  8.094000e-01 : u^0 coefficient for exchange
    Parameter  1 _cx1       =  5.073000e-01 : u^1 coefficient for exchange
    Parameter  2 _cx2       =  7.481000e-01 : u^2 coefficient for exchange
    Parameter  3 _cx3       =  0.000000e+00 : u^3 coefficient for exchange
    Parameter  4 _cx4       =  0.000000e+00 : u^4 coefficient for exchange
    Parameter  5 _css0      =  1.737000e-01 : u^0 coefficient for same-spin correlation
    Parameter  6 _css1      =  2.348700e+00 : u^1 coefficient for same-spin correlation
    Parameter  7 _css2      = -2.486800e+00 : u^2 coefficient for same-spin correlation
    Parameter  8 _css3      =  0.000000e+00 : u^3 coefficient for same-spin correlation
    Parameter  9 _css4      =  0.000000e+00 : u^4 coefficient for same-spin correlation
    Parameter 10 _cos0      =  9.454000e-01 : u^0 coefficient for opposite-spin correlation
    Parameter 11 _cos1      =  7.471000e-01 : u^1 coefficient for opposite-spin correlation
    Parameter 12 _cos2      = -4.596100e+00 : u^2 coefficient for opposite-spin correlation
    Parameter 13 _cos3      =  0.000000e+00 : u^3 coefficient for opposite-spin correlation
    Parameter 14 _cos4      =  0.000000e+00 : u^4 coefficient for opposite-spin correlation
    Parameter 15 _cxx       =  1.943000e-01 : coefficient for exact exchange


General Settings:
 Integral files         IntName         .... /cluster/projects/nn14654k/ylvaos/basis_set_n_funcs/functionals/hyb_gga_xc_b97/CH3COOH/inp/CH3COOH_hyb_gga_xc_b97_pc0
 Hartree-Fock type      HFTyp           .... RHF
 Total Charge           Charge          ....    0
 Multiplicity           Mult            ....    1
 Number of Electrons    NEL             ....   32
 Basis Dimension        Dim             ....   44
 Nuclear Repulsion      ENuc            ....    120.6932885046 Eh

Convergence Acceleration:
 AO-DIIS                CNVDIIS         .... on
   Start iteration      DIISMaxIt       ....    12
   Startup error        DIISStart       ....  0.200000
   # of expansion vecs  DIISMaxEq       ....     5
   Bias factor          DIISBfac        ....   1.050
   Max. coefficient     DIISMaxC        ....  10.000
 MO-DIIS                CNVKDIIS        .... off
 Trust-Rad. Augm. Hess. CNVTRAH         .... auto
   Auto Start mean grad. ratio tolernc. ....  1.125000
   Auto Start start iteration           ....    50
   Auto Start num. interpolation iter.  ....    10
   Max. Number of Micro iterations      ....    24
   Max. Number of Macro iterations      .... Maxiter - #DIIS iter
   Number of Davidson start vectors     ....     2
   Converg. threshold    (grad. norm)   ....   1.000e-05
   Grad. Scal. Fac. for Micro threshold ....   0.100
   Minimum threshold for Micro iter.    ....   1.000e-02
   NR start threshold (gradient norm)   ....   1.000e-04
   Initial trust radius                 ....   0.400
   Minimum AH scaling param. (alpha)    ....   1.000
   Maximum AH scaling param. (alpha)    .... 1000.000
   Quad. conv. algorithm                .... NR
   White noise on init. David. guess    .... on
   Maximum white noise                  ....   0.010
   Pseudo random numbers                .... off
   Inactive MOs                         .... canonical
   Orbital update algorithm             .... Taylor
   Preconditioner                       .... Diag
   Full preconditioner red. dimension   ....   250
 SOSCF                 CNVSOSCF           .... on
   Start iteration     SOSCFMaxIt         ....   150
   Startup grad/error  SOSCFStart         ....  0.003300
   Hessian update      SOSCFHessUp        .... L-BFGS
   Autom. constraints  SOSCFAutoConstrain .... off
 Level Shifting         CNVShift        .... on
   Level shift para.    LevelShift      ....    0.2500
   Turn off err/grad.   ShiftErr        ....    0.0010
 Zerner damping         CNVZerner       .... off
 Static damping         CNVDamp         .... on
   Fraction old density DampFac         ....    0.7000
   Max. Damping (<1)    DampMax         ....    0.9800
   Min. Damping (>=0)   DampMin         ....    0.0000
   Turn off err/grad.   DampErr         ....    0.1000

SCF Procedure:
 Maximum # iterations   MaxIter         ....   125
 SCF integral mode      SCFMode         .... Direct
   Integral package                     .... SHARK and LIBINT hybrid scheme
 Reset frequency        DirectResetFreq ....    20
 Integral Threshold     Thresh          ....  2.500e-11 Eh
 Primitive CutOff       TCut            ....  2.500e-12 Eh

Convergence Tolerance:
 Convergence Check Mode ConvCheckMode   .... Total+1el-Energy
 Convergence forced     ConvForced      .... 0
 Energy Change          TolE            ....  1.000e-08 Eh
 1-El. energy change                    ....  1.000e-05 Eh
 Orbital Gradient       TolG            ....  1.000e-05
 Orbital Rotation angle TolX            ....  1.000e-05
 DIIS Error             TolErr          ....  5.000e-07

------------------------------
INITIAL GUESS: MODEL POTENTIAL
------------------------------
Loading Hartree-Fock densities                     ... done
Calculating cut-offs                               ... done
Initializing the effective Hamiltonian             ... done
Setting up the integral package (SHARK)            ... done
Starting the Coulomb interaction                   ... done (   0.0 sec)
Making the grid                                    ... done (   0.0 sec)
Mapping shells                                     ... done
Starting the XC term evaluation                    ... done (   0.0 sec)
  promolecular density results
     # of electrons  =     31.997224895
     EX+EC           =    -23.539637670
Transforming the Hamiltonian                       ... done (   0.0 sec)
Diagonalizing the Hamiltonian                      ... done (   0.0 sec)
Back transforming the eigenvectors                 ... done (   0.0 sec)
Now organizing SCF variables                       ... done
                      ------------------
                      INITIAL GUESS DONE (   0.1 sec)
                      ------------------
             **** ENERGY FILE WAS UPDATED (/cluster/projects/nn14654k/ylvaos/basis_set_n_funcs/functionals/hyb_gga_xc_b97/CH3COOH/inp/CH3COOH_hyb_gga_xc_b97_pc0.en.tmp) ****
Finished Guess after   0.1 sec
Maximum memory used throughout the entire GUESS-calculation: 3.4 MB


           ************************************************************
           *        Program running with 8 parallel MPI-processes     *
           *              working on a common directory               *
           ************************************************************

-------------------------------------------------------------------------------------------
                                      ORCA LEAN-SCF
                              memory conserving SCF solver
-------------------------------------------------------------------------------------------

----------------------------------------D-I-I-S--------------------------------------------
Iteration    Energy (Eh)           Delta-E    RMSDP     MaxDP     DIISErr   Damp  Time(sec)
-------------------------------------------------------------------------------------------
               ***  Starting incremental Fock matrix formation  ***
    1    -228.2605457172899150     0.00e+00  1.78e-02  1.08e-01  3.97e-01  0.700   0.1
    2    -228.2857836301159296    -2.52e-02  1.24e-02  7.46e-02  2.73e-01  0.700   0.1
                               ***Turning on AO-DIIS***
    3    -228.2965735782057664    -1.08e-02  4.98e-03  2.72e-02  1.90e-01  0.700   0.1
    4    -228.3030935381436848    -6.52e-03  2.43e-03  1.03e-02  1.30e-01  0.700   0.1
    5    -228.3078187244045694    -4.73e-03  1.97e-03  1.02e-02  9.10e-02  0.700   0.1
    6    -228.3112653583928591    -3.45e-03  5.86e-03  3.36e-02  6.37e-02  0.000   0.1
    7    -228.3191321181823241    -7.87e-03  1.16e-03  4.73e-03  6.61e-03  0.000   0.1
                              *** Initializing SOSCF ***
---------------------------------------S-O-S-C-F--------------------------------------
Iteration    Energy (Eh)           Delta-E    RMSDP     MaxDP     MaxGrad    Time(sec)
--------------------------------------------------------------------------------------
    8    -228.3191738936235993    -4.18e-05  2.77e-04  1.29e-03  2.67e-03     0.1
               *** Restarting incremental Fock matrix formation ***
    9    -228.3191811059996894    -7.21e-06  2.63e-04  8.91e-04  2.95e-04     0.0
   10    -228.3191794795402529     1.63e-06  1.78e-04  5.34e-04  6.26e-04     0.0
   11    -228.3191815659495205    -2.09e-06  3.23e-05  1.49e-04  2.97e-05     0.0
   12    -228.3191815553078072     1.06e-08  1.85e-05  9.20e-05  4.62e-05     0.1
   13    -228.3191815787384940    -2.34e-08  4.12e-06  2.74e-05  4.16e-06     0.1
   14    -228.3191815787698715    -3.14e-11  2.26e-06  1.53e-05  5.17e-06     0.1
                 **** Energy Check signals convergence ****

               *****************************************************
               *                     SUCCESS                       *
               *           SCF CONVERGED AFTER  14 CYCLES          *
               *****************************************************

             **** ENERGY FILE WAS UPDATED (/cluster/projects/nn14654k/ylvaos/basis_set_n_funcs/functionals/hyb_gga_xc_b97/CH3COOH/inp/CH3COOH_hyb_gga_xc_b97_pc0.en.tmp) ****

----------------
TOTAL SCF ENERGY
----------------

Total Energy       :       -228.31918157886406 Eh           -6212.88079 eV

Components:
Nuclear Repulsion  :        120.69328850461517 Eh            3284.23135 eV
Electronic Energy  :       -349.01247008347923 Eh           -9497.11213 eV
One Electron Energy:       -549.35731106536753 Eh          -14948.77241 eV
Two Electron Energy:        200.34484098188827 Eh            5451.66028 eV

Virial components:
Potential Energy   :       -454.40459919129825 Eh          -12364.97777 eV
Kinetic Energy     :        226.08541761243418 Eh            6152.09698 eV
Virial Ratio       :          2.00988017710306

DFT components:
N(Alpha)           :       15.999987849688 electrons
N(Beta)            :       15.999987849688 electrons
N(Total)           :       31.999975699377 electrons
E(XC)              :      -23.828851500708 Eh       

---------------
SCF CONVERGENCE
---------------

  Last Energy change         ...    3.1378e-11  Tolerance :   1.0000e-08
  Last MAX-Density change    ...    1.5268e-05  Tolerance :   1.0000e-07
  Last RMS-Density change    ...    2.2608e-06  Tolerance :   5.0000e-09
  Last DIIS Error            ...    2.6727e-03  Tolerance :   5.0000e-07
  Last Orbital Gradient      ...    5.1717e-06  Tolerance :   1.0000e-05
  Last Orbital Rotation      ...    3.5241e-06  Tolerance :   1.0000e-05


----------------
ORBITAL ENERGIES
----------------

  NO   OCC          E(Eh)            E(eV) 
   0   2.0000     -19.210831      -522.7533 
   1   2.0000     -19.161299      -521.4055 
   2   2.0000     -10.350756      -281.6584 
   3   2.0000     -10.207257      -277.7536 
   4   2.0000      -1.134907       -30.8824 
   5   2.0000      -1.043407       -28.3926 
   6   2.0000      -0.775624       -21.1058 
   7   2.0000      -0.620119       -16.8743 
   8   2.0000      -0.498615       -13.5680 
   9   2.0000      -0.482222       -13.1219 
  10   2.0000      -0.468446       -12.7471 
  11   2.0000      -0.417262       -11.3543 
  12   2.0000      -0.399338       -10.8665 
  13   2.0000      -0.387383       -10.5412 
  14   2.0000      -0.322823        -8.7845 
  15   2.0000      -0.280274        -7.6266 
  16   0.0000      -0.003367        -0.0916 
  17   0.0000       0.079617         2.1665 
  18   0.0000       0.118165         3.2154 
  19   0.0000       0.145017         3.9461 
  20   0.0000       0.153323         4.1721 
  21   0.0000       0.233535         6.3548 
  22   0.0000       0.311062         8.4644 
  23   0.0000       0.407697        11.0940 
  24   0.0000       0.630234        17.1496 
  25   0.0000       0.669372        18.2145 
  26   0.0000       0.720534        19.6067 
*Only the first 10 virtual orbitals were printed.

                    ********************************
                    * MULLIKEN POPULATION ANALYSIS *
                    ********************************

-----------------------
MULLIKEN ATOMIC CHARGES
-----------------------
   0 C :    0.308190
   1 C :   -0.598542
   2 O :   -0.308824
   3 O :   -0.424211
   4 H :    0.341067
   5 H :    0.225196
   6 H :    0.228562
   7 H :    0.228562
Sum of atomic charges:   -0.0000000

--------------------------------
MULLIKEN REDUCED ORBITAL CHARGES
--------------------------------
  0 C s       :     3.205422  s :     3.205422
      pz      :     0.862435  p :     2.486388
      px      :     0.789510
      py      :     0.834443

  1 C s       :     3.347613  s :     3.347613
      pz      :     1.181032  p :     3.250929
      px      :     1.036813
      py      :     1.033084

  2 O s       :     3.711371  s :     3.711371
      pz      :     1.377969  p :     4.597453
      px      :     1.806638
      py      :     1.412846

  3 O s       :     3.721169  s :     3.721169
      pz      :     1.793140  p :     4.703041
      px      :     1.263137
      py      :     1.646764

  4 H s       :     0.658933  s :     0.658933

  5 H s       :     0.774804  s :     0.774804

  6 H s       :     0.771438  s :     0.771438

  7 H s       :     0.771438  s :     0.771438



                     *******************************
                     * LOEWDIN POPULATION ANALYSIS *
                     *******************************

----------------------
LOEWDIN ATOMIC CHARGES
----------------------
   0 C :    0.213352
   1 C :   -0.286019
   2 O :   -0.221165
   3 O :   -0.235110
   4 H :    0.221645
   5 H :    0.095524
   6 H :    0.105886
   7 H :    0.105886

-------------------------------
LOEWDIN REDUCED ORBITAL CHARGES
-------------------------------
  0 C s       :     2.867221  s :     2.867221
      pz      :     0.862349  p :     2.919426
      px      :     0.967210
      py      :     1.089867

  1 C s       :     2.903794  s :     2.903794
      pz      :     1.149820  p :     3.382225
      px      :     1.119458
      py      :     1.112946

  2 O s       :     3.516939  s :     3.516939
      pz      :     1.386080  p :     4.704226
      px      :     1.814417
      py      :     1.503730

  3 O s       :     3.479948  s :     3.479948
      pz      :     1.790573  p :     4.755162
      px      :     1.325103
      py      :     1.639486

  4 H s       :     0.778355  s :     0.778355

  5 H s       :     0.904476  s :     0.904476

  6 H s       :     0.894114  s :     0.894114

  7 H s       :     0.894114  s :     0.894114



                      *****************************
                      * MAYER POPULATION ANALYSIS *
                      *****************************

  NA   - Mulliken gross atomic population
  ZA   - Total nuclear charge
  QA   - Mulliken gross atomic charge
  VA   - Mayer's total valence
  BVA  - Mayer's bonded valence
  FA   - Mayer's free valence

  ATOM       NA         ZA         QA         VA         BVA        FA
  0 C      5.6918     6.0000     0.3082     3.9624     3.9624    -0.0000
  1 C      6.5985     6.0000    -0.5985     3.7132     3.7132     0.0000
  2 O      8.3088     8.0000    -0.3088     2.3170     2.3170    -0.0000
  3 O      8.4242     8.0000    -0.4242     2.1844     2.1844    -0.0000
  4 H      0.6589     1.0000     0.3411     0.9092     0.9092     0.0000
  5 H      0.7748     1.0000     0.2252     0.9456     0.9456     0.0000
  6 H      0.7714     1.0000     0.2286     0.9403     0.9403    -0.0000
  7 H      0.7714     1.0000     0.2286     0.9403     0.9403    -0.0000

  Mayer bond orders larger than 0.100000
B(  0-C ,  1-C ) :   0.8452 B(  0-C ,  2-O ) :   2.0340 B(  0-C ,  3-O ) :   1.1066 
B(  1-C ,  5-H ) :   0.9346 B(  1-C ,  6-H ) :   0.9264 B(  1-C ,  7-H ) :   0.9264 
B(  2-O ,  3-O ) :   0.1762 B(  3-O ,  4-H ) :   0.8645 

-------
TIMINGS
-------

Total SCF time: 0 days 0 hours 0 min 0 sec 

Total time                  ....       0.901 sec
Sum of individual times     ....       0.843 sec  ( 93.6%)

SCF preparation             ....       0.056 sec  (  6.2%)
Fock matrix formation       ....       0.476 sec  ( 52.8%)
  Startup                   ....       0.011 sec  (  2.4% of F)
  Coulomb+Exchange Fock     ....       0.038 sec  (  7.9% of F)
  XC integration            ....       0.319 sec  ( 67.0% of F)
    Basis function eval.    ....       0.029 sec  (  9.0% of XC)
    Density eval.           ....       0.010 sec  (  3.2% of XC)
    XC-Functional eval.     ....       0.044 sec  ( 13.8% of XC)
    XC-Potential eval.      ....       0.010 sec  (  3.3% of XC)
Diagonalization             ....       0.000 sec  (  0.0%)
Density matrix formation    ....       0.048 sec  (  5.3%)
Total Energy calculation    ....       0.014 sec  (  1.5%)
Population analysis         ....       0.009 sec  (  1.0%)
Orbital Transformation      ....       0.009 sec  (  1.0%)
Orbital Orthonormalization  ....       0.000 sec  (  0.0%)
DIIS solution               ....       0.161 sec  ( 17.9%)
SOSCF solution              ....       0.071 sec  (  7.8%)
Finished LeanSCF after   0.9 sec

Maximum memory used throughout the entire LEANSCF-calculation: 4.0 MB


           ************************************************************
           *        Program running with 8 parallel MPI-processes     *
           *              working on a common directory               *
           ************************************************************

------------------------------------------------------------------------------
                         ORCA PROPERTY INTEGRAL CALCULATIONS
------------------------------------------------------------------------------

GBWName                                   ... /cluster/projects/nn14654k/ylvaos/basis_set_n_funcs/functionals/hyb_gga_xc_b97/CH3COOH/inp/CH3COOH_hyb_gga_xc_b97_pc0.gbw
Number of atoms                           ...      8
Number of basis functions                 ...     44
Max core memory                           ...   4096 MB

Dipole integrals                          ... YES
Quadrupole integrals                      ... YES
Linear momentum integrals                 ...  NO
Angular momentum integrals                ...  NO
Higher moments length integrals           ...  NO
Higher moments velocity integrals         ...  NO
Kinetic energy integrals                  ...  NO
GIAO right hand sides                     ...  NO
GIAO dipole derivative integrals          ...  NO
SOC integrals                             ...  NO
EPR diamagnetic integrals (GIAO)          ...  NO
EPR gauge integrals                       ...  NO
Field gradient integrals                  ...  NO (   0 nuclei)
Spin-dipole/Fermi contact integrals       ...  NO (   0 nuclei)
Contact density integrals                 ...  NO (   0 nuclei)
Nucleus-orbit integrals                   ...  NO (   0 nuclei)
Geometric perturbations                   ...  NO (   8 nuclei)

Choice of electric origin   ... Center of mass
Position of electric origin ... ( -0.0657,  0.0975,  0.0000) 
Choice of magnetic origin   ... GIAO
Position of magnetic origin ... (  0.0000,  0.0000,  0.0000) 

Calculating integrals                     ... Electric Dipole (Length)     done (  0.0 sec)
Calculating integrals                     ... Electric Quadrupole (Length) done (  0.0 sec)

Property integrals calculated in   0.0 sec

Maximum memory used throughout the entire PROPINT-calculation: 2.7 MB
------------------------------------------------------------------------------
                           ORCA ORBITAL LOCALIZATION
------------------------------------------------------------------------------

Input orbitals are from                  ... /cluster/projects/nn14654k/ylvaos/basis_set_n_funcs/functionals/hyb_gga_xc_b97/CH3COOH/inp/CH3COOH_hyb_gga_xc_b97_pc0.gbw
Output orbitals are to                   ... /cluster/projects/nn14654k/ylvaos/basis_set_n_funcs/functionals/hyb_gga_xc_b97/CH3COOH/inp/CH3COOH_hyb_gga_xc_b97_pc0.loc
Max. number of iterations                ... 128
Localizations seeded randomly            ... on
Convergence tolerance                    ... 1.000e-06
Threshold for strong local MOs           ... 9.500e-01
Threshold for bond MOs                   ... 8.500e-01
Operator                                 ... 0
Orbital range for localization           ... 4 to 15
Localization criterion                   ... NEW-BOYS
Doing the dipole integrals               ... o.k.
Initial value of the localization sum :    55.651114
ITERATION   0 : L=   78.7802865931 DL=  2.31e+01 (AVERGE_DL)=    0.5919814215 
ITERATION   1 : L=   80.9512814316 DL=  2.17e+00 (AVERGE_DL)=    0.1813666485 
ITERATION   2 : L=   80.9721141784 DL=  2.08e-02 (AVERGE_DL)=    0.0177664763 
ITERATION   3 : L=   80.9741127210 DL=  2.00e-03 (AVERGE_DL)=    0.0055028128 
ITERATION   4 : L=   80.9753228674 DL=  1.21e-03 (AVERGE_DL)=    0.0042820033 
ITERATION   5 : L=   80.9762725838 DL=  9.50e-04 (AVERGE_DL)=    0.0037933681 
ITERATION   6 : L=   80.9770284248 DL=  7.56e-04 (AVERGE_DL)=    0.0033841007 
ITERATION   7 : L=   80.9776028938 DL=  5.74e-04 (AVERGE_DL)=    0.0029502670 
ITERATION   8 : L=   80.9780233643 DL=  4.20e-04 (AVERGE_DL)=    0.0025240375 
ITERATION   9 : L=   80.9783221832 DL=  2.99e-04 (AVERGE_DL)=    0.0021278061 
ITERATION  10 : L=   80.9785300104 DL=  2.08e-04 (AVERGE_DL)=    0.0017745133 
ITERATION  11 : L=   80.9786723194 DL=  1.42e-04 (AVERGE_DL)=    0.0014683991 
ITERATION  12 : L=   80.9787686884 DL=  9.64e-05 (AVERGE_DL)=    0.0012083611 
ITERATION  13 : L=   80.9788334343 DL=  6.47e-05 (AVERGE_DL)=    0.0009904537 
ITERATION  14 : L=   80.9788766922 DL=  4.33e-05 (AVERGE_DL)=    0.0008095824 
ITERATION  15 : L=   80.9789054787 DL=  2.88e-05 (AVERGE_DL)=    0.0006604230 
ITERATION  16 : L=   80.9789245809 DL=  1.91e-05 (AVERGE_DL)=    0.0005379836 
ITERATION  17 : L=   80.9789372303 DL=  1.26e-05 (AVERGE_DL)=    0.0004377888 
ITERATION  18 : L=   80.9789455951 DL=  8.36e-06 (AVERGE_DL)=    0.0003560032 
ITERATION  19 : L=   80.9789511200 DL=  5.52e-06 (AVERGE_DL)=    0.0002893292 
ITERATION  20 : L=   80.9789547668 DL=  3.65e-06 (AVERGE_DL)=    0.0002350608 
ITERATION  21 : L=   80.9789571720 DL=  2.41e-06 (AVERGE_DL)=    0.0001909014 
ITERATION  22 : L=   80.9789587581 DL=  1.59e-06 (AVERGE_DL)=    0.0001550231 
ITERATION  23 : L=   80.9789598037 DL=  1.05e-06 (AVERGE_DL)=    0.0001258640 
ITERATION  24 : L=   80.9789604931 DL=  6.89e-07 (AVERGE_DL)=    0.0001021991 
LOCALIZATION SUM CONVERGED


--------------------------------------------------------------------------------
                    LOCALIZED MOLECULAR ORBITAL COMPOSITIONS
--------------------------------------------------------------------------------

The Mulliken populations for each LMO on each atom are computed
The LMO`s will be ordered according to atom index and type
  (A) Strongly localized MO`s have populations of >=0.950 on one atom
  (B) Two center bond orbitals have populations of >=0.850 on two atoms
  (C) Other MO`s are considered to be `delocalized`

FOUND  -   1 strongly local MO`s
       -  11 two center bond MO`s
       -   0 significantly delocalized MO`s

Rather strongly localized orbitals:
MO   4:   3O  -   0.954574
Bond-like localized orbitals:
MO  15:   7H  -   0.397091  and   1C  -   0.612920
MO  14:   6H  -   0.397057  and   1C  -   0.612956
MO  13:   5H  -   0.397017  and   1C  -   0.622153
MO  12:   4H  -   0.323495  and   3O  -   0.682289
MO  11:   3O  -   0.699173  and   0C  -   0.326578
MO  10:   3O  -   0.884572  and   0C  -   0.112174
MO   9:   2O  -   0.654902  and   0C  -   0.358412
MO   8:   2O  -   0.654574  and   0C  -   0.358941
MO   7:   2O  -   0.913747  and   0C  -   0.077153
MO   6:   2O  -   0.929944  and   0C  -   0.067265
MO   5:   1C  -   0.483433  and   0C  -   0.550400
Localized MO's were stored in: /cluster/projects/nn14654k/ylvaos/basis_set_n_funcs/functionals/hyb_gga_xc_b97/CH3COOH/inp/CH3COOH_hyb_gga_xc_b97_pc0.loc

-------------------------   --------------------
FINAL SINGLE POINT ENERGY      -228.319181578864
-------------------------   --------------------



           ************************************************************
           *        Program running with 8 parallel MPI-processes     *
           *              working on a common directory               *
           ************************************************************

------------------------------------------------------------------------------
                              ORCA PROPERTY CALCULATIONS
------------------------------------------------------------------------------

GBWName                                 ... /cluster/projects/nn14654k/ylvaos/basis_set_n_funcs/functionals/hyb_gga_xc_b97/CH3COOH/inp/CH3COOH_hyb_gga_xc_b97_pc0.gbw
Number of atoms                         ...      8
Number of basis functions               ...     44
Max core memory                         ...   4096 MB

Electric properties:
Dipole moment                           ... YES
Quadrupole moment                       ... YES
Static polarizability (Dipole/Dipole)   ...  NO
Static polarizability (Dipole/Quad.)    ...  NO
Static polarizability (Quad./Quad.)     ...  NO
Static polarizability (Velocity)        ...  NO
Static hyperpolarizability              ...  NO

Atomic electric properties:
Dipole moment                           ...  NO
Quadrupole moment                       ...  NO
Static polarizability                   ...  NO

Choice of electric origin               ... Center of mass
Position of electric origin             ...    -0.065707     0.097461     0.000000

General magnetic properties:
Magnetizability                         ...  NO

EPR properties:
g-Tensor (aka g-matrix)                 ...  NO
Zero-Field splitting spin-orbit         ...  NO
Zero-field splitting spin-spin          ...  NO
Hyperfine couplings                     ...  NO (   0 nuclei)
Quadrupole couplings                    ...  NO (   0 nuclei)
Contact density                         ...  NO (   0 nuclei)

NMR properties:
Chemical shifts                         ...  NO (   0 nuclei)
Spin-rotation constants                 ...  NO (   0 nuclei)
Spin-spin couplings                     ...  NO (   0 nuclei,    0 pairs)

Choice of magnetic origin               ... GIAO
Position of magnetic origin             ...     0.000000     0.000000     0.000000

Properties with geometric perturbations:
SCF Hessian                             ...  NO
IR spectrum                             ...  NO
VCD spectrum                            ...  NO
X-ray spectroscopy properties:
SCF XES/XAS/RIXS spectra                ...  NO

SCF SOC stabilization energy            ...  NO
Diagonal Born-Oppenheimer correction    ...  NO

-------------
DIPOLE MOMENT
-------------

Method             : SCF
Type of density    : Electron Density
Multiplicity       :   1
Irrep              :   0
Energy             :  -228.3191815788640611 Eh
Basis              : AO
                                X                 Y                 Z
Electronic contribution:     -2.255708780       2.531191786      -0.000000001
Nuclear contribution   :      2.102617427      -3.118765285       0.000000000
                        -----------------------------------------
Total Dipole Moment    :     -0.153091353      -0.587573499      -0.000000001
                        -----------------------------------------
Magnitude (a.u.)       :      0.607189904
Magnitude (Debye)      :      1.543354083



--------------------
Rotational spectrum 
--------------------
 
Rotational constants in cm-1:             0.373252             0.316126             0.176788 
Rotational constants in MHz :         11189.819630          9477.229268          5299.974115 

Dipole components along the rotational axes: 
x,y,z [a.u.] :    -0.265275    -0.546177    -0.000000 
x,y,z [Debye]:    -0.674275    -1.388270    -0.000000 

 

Dipole moment calculation done in   0.0 sec 

-----------------
QUADRUPOLE MOMENT
-----------------

Method             : SCF
Type of density    : Electron Density
Multiplicity       :   1
Irrep              :   0
Energy             :  -228.3191815788640611 Eh
Basis              : AO

                XX              YY              ZZ              XY              XZ              YZ
  NUC      103.447904006    93.335807526     5.552847104   -15.402641721     0.000000000     0.000000000
  EL      -118.529072813  -113.921359999   -22.710626746    12.253846365    -0.000000001     0.000000002
  TOT      -15.081168807   -20.585552472   -17.157779642    -3.148795355    -0.000000001     0.000000002 (a.u.)
           -20.284687821   -27.688272101   -23.077800415    -4.235237442    -0.000000001     0.000000002 (Buckingham)

diagonalized tensor:
           -22.015402255   -17.157779642   -13.651319024 (a.u.)
           -29.611468960   -23.077800415   -18.361490962 (Buckingham)
           -17.783646543     1.817359093    15.966287450 (traceless form in Buckingham)

            -0.413462412     0.000000001    -0.910521188
            -0.910521188     0.000000000     0.413462412
             0.000000000     1.000000000     0.000000000
        
Isotropic quadrupole :   -17.608166974

Quadrupole moment calculation done in   0.0 sec (  0.0 sec for integrals)

Maximum memory used throughout the entire PROP-calculation: 1.4 MB

--------------------------------
SUGGESTED CITATIONS FOR THIS RUN
--------------------------------

Below you find a list of papers that are relevant to this ORCA run
We neither can nor want to force you to cite these papers, but we appreciate if you do
You receive ORCA, which is the product of decades of hard work by many enthusiastic individuals, for free
The only thing we kindly ask in return is that you cite our papers,
We deeply appreciate it, if you show your appreciation for ORCA by not just citing the generic ORCA reference.

Please note that relegating all ORCA citations to the supporting information does *not* help us.
SI sections are not indexed - citations you put there will not count into any citation statistics
But we need these citations in order to attract the funding resources that allow us to do what we are doing

Therefore, if you are a happy ORCA user, please consider citing a few of the papers listed below in the main body of your paper

In addition to the list printed below, the program has created the file /cluster/projects/nn14654k/ylvaos/basis_set_n_funcs/functionals/hyb_gga_xc_b97/CH3COOH/inp/CH3COOH_hyb_gga_xc_b97_pc0.bibtex that contains the list in bibtex format
You can import this file easily into all common literature databanks and citation aid programs

It goes without saying that in many instances, there are alternative algorithms to achieve similar
results as the ones you have gotten from ORCA. It is, of course, also the case that in some instances
ORCA just re-implements algorithms worked out by others. We are fully aware of that and we are also
fully appreciative of our colleagues work. Hence this citation list should not be read as indicating
that the listed papers, which are focused on our own work, are the only ones worth citing. It simply
meant to make it easier for users to cite ORCA specific papers. It is not a substitute for doing your
own literature research and citing the relevant literature in a scientifically appropriate manner.

List of essential papers. We consider these as the minimum necessary citations

  1. Neese, F.
     Software update: the ORCA program system, version 6.0
     WIRES Comput. Molec. Sci. 2025 15(1), e70019
     doi.org/10.1002/wcms.70019

List of papers to cite with high priority. The work reported in these papers was absolutely
necessary for this run to complete.
Our perspective: the developers of density functionals and basis sets usually get cited in chemistry papers
Good! But without the algorithms to do something with them, the functionals or basis sets would not do anything.
Hence, in our opinion, the algorithm design and method developments papers are equally worthy of getting cited

  1. Lehtola, S.; Steigemann, C.; Oliveira, M.; Marques, M.
     Recent developments in Libxc - A comprehensive library of functionals for density functional theory
     Software X 2018 7 , 
     doi.org/10.1016/j.softx.2017.11.002
  2. Neese, F.
     The SHARK Integral Generation and Digestion System
     J. Comp. Chem. 2022 44(3), 381
     doi.org/10.1002/jcc.26942

List of suggested additional citations. These are papers that are important in the 'surrounding' of 
of this run, or papers that preceded the highly important papers. If you like your results we are grateful for a citation.

  1. Neese, F.
     The ORCA program system
     WIRES Comput. Molec. Sci. 2012 2(1), 73-78
     doi.org/10.1002/wcms.81
  2. Neese, F.
     Software update: the ORCA program system, version 4.0
     WIRES Comput. Molec. Sci. 2018 8(1), 1-6
     doi.org/10.1002/wcms.1327
  3. Neese, F.; Wennmohs, F.; Becker, U.; Riplinger, C.
     The ORCA quantum chemistry program package
     J. Chem. Phys. 2020 152(22), 224108
     doi.org/10.1063/5.0004608
  4. Neese, F.
     Software update: The ORCA program system—Version 5.0
     WIRES Comput. Molec. Sci. 2022 12(1), e1606
     doi.org/10.1002/wcms.1606

List of optional additional citations

  1. Neese, F.
     Approximate second-order SCF convergence for spin unrestricted wavefunctions
     Chem. Phys. Lett. 2000 325(1-3), 93-98
     doi.org/10.1016/s0009-2614(00)00662-x

Timings for individual modules:

Sum of individual times          ...        2.392 sec (=   0.040 min)
Startup calculation              ...        0.453 sec (=   0.008 min)  18.9 %
SCF iterations                   ...        1.468 sec (=   0.024 min)  61.4 %
Property integrals               ...        0.212 sec (=   0.004 min)   8.8 %
Property calculations            ...        0.256 sec (=   0.004 min)  10.7 %
Orbital localization             ...        0.003 sec (=   0.000 min)   0.1 %
                             ****ORCA TERMINATED NORMALLY****
TOTAL RUN TIME: 0 days 0 hours 0 minutes 3 seconds 41 msec
