
                                 *****************
                                 * O   R   C   A *
                                 *****************

                                            #,                                       
                                            ###                                      
                                            ####                                     
                                            #####                                    
                                            ######                                   
                                           ########,                                 
                                     ,,################,,,,,                         
                               ,,#################################,,                 
                          ,,##########################################,,             
                       ,#########################################, ''#####,          
                    ,#############################################,,   '####,        
                  ,##################################################,,,,####,       
                ,###########''''           ''''###############################       
              ,#####''   ,,,,##########,,,,          '''####'''          '####       
            ,##' ,,,,###########################,,,                        '##       
           ' ,,###''''                  '''############,,,                           
         ,,##''                                '''############,,,,        ,,,,,,###''
      ,#''                                            '''#######################'''  
     '                                                          ''''####''''         
             ,#######,   #######,   ,#######,      ##                                
            ,#'     '#,  ##    ##  ,#'     '#,    #''#        ,####,    ,#,          
            ##       ##  ##   ,#'  ##            #'  '#       #'       ,# #          
            ##       ##  #######   ##           ,######,      #####,      #          
            '#,     ,#'  ##    ##  '#,     ,#' ,#      #,     #,   #      #          
             '#######'   ##     ##  '#######'  #'      '#     '####' #    #          



                #########################################################
                #                        -***-                          #
                #          Department of theory and spectroscopy        #
                #                                                       #
                #                      Frank Neese                      #
                #                                                       #
                #     Directorship, Architecture, Infrastructure        #
                #                    SHARK, DRIVERS                     #
                #        Core code/Algorithms in most modules           #
                #                                                       #
                #        Max Planck Institute fuer Kohlenforschung      #
                #                Kaiser Wilhelm Platz 1                 #
                #                 D-45470 Muelheim/Ruhr                 #
                #                      Germany                          #
                #                                                       #
                #                  All rights reserved                  #
                #                        -***-                          #
                #########################################################


                         Program Version 6.1.1  -  RELEASE   -
                                (GIT: $487d211c$)
                          ($2025-11-21 10:33:24 +0100$)


 With contributions from (in alphabetic order):
[Max-Planck-Institut fuer Kohlenforschung]                               
  Daniel Aravena         : Magnetic Suceptibility                        
  Michael Atanasov       : Ab Initio Ligand Field Theory (pilot matlab implementation)
  Alexander A. Auer      : GIAO ZORA, VPT2 properties, NMR spectrum      
  Ute Becker             : All parallelization in ORCA, NUMFREQ, NUMCALC 
  Giovanni Bistoni       : ED, misc. LED, open-shell LED, HFLD           
  Dmytro Bykov           : pre 5.0 version of the SCF Hessian            
  Marcos Casanova-Páez   : Triplet and SCS-CIS(D). UHF-(DLPNO)-IP/EA/STEOM-CCSD. UHF-CVS-IP/STEOM-CCSD   
  Vijay G. Chilkuri      : MRCI spin determinant printing, contributions to CSF-ICE 
  Pauline Colinet        : FMM embedding                                 
  Dipayan Datta          : RHF DLPNO-CCSD density                        
  Achintya Kumar Dutta   : EOM-CC, STEOM-CC                              
  Nicolas Foglia         : Exact transition moments, OPA infrastructure, MCD improvements    
  Dmitry Ganyushin       : Spin-Orbit,Spin-Spin,Magnetic field MRCI      
  Miquel Garcia-Rates    : C-PCM and meta-GGA Hessian, CCSD/C-PCM, Gaussian charge scheme 
  Tiago L. C. Gouveia    : GS-ROHF, GS-ROCIS                             
  Yang Guo               : DLPNO-NEVPT2, F12-NEVPT2, CIM, IAO-localization        
  Andreas Hansen         : Spin unrestricted coupled pair/coupled cluster methods 
  Ingolf Harden          : AUTO-CI MPn and infrastructure                
  Benjamin Helmich-Paris : MC-RPA, TRAH-(SCF,CASSCF), AVAS, COSX integrals, SCF dyn. polar., MC-PDFT, srDFT 
  Lee Huntington         : MR-EOM, pCC                                   
  Robert Izsak           : Overlap fitted RIJCOSX, COSX-SCS-MP3, EOM     
  Riya Kayal             : Wick's Theorem for AUTO-CI, AUTO-CI UHF-CCSDT 
  Emily Kempfer          : AUTO-CI RHF CISDT and CCSDT, approximate NEVPT4
  Christian Kollmar      : KDIIS, OOCD, Brueckner-CCSD(T), CCSD density, CASPT2, CASPT2-K, improved NEVPT2 
  Axel Koslowski         : Symmetry handling                             
  Simone Kossmann        : meta-GGA functionals, TD-DFT gradient, OOMP2, (MP2 Hessian; deprecated post 5.0) 
  Lucas Lang             : DCDCAS, Hyperfine gauge corrections, ICE-SOC+SSC
  Marvin Lechner         : AUTO-CI (C++ implementation), FIC-MRCC        
  Spencer Leger          : CASSCF response                               
  Dagmar Lenk            : GEPOL surface, SMD, ORCA-2-JSON               
  Dimitrios Liakos       : Extrapolation schemes; Compound Job, Property file
  Dimitrios Manganas     : Further ROCIS development; embedding schemes. LFT, Crystal Embedding 
  Dimitrios Pantazis     : SARC Basis sets                               
  Anastasios Papadopoulos: AUTO-CI, single reference methods and gradients 
  Taras Petrenko         : pre 6.0 DFT Hessian and TD-DFT gradient,  ECA, NRVS 
  Petra Pikulova         : Analytic Raman intensities                    
  Peter Pinski           : DLPNO-MP2, DLPNO-MP2 Gradient                 
  Shashank Vittal Rao    : ES-AILFT, MagRelax                            
  Christoph Reimann      : Effective Core Potentials                     
  Marius Retegan         : Local ZFS, SOC                                
  Christoph Riplinger    : Optimizer, TS searches, QM/MM, DLPNO-CCSD(T), (RO)-DLPNO pert. Triples 
  Michael Roemelt        : Original ROCIS implementation, recursive CI coupling coefficients
  Masaaki Saitow         : Open-shell DLPNO-CCSD energy and density      
  Barbara Sandhoefer     : DKH picture change effects                    
  Yorick L. A. Schmerwitz: GMF and freeze-and-release deltaSCF, NEB S-IDPP initial path                    
  Kantharuban Sivalingam : CASSCF convergence/infrastructure, NEVPT2, NEVPT3, NEVPT4(SD), FIC-MRCI and CEPA variants
  Bernardo de Souza      : ESD, SOC TD-DFT                               
  Georgi L. Stoychev     : AutoAux, RI-MP2 NMR, DLPNO-MP2 response, X2C  
  Van Anh Tran           : RI-MP2 g-tensors                              
  Willem Van den Heuvel  : Paramagnetic NMR                              
  Zikuan Wang            : NOTCH, Electric field optimization            
  Frank Wennmohs         : Technical directorship and infrastructure     
  Hang Xu                : AUTO-CI-Response properties                   
                                                                         
[FACCTs GmbH]                                                            
  Markus Bursch, Nicolas Foglia, Miquel Garcia-Rates, Ingolf Harden, Hagen Neugebauer, Anastasios Papadopoulos, 
  Christoph Riplinger, Bernardo de Souza, Georgi L. Stoychev                                                    
                                                                 
  APM, various basis sets, CI-OPT, improved COSX, DLPNO-Multilevel,           
  DOCKER, DRACO, updates on ESD, Fragmentator, GOAT, IRC, LR-CPCM, L-BFGS, MBIS, meta-GGA TD-DFT gradient, ML-optimized integration grids, 
  MM, NACMEs, nearIR, NEB, NEB-TS, NL-DFT gradient (VV10), 2- and 3-layer-ONIOM, interface openCOSMO-RS, QMMM,   
  Crystal-QMMM, RESP, rigid body optimization, SF, symmetry and pop. for TD-DFT, various functionals, SOLVATOR                                   
                                                                         
[Other institutions]                                                     
  V. Asgeirsson          : NEB                                           
  Christoph Bannwarth    : sTDA-DFT, sTD-DFT, PBEh-3c, B97-3c, D3        
  Giovanni Bistoni       : ETS/NOCV, ADLD/ADEX, COVALED                  
  Martin Brehm           : Molecular dynamics                            
  Ronald Cardenas        : ETS/NOCV                                      
  Martina Colucci        : COVALED                                       
  Sebastian Ehlert       : rSCAN, r2SCAN, r2SCAN-3c, D4, dhf basis sets  
  Marvin Friede          : D4 for Fr, Ra, Ac-Lr                          
  Lars Goerigk           : TD-DFT with DH, B97 family of functionals     
  Stefan Grimme          : VdW corrections, initial TS optimization, DFT functionals, gCP, sTDA/sTD-DF 
  Waldemar Hujo          : DFT-NL                                        
  H. Jonsson             : NEB                                           
  Holger Kruse           : gCP                                           
  Marcel Mueller         : wB97X-3c, vDZP basis set                      
  Hagen Neugebauer       : wr2SCAN, Native XTB                           
  Gianluca Regni         : ADLD/ADEX                                     
  Tobias Risthaus        : pre 6.0 range-separated hybrid DFT and stability analysis
  Lukas Wittmann         : regularized MP2, r2SCAN double-hybrids, wr2SCAN        
                                                                         
We gratefully acknowledge several colleagues who have allowed us to      
interface, adapt or use parts of their codes:                            
  Ed Valeev, F. Pavosevic, A. Kumar             : LibInt (2-el integral package), F12 methods 
  Garnet Chan, S. Sharma, J. Yang, R. Olivares  : DMRG                   
  Ulf Ekstrom                                   : XCFun DFT Library      
  Mihaly Kallay                                 : mrcc  (arbitrary order and MRCC methods)
  Frank Weinhold                                : gennbo (NPA and NBO analysis)           
  Simon Mueller                                 : openCOSMO-RS                            
  Christopher J. Cramer and Donald G. Truhlar   : smd solvation model                     
  S Lehtola, MJT Oliveira, MAL Marques          : LibXC Library                           
  Liviu Ungur et al                             : ANISO software                          


 Your calculation uses the libint2 library for the computation of 2-el integrals
 For citations please refer to: http://libint.valeyev.net

 Your ORCA version has been built with support for libXC version: 7.0.0
 For citations please refer to: https://libxc.gitlab.io

 This ORCA versions uses:
   CBLAS   interface :  Fast vector & matrix operations
   LAPACKE interface :  Fast linear algebra routines
   SCALAPACK package :  Parallel linear algebra routines
   Shared memory     :  Shared parallel matrices
   BLAS/LAPACK       :  OpenBLAS 0.3.29  USE64BITINT DYNAMIC_ARCH NO_AFFINITY Cooperlake SINGLE_THREADED
        Core in use  :  Cooperlake
   Copyright (c) 2011-2014, The OpenBLAS Project


  ***********************************
  * Starting time: Wed May 20 12:33:31 2026
  * Host name:     c1-3
  * Process ID:    1475854
  * Working dir.:  /cluster/projects/nn14654k/ylvaos/basis_set_n_funcs/functionals/hyb_gga_xc_b97/CH3COOH/out
  ***********************************

Using LibXC functional ID 407 : Becke 97
[ 1]  A. D. Becke.,  J. Chem. Phys. 107, 8554 (1997)
Using LibXC functional ID 407 : Becke 97
[ 1]  A. D. Becke.,  J. Chem. Phys. 107, 8554 (1997)
Your calculation utilizes LibXC
by S. Lehtola, C. Steigemann, M. J. T. Oliveira & M. A. L. Marques
Please cite in your paper:
Lehtola, S.; Steigemann, C.; Oliveira, M.J.T.; Marques, M. A. L. Software X, 7, (2018), 1.
   

================================================================================

----- Orbital basis set information -----
Your calculation utilizes the basis: cc-pVTZ 
       H, B-Ne : Obtained from the ccRepo (grant-hill.group.shef.ac.uk/ccrepo) Feb. 2017
                 T. H. Dunning, Jr., J. Chem. Phys. 90, 1007 (1989)
            He : Obtained from the ccRepo (grant-hill.group.shef.ac.uk/ccrepo) Feb. 2017
                 D. E. Woon, T. H. Dunning, Jr., J. Chem. Phys. 100, 2975 (1994)
  Li-Be, Na-Mg : Obtained from the ccRepo (grant-hill.group.shef.ac.uk/ccrepo) Feb. 2017
                 B. P. Prascher, D. E. Woon, K. A. Peterson, T. H. Dunning, Jr., A. K. Wilson, Theor. Chem. Acc. 128, 69 (2011)
         Al-Ar : Obtained from the ccRepo (grant-hill.group.shef.ac.uk/ccrepo) Feb. 2017
                 D. E. Woon, T. H. Dunning, Jr., J. Chem. Phys. 98, 1358 (1993)
            Ca : Obtained from the Peterson Research Group Website (tyr0.chem.wsu.edu/~kipeters) Feb. 2017
                 J. Koput, K. A. Peterson, J. Phys. Chem. 106, 9595 (2002)
         Sc-Zn : Obtained from the ccRepo (grant-hill.group.shef.ac.uk/ccrepo) Feb. 2017
                 N. B. Balabanov, K. A. Peterson, J. Chem. Phys. 123, 064107 (2005)
                 N. B. Balabanov, K. A. Peterson, J. Chem. Phys. 125, 074110 (2006)
         Ga-Kr : Obtained from the ccRepo (grant-hill.group.shef.ac.uk/ccrepo) Feb. 2017
                 A. K. Wilson, D. E. Woon, K. A. Peterson, T. H. Dunning, Jr., J. Chem. Phys. 110, 7667 (1999)
             Y : Obtained from the ccRepo (grant-hill.group.shef.ac.uk/ccrepo) Feb. 2017
                 K. A. Peterson, D. Figgen, M. Dolg, H. Stoll, J. Chem. Phys. 126, 124101 (2007)
        Ag, Au : Obtained from the Peterson Research Group Website (tyr0.chem.wsu.edu/~kipeters) Feb. 2017
                 K. A. Peterson, C. Puzzarini, Theor. Chem. Acc. 114, 283 (2005)

================================================================================
                                        WARNINGS
                       Please study these warnings very carefully!
================================================================================


================================================================================
                                       INPUT FILE
================================================================================
NAME = /cluster/projects/nn14654k/ylvaos/basis_set_n_funcs/functionals/hyb_gga_xc_b97/CH3COOH/inp/CH3COOH_hyb_gga_xc_b97_ccpvtz.inp
|  1> ! dft cc-pVTZ TightSCF
|  2> %pal nprocs 8 end
|  3> 
|  4> %loc
|  5>   LocMet NewBoys
|  6>   Occ true
|  7> end
|  8> 
|  9> %method
| 10>   
| 11>   functional hyb_gga_xc_b97
| 12> end
| 13> 
| 14> %elprop
| 15>   Dipole true
| 16>   Quadrupole true
| 17> end
| 18> 
| 19> * xyz 0 1
| 20> C    0.000000000000   0.154560000000   0.000000000000
| 21> C    1.073776000000  -0.892748000000   0.000000000000
| 22> O    0.166384000000   1.360084000000   0.000000000000
| 23> O   -1.236449000000  -0.415036000000   0.000000000000
| 24> H   -1.867646000000   0.333582000000   0.000000000000
| 25> H    2.048189000000  -0.408135000000   0.000000000000
| 26> H    0.968661000000  -1.528353000000   0.881747000000
| 27> H    0.968661000000  -1.528353000000  -0.881747000000
| 28> *
| 29> 
| 30> 
| 31>                          ****END OF INPUT****
================================================================================

                       ****************************
                       * Single Point Calculation *
                       ****************************

---------------------------------
CARTESIAN COORDINATES (ANGSTROEM)
---------------------------------
  C      0.000000    0.154560    0.000000
  C      1.073776   -0.892748    0.000000
  O      0.166384    1.360084    0.000000
  O     -1.236449   -0.415036    0.000000
  H     -1.867646    0.333582    0.000000
  H      2.048189   -0.408135    0.000000
  H      0.968661   -1.528353    0.881747
  H      0.968661   -1.528353   -0.881747

----------------------------
CARTESIAN COORDINATES (A.U.)
----------------------------
  NO LB      ZA    FRAG     MASS         X           Y           Z
   0 C     6.0000    0    12.011    0.000000    0.292076    0.000000
   1 C     6.0000    0    12.011    2.029143   -1.687049    0.000000
   2 O     8.0000    0    15.999    0.314420    2.570186    0.000000
   3 O     8.0000    0    15.999   -2.336550   -0.784304    0.000000
   4 H     1.0000    0     1.008   -3.529339    0.630379    0.000000
   5 H     1.0000    0     1.008    3.870516   -0.771263    0.000000
   6 H     1.0000    0     1.008    1.830504   -2.888169    1.666260
   7 H     1.0000    0     1.008    1.830504   -2.888169   -1.666260

--------------------------------
INTERNAL COORDINATES (ANGSTROEM)
--------------------------------
 C      0   0   0     0.000000000000     0.00000000     0.00000000
 C      1   0   0     1.499949647502     0.00000000     0.00000000
 O      1   2   0     1.216951827326   126.42686784     0.00000000
 O      1   2   3     1.361339683113   110.98078396   180.00000000
 H      4   1   2     0.979203024267   105.40175469   180.00000085
 H      2   1   3     1.088269476893   109.27200725     0.00000000
 H      2   1   3     1.092025938913   109.72406365   120.93315147
 H      2   1   3     1.092025938913   109.72406365   239.06684853

---------------------------
INTERNAL COORDINATES (A.U.)
---------------------------
 C      0   0   0     0.000000000000     0.00000000     0.00000000
 C      1   0   0     2.834494048450     0.00000000     0.00000000
 O      1   2   0     2.299705671821   126.42686784     0.00000000
 O      1   2   3     2.572559176322   110.98078396   180.00000000
 H      4   1   2     1.850425545371   105.40175469   180.00000085
 H      2   1   3     2.056531271234   109.27200725     0.00000000
 H      2   1   3     2.063629955684   109.72406365   120.93315147
 H      2   1   3     2.063629955684   109.72406365   239.06684853

---------------------
BASIS SET INFORMATION
---------------------
There are 3 groups of distinct atoms

 Group   1 Type C   : 18s5p2d1f contracted to 4s3p2d1f pattern {8811/311/11/1}
 Group   2 Type O   : 18s5p2d1f contracted to 4s3p2d1f pattern {8811/311/11/1}
 Group   3 Type H   : 5s2p1d contracted to 3s2p1d pattern {311/11/1}

Atom   0C    basis set group =>   1
Atom   1C    basis set group =>   1
Atom   2O    basis set group =>   2
Atom   3O    basis set group =>   2
Atom   4H    basis set group =>   3
Atom   5H    basis set group =>   3
Atom   6H    basis set group =>   3
Atom   7H    basis set group =>   3


           ************************************************************
           *        Program running with 8 parallel MPI-processes     *
           *              working on a common directory               *
           ************************************************************
------------------------------------------------------------------------------
                             ORCA STARTUP CALCULATIONS
------------------------------------------------------------------------------
------------------------------------------------------------------------------
                   ___                                                        
                  /   \      - P O W E R E D   B Y -                         
                 /     \                                                     
                 |  |  |   _    _      __       _____    __    __             
                 |  |  |  | |  | |    /  \     |  _  \  |  |  /  |          
                  \  \/   | |  | |   /    \    | | | |  |  | /  /          
                 / \  \   | |__| |  /  /\  \   | |_| |  |  |/  /          
                |  |  |   |  __  | /  /__\  \  |    /   |      \           
                |  |  |   | |  | | |   __   |  |    \   |  |\   \          
                \     /   | |  | | |  |  |  |  | |\  \  |  | \   \       
                 \___/    |_|  |_| |__|  |__|  |_| \__\ |__|  \__/        
                                                                              
                      - O R C A' S   B I G   F R I E N D -                    
                                      &                                       
                       - I N T E G R A L  F E E D E R -                       
                                                                              
 v1 FN, 2020, v2 2021, v3 2022-2024                                           
------------------------------------------------------------------------------


----------------------
SHARK INTEGRAL PACKAGE
----------------------

Number of atoms                             ...      8
Number of basis functions                   ...    200
Number of shells                            ...     88
Maximum angular momentum                    ...      3
Integral batch strategy                     ... SHARK/LIBINT Hybrid
RI-J (if used) integral strategy            ... SPLIT-RIJ (Revised 2003 algorithm where possible)
Printlevel                                  ...      1
Contraction scheme used                     ... PARTIAL GENERAL contraction
Prescreening option                         ... SCHWARTZ
   Thresh                                   ... 2.500e-11
   Tcut                                     ... 2.500e-12
   Tpresel                                  ... 2.500e-12 
Coulomb Range Separation                    ... NOT USED
Exchange Range Separation                   ... NOT USED
Multipole approximations                    ... NOT USED
Finite Nucleus Model                        ... NOT USED
CABS basis                                  ... NOT available
Auxiliary Coulomb fitting basis             ... NOT available
Auxiliary J/K fitting basis                 ... NOT available
Auxiliary Correlation fitting basis         ... NOT available
Auxiliary 'external' fitting basis          ... NOT available

Checking pre-screening integrals            ... done (  0.0 sec) Dimension = 88
Save PGC pre-screening integrals            ... done (  0.0 sec) Dimension = 88
Calculate PGC overlap integrals             ... done (  0.0 sec) Dimension = 64
Calculating pre-screening integrals (ORCA)  ... done (  0.0 sec) Dimension = 64
Shell pair information
Shell pair cut-off parameter TPreSel        ...   2.5e-12
Total number of shell pairs                 ...      3916
Shell pairs after pre-screening             ...      3432
Total number of primitive shell pairs       ...      5484
Primitive shell pairs kept                  ...      4462
          la=0 lb=0:   1037 shell pairs
          la=1 lb=0:    962 shell pairs
          la=1 lb=1:    206 shell pairs
          la=2 lb=0:    568 shell pairs
          la=2 lb=1:    237 shell pairs
          la=2 lb=2:     78 shell pairs
          la=3 lb=0:    206 shell pairs
          la=3 lb=1:     80 shell pairs
          la=3 lb=2:     48 shell pairs
          la=3 lb=3:     10 shell pairs

Checking whether 4 symmetric matrices of dimension 200 fit in memory
:Max Core in MB      =   4096.00
 MB in use           =      5.78
 MB left             =   4090.22
 MB needed           =      0.61
 Data fit in memory  = YES
Calculating Nuclear repulsion               ... done (  0.0 sec) ENN=    120.693288504615 Eh

Diagonalization of the overlap matrix:
Smallest eigenvalue                        ... 8.493e-04
Time for diagonalization                   ...    0.002 sec
Threshold for overlap eigenvalues          ... 1.000e-07
Number of eigenvalues below threshold      ... 0
Time for construction of square roots      ...    0.003 sec
Total time needed                          ...    0.007 sec

-------------------
DFT GRID GENERATION
-------------------

General Integration Accuracy     IntAcc      ... 4.388
Radial Grid Type                 RadialGrid  ... OptM3 with GC (2021)
Angular Grid (max. ang.)         AngularGrid ... 4 (Lebedev-302)
Angular grid pruning method      GridPruning ... 4 (adaptive)
Weight generation scheme         WeightScheme... mBecke (2022)
Basis function cutoff            BFCut       ... 1.0000e-11
Integration weight cutoff        WCut        ... 1.0000e-14
Partially contracted basis set               ... off
Rotationally invariant grid construction     ... off
Angular grids for H and He will be reduced by one unit

Total number of grid points                  ...    37392
Total number of batches                      ...      588
Average number of points per batch           ...       63
Average number of grid points per atom       ...     4674

---------------------
SHARK GRID GENERATION
---------------------

General Integration Accuracy     IntAcc      ... 4.388
Radial Grid Type                 RadialGrid  ... OptM3 with GC (2021)
Angular Grid (max. ang.)         AngularGrid ... 4 (Lebedev-302)
Angular grid pruning method      GridPruning ... 4 (adaptive)
Weight generation scheme         WeightScheme... mBecke (2022)
Basis function cutoff            BFCut       ... 1.0000e-11
Integration weight cutoff        WCut        ... 1.0000e-14
Partially contracted basis set               ... off
Rotationally invariant grid construction     ... off
Angular grids for H and He will be reduced by one unit
Steep s-basis detected: some atoms will have their radial
                        grid points doubled.

Total number of grid points                  ...    62114
Total number of batches                      ...      975
Average number of points per batch           ...       63
Average number of grid points per atom       ...     7764
Grids setup in   0.4 sec
Initializing property integral containers    ... done (  0.0 sec)

SHARK setup successfully completed in   0.5 seconds

Maximum memory used throughout the entire STARTUP-calculation: 20.0 MB


           ************************************************************
           *        Program running with 8 parallel MPI-processes     *
           *              working on a common directory               *
           ************************************************************
-------------------------------------------------------------------------------
                                 ORCA GUESS
                   Start orbitals & Density for SCF / CASSCF
-------------------------------------------------------------------------------

------------
SCF SETTINGS
------------
Hamiltonian:
 Density Functional     Method          .... DFT(GTOs)
  Functional kind                       .... Exchange-Correlation
  Functional name                       .... Becke 97
  Functional family                     .... Hybrid GGA
  Functional refs                              
    [ 0] A. D. Becke.,  J. Chem. Phys. 107, 8554 (1997), doi: 10.1063/1.475007
  Fraction of HF Exchange               .... 0.1943
  Functional external parameters        .... 16
    Parameter  0 _cx0       =  8.094000e-01 : u^0 coefficient for exchange
    Parameter  1 _cx1       =  5.073000e-01 : u^1 coefficient for exchange
    Parameter  2 _cx2       =  7.481000e-01 : u^2 coefficient for exchange
    Parameter  3 _cx3       =  0.000000e+00 : u^3 coefficient for exchange
    Parameter  4 _cx4       =  0.000000e+00 : u^4 coefficient for exchange
    Parameter  5 _css0      =  1.737000e-01 : u^0 coefficient for same-spin correlation
    Parameter  6 _css1      =  2.348700e+00 : u^1 coefficient for same-spin correlation
    Parameter  7 _css2      = -2.486800e+00 : u^2 coefficient for same-spin correlation
    Parameter  8 _css3      =  0.000000e+00 : u^3 coefficient for same-spin correlation
    Parameter  9 _css4      =  0.000000e+00 : u^4 coefficient for same-spin correlation
    Parameter 10 _cos0      =  9.454000e-01 : u^0 coefficient for opposite-spin correlation
    Parameter 11 _cos1      =  7.471000e-01 : u^1 coefficient for opposite-spin correlation
    Parameter 12 _cos2      = -4.596100e+00 : u^2 coefficient for opposite-spin correlation
    Parameter 13 _cos3      =  0.000000e+00 : u^3 coefficient for opposite-spin correlation
    Parameter 14 _cos4      =  0.000000e+00 : u^4 coefficient for opposite-spin correlation
    Parameter 15 _cxx       =  1.943000e-01 : coefficient for exact exchange


General Settings:
 Integral files         IntName         .... /cluster/projects/nn14654k/ylvaos/basis_set_n_funcs/functionals/hyb_gga_xc_b97/CH3COOH/inp/CH3COOH_hyb_gga_xc_b97_ccpvtz
 Hartree-Fock type      HFTyp           .... RHF
 Total Charge           Charge          ....    0
 Multiplicity           Mult            ....    1
 Number of Electrons    NEL             ....   32
 Basis Dimension        Dim             ....  176
 Nuclear Repulsion      ENuc            ....    120.6932885046 Eh

Convergence Acceleration:
 AO-DIIS                CNVDIIS         .... on
   Start iteration      DIISMaxIt       ....    12
   Startup error        DIISStart       ....  0.200000
   # of expansion vecs  DIISMaxEq       ....     5
   Bias factor          DIISBfac        ....   1.050
   Max. coefficient     DIISMaxC        ....  10.000
 MO-DIIS                CNVKDIIS        .... off
 Trust-Rad. Augm. Hess. CNVTRAH         .... auto
   Auto Start mean grad. ratio tolernc. ....  1.125000
   Auto Start start iteration           ....    50
   Auto Start num. interpolation iter.  ....    10
   Max. Number of Micro iterations      ....    24
   Max. Number of Macro iterations      .... Maxiter - #DIIS iter
   Number of Davidson start vectors     ....     2
   Converg. threshold    (grad. norm)   ....   1.000e-05
   Grad. Scal. Fac. for Micro threshold ....   0.100
   Minimum threshold for Micro iter.    ....   1.000e-02
   NR start threshold (gradient norm)   ....   1.000e-04
   Initial trust radius                 ....   0.400
   Minimum AH scaling param. (alpha)    ....   1.000
   Maximum AH scaling param. (alpha)    .... 1000.000
   Quad. conv. algorithm                .... NR
   White noise on init. David. guess    .... on
   Maximum white noise                  ....   0.010
   Pseudo random numbers                .... off
   Inactive MOs                         .... canonical
   Orbital update algorithm             .... Taylor
   Preconditioner                       .... Diag
   Full preconditioner red. dimension   ....   250
 SOSCF                 CNVSOSCF           .... on
   Start iteration     SOSCFMaxIt         ....   150
   Startup grad/error  SOSCFStart         ....  0.003300
   Hessian update      SOSCFHessUp        .... L-BFGS
   Autom. constraints  SOSCFAutoConstrain .... off
 Level Shifting         CNVShift        .... on
   Level shift para.    LevelShift      ....    0.2500
   Turn off err/grad.   ShiftErr        ....    0.0010
 Zerner damping         CNVZerner       .... off
 Static damping         CNVDamp         .... on
   Fraction old density DampFac         ....    0.7000
   Max. Damping (<1)    DampMax         ....    0.9800
   Min. Damping (>=0)   DampMin         ....    0.0000
   Turn off err/grad.   DampErr         ....    0.1000

SCF Procedure:
 Maximum # iterations   MaxIter         ....   125
 SCF integral mode      SCFMode         .... Direct
   Integral package                     .... SHARK and LIBINT hybrid scheme
 Reset frequency        DirectResetFreq ....    20
 Integral Threshold     Thresh          ....  2.500e-11 Eh
 Primitive CutOff       TCut            ....  2.500e-12 Eh

Convergence Tolerance:
 Convergence Check Mode ConvCheckMode   .... Total+1el-Energy
 Convergence forced     ConvForced      .... 0
 Energy Change          TolE            ....  1.000e-08 Eh
 1-El. energy change                    ....  1.000e-05 Eh
 Orbital Gradient       TolG            ....  1.000e-05
 Orbital Rotation angle TolX            ....  1.000e-05
 DIIS Error             TolErr          ....  5.000e-07

------------------------------
INITIAL GUESS: MODEL POTENTIAL
------------------------------
Loading Hartree-Fock densities                     ... done
Calculating cut-offs                               ... done
Initializing the effective Hamiltonian             ... done
Setting up the integral package (SHARK)            ... done
Starting the Coulomb interaction                   ... done (   0.0 sec)
Making the grid                                    ... done (   0.0 sec)
Mapping shells                                     ... done
Starting the XC term evaluation                    ... done (   0.0 sec)
  promolecular density results
     # of electrons  =     31.997224895
     EX+EC           =    -23.539637670
Transforming the Hamiltonian                       ... done (   0.0 sec)
Diagonalizing the Hamiltonian                      ... done (   0.0 sec)
Back transforming the eigenvectors                 ... done (   0.0 sec)
Now organizing SCF variables                       ... done
                      ------------------
                      INITIAL GUESS DONE (   0.1 sec)
                      ------------------
             **** ENERGY FILE WAS UPDATED (/cluster/projects/nn14654k/ylvaos/basis_set_n_funcs/functionals/hyb_gga_xc_b97/CH3COOH/inp/CH3COOH_hyb_gga_xc_b97_ccpvtz.en.tmp) ****
Finished Guess after   0.2 sec
Maximum memory used throughout the entire GUESS-calculation: 10.1 MB


           ************************************************************
           *        Program running with 8 parallel MPI-processes     *
           *              working on a common directory               *
           ************************************************************

-------------------------------------------------------------------------------------------
                                      ORCA LEAN-SCF
                              memory conserving SCF solver
-------------------------------------------------------------------------------------------

----------------------------------------D-I-I-S--------------------------------------------
Iteration    Energy (Eh)           Delta-E    RMSDP     MaxDP     DIISErr   Damp  Time(sec)
-------------------------------------------------------------------------------------------
               ***  Starting incremental Fock matrix formation  ***
    1    -229.0442306666455465     0.00e+00  3.16e-03  4.77e-02  1.87e-01  0.700   0.4
    2    -229.0671799335746073    -2.29e-02  2.17e-03  3.35e-02  1.27e-01  0.700   0.4
                               ***Turning on AO-DIIS***
    3    -229.0771470276659443    -9.97e-03  1.26e-03  2.30e-02  8.91e-02  0.700   0.4
    4    -229.0836740031568866    -6.53e-03  2.68e-03  5.12e-02  6.02e-02  0.000   0.4
                              *** Initializing SOSCF ***
---------------------------------------S-O-S-C-F--------------------------------------
Iteration    Energy (Eh)           Delta-E    RMSDP     MaxDP     MaxGrad    Time(sec)
--------------------------------------------------------------------------------------
    5    -229.0983939423232414    -1.47e-02  1.47e-04  2.15e-03  2.47e-03     0.4
               *** Restarting incremental Fock matrix formation ***
    6    -229.0984153750877113    -2.14e-05  1.11e-04  1.03e-03  5.86e-04     0.4
    7    -229.0984081935808945     7.18e-06  6.67e-05  6.46e-04  1.32e-03     0.3
    8    -229.0984181979409300    -1.00e-05  9.13e-06  7.95e-05  3.74e-05     0.3
    9    -229.0984181838718428     1.41e-08  4.78e-06  4.02e-05  5.29e-05     0.3
   10    -229.0984182297856933    -4.59e-08  1.66e-06  1.50e-05  8.04e-06     0.4
   11    -229.0984182300992416    -3.14e-10  8.10e-07  8.23e-06  6.25e-06     0.3
                 **** Energy Check signals convergence ****

               *****************************************************
               *                     SUCCESS                       *
               *           SCF CONVERGED AFTER  11 CYCLES          *
               *****************************************************

             **** ENERGY FILE WAS UPDATED (/cluster/projects/nn14654k/ylvaos/basis_set_n_funcs/functionals/hyb_gga_xc_b97/CH3COOH/inp/CH3COOH_hyb_gga_xc_b97_ccpvtz.en.tmp) ****

----------------
TOTAL SCF ENERGY
----------------

Total Energy       :       -229.09841823122605 Eh           -6234.08489 eV

Components:
Nuclear Repulsion  :        120.69328850461517 Eh            3284.23135 eV
Electronic Energy  :       -349.79170673584122 Eh           -9518.31624 eV
One Electron Energy:       -551.33082350794621 Eh          -15002.47442 eV
Two Electron Energy:        201.53911677210502 Eh            5484.15818 eV

Virial components:
Potential Energy   :       -456.79693078273539 Eh          -12430.07642 eV
Kinetic Energy     :        227.69851255150934 Eh            6195.99152 eV
Virial Ratio       :          2.00614806686276

DFT components:
N(Alpha)           :       15.999985714767 electrons
N(Beta)            :       15.999985714767 electrons
N(Total)           :       31.999971429535 electrons
E(XC)              :      -23.961973422836 Eh       

---------------
SCF CONVERGENCE
---------------

  Last Energy change         ...    3.1355e-10  Tolerance :   1.0000e-08
  Last MAX-Density change    ...    8.2252e-06  Tolerance :   1.0000e-07
  Last RMS-Density change    ...    8.0999e-07  Tolerance :   5.0000e-09
  Last DIIS Error            ...    2.4667e-03  Tolerance :   5.0000e-07
  Last Orbital Gradient      ...    6.2529e-06  Tolerance :   1.0000e-05
  Last Orbital Rotation      ...    6.0185e-06  Tolerance :   1.0000e-05


----------------
ORBITAL ENERGIES
----------------

  NO   OCC          E(Eh)            E(eV) 
   0   2.0000     -19.164022      -521.4796 
   1   2.0000     -19.103992      -519.8461 
   2   2.0000     -10.300925      -280.3024 
   3   2.0000     -10.177648      -276.9479 
   4   2.0000      -1.107700       -30.1421 
   5   2.0000      -1.017344       -27.6833 
   6   2.0000      -0.764103       -20.7923 
   7   2.0000      -0.610657       -16.6168 
   8   2.0000      -0.494301       -13.4506 
   9   2.0000      -0.480329       -13.0704 
  10   2.0000      -0.471709       -12.8359 
  11   2.0000      -0.413754       -11.2588 
  12   2.0000      -0.398638       -10.8475 
  13   2.0000      -0.395003       -10.7486 
  14   2.0000      -0.325185        -8.8487 
  15   2.0000      -0.281051        -7.6478 
  16   0.0000      -0.000793        -0.0216 
  17   0.0000       0.035451         0.9647 
  18   0.0000       0.064030         1.7424 
  19   0.0000       0.110285         3.0010 
  20   0.0000       0.117388         3.1943 
  21   0.0000       0.165011         4.4902 
  22   0.0000       0.202447         5.5089 
  23   0.0000       0.244108         6.6425 
  24   0.0000       0.260751         7.0954 
  25   0.0000       0.277777         7.5587 
  26   0.0000       0.324052         8.8179 
*Only the first 10 virtual orbitals were printed.

                    ********************************
                    * MULLIKEN POPULATION ANALYSIS *
                    ********************************

-----------------------
MULLIKEN ATOMIC CHARGES
-----------------------
   0 C :    0.285523
   1 C :   -0.303996
   2 O :   -0.313778
   3 O :   -0.267216
   4 H :    0.221030
   5 H :    0.129704
   6 H :    0.124366
   7 H :    0.124366
Sum of atomic charges:    0.0000000

--------------------------------
MULLIKEN REDUCED ORBITAL CHARGES
--------------------------------
  0 C s       :     3.087614  s :     3.087614
      pz      :     0.753704  p :     2.355530
      px      :     0.782923
      py      :     0.818904
      dz2     :     0.012783  d :     0.249745
      dxz     :     0.032090
      dyz     :     0.056239
      dx2y2   :     0.057065
      dxy     :     0.091567
      f0      :     0.002845  f :     0.021588
      f+1     :     0.001115
      f-1     :     0.001130
      f+2     :     0.002893
      f-2     :     0.001556
      f+3     :     0.007540
      f-3     :     0.004508

  1 C s       :     3.236748  s :     3.236748
      pz      :     1.041445  p :     3.019821
      px      :     0.981063
      py      :     0.997313
      dz2     :     0.007883  d :     0.044082
      dxz     :     0.003478
      dyz     :     0.013870
      dx2y2   :     0.006015
      dxy     :     0.012836
      f0      :     0.000174  f :     0.003344
      f+1     :     0.000376
      f-1     :     0.000794
      f+2     :     0.000063
      f-2     :     0.000266
      f+3     :     0.000665
      f-3     :     0.001006

  2 O s       :     3.732301  s :     3.732301
      pz      :     1.393965  p :     4.545865
      px      :     1.772846
      py      :     1.379054
      dz2     :     0.003325  d :     0.033369
      dxz     :     0.000306
      dyz     :     0.010841
      dx2y2   :     0.010820
      dxy     :     0.008078
      f0      :     0.000196  f :     0.002243
      f+1     :     0.000032
      f-1     :     0.000298
      f+2     :     0.000435
      f-2     :     0.000043
      f+3     :     0.000598
      f-3     :     0.000640

  3 O s       :     3.720080  s :     3.720080
      pz      :     1.748336  p :     4.517910
      px      :     1.228046
      py      :     1.541528
      dz2     :     0.004024  d :     0.027743
      dxz     :     0.003060
      dyz     :     0.002756
      dx2y2   :     0.005947
      dxy     :     0.011956
      f0      :     0.000205  f :     0.001483
      f+1     :     0.000367
      f-1     :     0.000182
      f+2     :     0.000066
      f-2     :     0.000075
      f+3     :     0.000274
      f-3     :     0.000314

  4 H s       :     0.696700  s :     0.696700
      pz      :     0.028786  p :     0.075216
      px      :     0.020664
      py      :     0.025766
      dz2     :     0.000547  d :     0.007054
      dxz     :     0.001145
      dyz     :     0.001663
      dx2y2   :     0.001856
      dxy     :     0.001844

  5 H s       :     0.838976  s :     0.838976
      pz      :     0.010290  p :     0.029049
      px      :     0.009134
      py      :     0.009624
      dz2     :     0.000083  d :     0.002272
      dxz     :     0.000644
      dyz     :     0.000220
      dx2y2   :     0.000760
      dxy     :     0.000565

  6 H s       :     0.840538  s :     0.840538
      pz      :     0.009929  p :     0.032836
      px      :     0.010771
      py      :     0.012136
      dz2     :     0.000678  d :     0.002261
      dxz     :     0.000539
      dyz     :     0.000395
      dx2y2   :     0.000252
      dxy     :     0.000397

  7 H s       :     0.840538  s :     0.840538
      pz      :     0.009929  p :     0.032836
      px      :     0.010771
      py      :     0.012136
      dz2     :     0.000678  d :     0.002261
      dxz     :     0.000539
      dyz     :     0.000395
      dx2y2   :     0.000252
      dxy     :     0.000397



                     *******************************
                     * LOEWDIN POPULATION ANALYSIS *
                     *******************************

----------------------
LOEWDIN ATOMIC CHARGES
----------------------
   0 C :   -0.490821
   1 C :    0.100693
   2 O :    0.153002
   3 O :    0.415723
   4 H :   -0.146721
   5 H :   -0.012310
   6 H :   -0.009783
   7 H :   -0.009783

-------------------------------
LOEWDIN REDUCED ORBITAL CHARGES
-------------------------------
  0 C s       :     2.765736  s :     2.765736
      pz      :     0.728308  p :     2.630275
      px      :     0.883305
      py      :     1.018663
      dz2     :     0.062697  d :     0.944363
      dxz     :     0.107439
      dyz     :     0.165395
      dx2y2   :     0.252133
      dxy     :     0.356698
      f0      :     0.008631  f :     0.150446
      f+1     :     0.007204
      f-1     :     0.011368
      f+2     :     0.023608
      f-2     :     0.011077
      f+3     :     0.056092
      f-3     :     0.032466

  1 C s       :     2.671083  s :     2.671083
      pz      :     0.993961  p :     2.938438
      px      :     0.970409
      py      :     0.974068
      dz2     :     0.047661  d :     0.260881
      dxz     :     0.015409
      dyz     :     0.070004
      dx2y2   :     0.051952
      dxy     :     0.075854
      f0      :     0.001462  f :     0.028904
      f+1     :     0.004513
      f-1     :     0.005375
      f+2     :     0.003666
      f-2     :     0.002436
      f+3     :     0.004819
      f-3     :     0.006633

  2 O s       :     3.386845  s :     3.386845
      pz      :     1.303890  p :     4.389407
      px      :     1.611274
      py      :     1.474243
      dz2     :     0.008176  d :     0.065420
      dxz     :     0.000449
      dyz     :     0.013016
      dx2y2   :     0.025293
      dxy     :     0.018486
      f0      :     0.000393  f :     0.005326
      f+1     :     0.000131
      f-1     :     0.000753
      f+2     :     0.000648
      f-2     :     0.000112
      f+3     :     0.001709
      f-3     :     0.001580

  3 O s       :     3.205683  s :     3.205683
      pz      :     1.565885  p :     4.303061
      px      :     1.236206
      py      :     1.500969
      dz2     :     0.009356  d :     0.070444
      dxz     :     0.007970
      dyz     :     0.002438
      dx2y2   :     0.018431
      dxy     :     0.032249
      f0      :     0.000341  f :     0.005089
      f+1     :     0.000576
      f-1     :     0.000246
      f+2     :     0.000146
      f-2     :     0.000487
      f+3     :     0.001638
      f-3     :     0.001656

  4 H s       :     0.715918  s :     0.715918
      pz      :     0.093290  p :     0.335456
      px      :     0.095942
      py      :     0.146225
      dz2     :     0.008296  d :     0.095347
      dxz     :     0.013670
      dyz     :     0.018485
      dx2y2   :     0.029333
      dxy     :     0.025563

  5 H s       :     0.828976  s :     0.828976
      pz      :     0.041453  p :     0.153788
      px      :     0.067303
      py      :     0.045032
      dz2     :     0.002510  d :     0.029546
      dxz     :     0.007405
      dyz     :     0.002319
      dx2y2   :     0.009017
      dxy     :     0.008295

  6 H s       :     0.822661  s :     0.822661
      pz      :     0.062561  p :     0.157774
      px      :     0.040812
      py      :     0.054401
      dz2     :     0.009162  d :     0.029348
      dxz     :     0.005661
      dyz     :     0.007823
      dx2y2   :     0.002949
      dxy     :     0.003753

  7 H s       :     0.822661  s :     0.822661
      pz      :     0.062561  p :     0.157774
      px      :     0.040812
      py      :     0.054401
      dz2     :     0.009162  d :     0.029348
      dxz     :     0.005661
      dyz     :     0.007823
      dx2y2   :     0.002949
      dxy     :     0.003753



                      *****************************
                      * MAYER POPULATION ANALYSIS *
                      *****************************

  NA   - Mulliken gross atomic population
  ZA   - Total nuclear charge
  QA   - Mulliken gross atomic charge
  VA   - Mayer's total valence
  BVA  - Mayer's bonded valence
  FA   - Mayer's free valence

  ATOM       NA         ZA         QA         VA         BVA        FA
  0 C      5.7145     6.0000     0.2855     4.3470     4.3470     0.0000
  1 C      6.3040     6.0000    -0.3040     3.8151     3.8151     0.0000
  2 O      8.3138     8.0000    -0.3138     2.2640     2.2640    -0.0000
  3 O      8.2672     8.0000    -0.2672     2.2456     2.2456    -0.0000
  4 H      0.7790     1.0000     0.2210     1.0436     1.0436    -0.0000
  5 H      0.8703     1.0000     0.1297     0.9975     0.9975     0.0000
  6 H      0.8756     1.0000     0.1244     0.9971     0.9971     0.0000
  7 H      0.8756     1.0000     0.1244     0.9971     0.9971     0.0000

  Mayer bond orders larger than 0.100000
B(  0-C ,  1-C ) :   0.9455 B(  0-C ,  2-O ) :   2.1264 B(  0-C ,  3-O ) :   1.2258 
B(  1-C ,  5-H ) :   0.9665 B(  1-C ,  6-H ) :   0.9499 B(  1-C ,  7-H ) :   0.9499 
B(  3-O ,  4-H ) :   0.9611 

-------
TIMINGS
-------

Total SCF time: 0 days 0 hours 0 min 4 sec 

Total time                  ....       4.294 sec
Sum of individual times     ....       4.014 sec  ( 93.5%)

SCF preparation             ....       0.070 sec  (  1.6%)
Fock matrix formation       ....       3.689 sec  ( 85.9%)
  Startup                   ....       0.009 sec  (  0.2% of F)
  Coulomb+Exchange Fock     ....       3.114 sec  ( 84.4% of F)
  XC integration            ....       0.503 sec  ( 13.6% of F)
    Basis function eval.    ....       0.093 sec  ( 18.5% of XC)
    Density eval.           ....       0.058 sec  ( 11.6% of XC)
    XC-Functional eval.     ....       0.036 sec  (  7.1% of XC)
    XC-Potential eval.      ....       0.114 sec  ( 22.8% of XC)
Diagonalization             ....       0.000 sec  (  0.0%)
Density matrix formation    ....       0.049 sec  (  1.1%)
Total Energy calculation    ....       0.015 sec  (  0.3%)
Population analysis         ....       0.011 sec  (  0.3%)
Orbital Transformation      ....       0.015 sec  (  0.4%)
Orbital Orthonormalization  ....       0.000 sec  (  0.0%)
DIIS solution               ....       0.101 sec  (  2.3%)
SOSCF solution              ....       0.065 sec  (  1.5%)
Finished LeanSCF after   4.3 sec

Maximum memory used throughout the entire LEANSCF-calculation: 14.3 MB


           ************************************************************
           *        Program running with 8 parallel MPI-processes     *
           *              working on a common directory               *
           ************************************************************

------------------------------------------------------------------------------
                         ORCA PROPERTY INTEGRAL CALCULATIONS
------------------------------------------------------------------------------

GBWName                                   ... /cluster/projects/nn14654k/ylvaos/basis_set_n_funcs/functionals/hyb_gga_xc_b97/CH3COOH/inp/CH3COOH_hyb_gga_xc_b97_ccpvtz.gbw
Number of atoms                           ...      8
Number of basis functions                 ...    200
Max core memory                           ...   4096 MB

Dipole integrals                          ... YES
Quadrupole integrals                      ... YES
Linear momentum integrals                 ...  NO
Angular momentum integrals                ...  NO
Higher moments length integrals           ...  NO
Higher moments velocity integrals         ...  NO
Kinetic energy integrals                  ...  NO
GIAO right hand sides                     ...  NO
GIAO dipole derivative integrals          ...  NO
SOC integrals                             ...  NO
EPR diamagnetic integrals (GIAO)          ...  NO
EPR gauge integrals                       ...  NO
Field gradient integrals                  ...  NO (   0 nuclei)
Spin-dipole/Fermi contact integrals       ...  NO (   0 nuclei)
Contact density integrals                 ...  NO (   0 nuclei)
Nucleus-orbit integrals                   ...  NO (   0 nuclei)
Geometric perturbations                   ...  NO (   8 nuclei)

Choice of electric origin   ... Center of mass
Position of electric origin ... ( -0.0657,  0.0975,  0.0000) 
Choice of magnetic origin   ... GIAO
Position of magnetic origin ... (  0.0000,  0.0000,  0.0000) 

Calculating integrals                     ... Electric Dipole (Length)     done (  0.0 sec)
Calculating integrals                     ... Electric Quadrupole (Length) done (  0.0 sec)

Property integrals calculated in   0.0 sec

Maximum memory used throughout the entire PROPINT-calculation: 10.8 MB
------------------------------------------------------------------------------
                           ORCA ORBITAL LOCALIZATION
------------------------------------------------------------------------------

Input orbitals are from                  ... /cluster/projects/nn14654k/ylvaos/basis_set_n_funcs/functionals/hyb_gga_xc_b97/CH3COOH/inp/CH3COOH_hyb_gga_xc_b97_ccpvtz.gbw
Output orbitals are to                   ... /cluster/projects/nn14654k/ylvaos/basis_set_n_funcs/functionals/hyb_gga_xc_b97/CH3COOH/inp/CH3COOH_hyb_gga_xc_b97_ccpvtz.loc
Max. number of iterations                ... 128
Localizations seeded randomly            ... on
Convergence tolerance                    ... 1.000e-06
Threshold for strong local MOs           ... 9.500e-01
Threshold for bond MOs                   ... 8.500e-01
Operator                                 ... 0
Orbital range for localization           ... 4 to 15
Localization criterion                   ... NEW-BOYS
Doing the dipole integrals               ... o.k.
Initial value of the localization sum :    59.390638
ITERATION   0 : L=   78.6038880562 DL=  1.92e+01 (AVERGE_DL)=    0.5395459666 
ITERATION   1 : L=   81.1061886634 DL=  2.50e+00 (AVERGE_DL)=    0.1947142665 
ITERATION   2 : L=   81.2400114783 DL=  1.34e-01 (AVERGE_DL)=    0.0450290840 
ITERATION   3 : L=   81.2564182341 DL=  1.64e-02 (AVERGE_DL)=    0.0157666487 
ITERATION   4 : L=   81.2599364535 DL=  3.52e-03 (AVERGE_DL)=    0.0073011200 
ITERATION   5 : L=   81.2606787651 DL=  7.42e-04 (AVERGE_DL)=    0.0033536764 
ITERATION   6 : L=   81.2609206015 DL=  2.42e-04 (AVERGE_DL)=    0.0019142068 
ITERATION   7 : L=   81.2610788506 DL=  1.58e-04 (AVERGE_DL)=    0.0015484554 
ITERATION   8 : L=   81.2612201282 DL=  1.41e-04 (AVERGE_DL)=    0.0014630685 
ITERATION   9 : L=   81.2613522008 DL=  1.32e-04 (AVERGE_DL)=    0.0014146024 
ITERATION  10 : L=   81.2614742434 DL=  1.22e-04 (AVERGE_DL)=    0.0013598275 
ITERATION  11 : L=   81.2615847628 DL=  1.11e-04 (AVERGE_DL)=    0.0012940386 
ITERATION  12 : L=   81.2616827998 DL=  9.80e-05 (AVERGE_DL)=    0.0012187737 
ITERATION  13 : L=   81.2617680682 DL=  8.53e-05 (AVERGE_DL)=    0.0011366380 
ITERATION  14 : L=   81.2618408790 DL=  7.28e-05 (AVERGE_DL)=    0.0010503299 
ITERATION  15 : L=   81.2619020074 DL=  6.11e-05 (AVERGE_DL)=    0.0009623867 
ITERATION  16 : L=   81.2619525393 DL=  5.05e-05 (AVERGE_DL)=    0.0008750061 
ITERATION  17 : L=   81.2619937318 DL=  4.12e-05 (AVERGE_DL)=    0.0007900174 
ITERATION  18 : L=   81.2620268931 DL=  3.32e-05 (AVERGE_DL)=    0.0007088336 
ITERATION  19 : L=   81.2620532924 DL=  2.64e-05 (AVERGE_DL)=    0.0006324472 
ITERATION  20 : L=   81.2620741017 DL=  2.08e-05 (AVERGE_DL)=    0.0005615083 
ITERATION  21 : L=   81.2620903625 DL=  1.63e-05 (AVERGE_DL)=    0.0004963635 
ITERATION  22 : L=   81.2621029719 DL=  1.26e-05 (AVERGE_DL)=    0.0004370937 
ITERATION  23 : L=   81.2621126860 DL=  9.71e-06 (AVERGE_DL)=    0.0003836456 
ITERATION  24 : L=   81.2621201245 DL=  7.44e-06 (AVERGE_DL)=    0.0003357132 
ITERATION  25 : L=   81.2621257927 DL=  5.67e-06 (AVERGE_DL)=    0.0002930578 
ITERATION  26 : L=   81.2621300925 DL=  4.30e-06 (AVERGE_DL)=    0.0002552403 
ITERATION  27 : L=   81.2621333419 DL=  3.25e-06 (AVERGE_DL)=    0.0002218862 
ITERATION  28 : L=   81.2621357897 DL=  2.45e-06 (AVERGE_DL)=    0.0001925821 
ITERATION  29 : L=   81.2621376281 DL=  1.84e-06 (AVERGE_DL)=    0.0001668975 
ITERATION  30 : L=   81.2621390055 DL=  1.38e-06 (AVERGE_DL)=    0.0001444616 
ITERATION  31 : L=   81.2621400350 DL=  1.03e-06 (AVERGE_DL)=    0.0001248989 
ITERATION  32 : L=   81.2621408031 DL=  7.68e-07 (AVERGE_DL)=    0.0001078792 
LOCALIZATION SUM CONVERGED


--------------------------------------------------------------------------------
                    LOCALIZED MOLECULAR ORBITAL COMPOSITIONS
--------------------------------------------------------------------------------

The Mulliken populations for each LMO on each atom are computed
The LMO`s will be ordered according to atom index and type
  (A) Strongly localized MO`s have populations of >=0.950 on one atom
  (B) Two center bond orbitals have populations of >=0.850 on two atoms
  (C) Other MO`s are considered to be `delocalized`

FOUND  -   1 strongly local MO`s
       -  11 two center bond MO`s
       -   0 significantly delocalized MO`s

Rather strongly localized orbitals:
MO   4:   3O  -   0.953753
Bond-like localized orbitals:
MO  15:   7H  -   0.448104  and   1C  -   0.551295
MO  14:   6H  -   0.448095  and   1C  -   0.551309
MO  13:   5H  -   0.444175  and   1C  -   0.573926
MO  12:   4H  -   0.371417  and   3O  -   0.635372
MO  11:   3O  -   0.676765  and   0C  -   0.348662
MO  10:   3O  -   0.898167  and   0C  -   0.093875
MO   9:   2O  -   0.658823  and   0C  -   0.353053
MO   8:   2O  -   0.924230  and   0C  -   0.071033
MO   7:   2O  -   0.659138  and   0C  -   0.352557
MO   6:   2O  -   0.930297  and   0C  -   0.074155
MO   5:   1C  -   0.502200  and   0C  -   0.522563
Localized MO's were stored in: /cluster/projects/nn14654k/ylvaos/basis_set_n_funcs/functionals/hyb_gga_xc_b97/CH3COOH/inp/CH3COOH_hyb_gga_xc_b97_ccpvtz.loc

-------------------------   --------------------
FINAL SINGLE POINT ENERGY      -229.098418231226
-------------------------   --------------------



           ************************************************************
           *        Program running with 8 parallel MPI-processes     *
           *              working on a common directory               *
           ************************************************************

------------------------------------------------------------------------------
                              ORCA PROPERTY CALCULATIONS
------------------------------------------------------------------------------

GBWName                                 ... /cluster/projects/nn14654k/ylvaos/basis_set_n_funcs/functionals/hyb_gga_xc_b97/CH3COOH/inp/CH3COOH_hyb_gga_xc_b97_ccpvtz.gbw
Number of atoms                         ...      8
Number of basis functions               ...    200
Max core memory                         ...   4096 MB

Electric properties:
Dipole moment                           ... YES
Quadrupole moment                       ... YES
Static polarizability (Dipole/Dipole)   ...  NO
Static polarizability (Dipole/Quad.)    ...  NO
Static polarizability (Quad./Quad.)     ...  NO
Static polarizability (Velocity)        ...  NO
Static hyperpolarizability              ...  NO

Atomic electric properties:
Dipole moment                           ...  NO
Quadrupole moment                       ...  NO
Static polarizability                   ...  NO

Choice of electric origin               ... Center of mass
Position of electric origin             ...    -0.065707     0.097461     0.000000

General magnetic properties:
Magnetizability                         ...  NO

EPR properties:
g-Tensor (aka g-matrix)                 ...  NO
Zero-Field splitting spin-orbit         ...  NO
Zero-field splitting spin-spin          ...  NO
Hyperfine couplings                     ...  NO (   0 nuclei)
Quadrupole couplings                    ...  NO (   0 nuclei)
Contact density                         ...  NO (   0 nuclei)

NMR properties:
Chemical shifts                         ...  NO (   0 nuclei)
Spin-rotation constants                 ...  NO (   0 nuclei)
Spin-spin couplings                     ...  NO (   0 nuclei,    0 pairs)

Choice of magnetic origin               ... GIAO
Position of magnetic origin             ...     0.000000     0.000000     0.000000

Properties with geometric perturbations:
SCF Hessian                             ...  NO
IR spectrum                             ...  NO
VCD spectrum                            ...  NO
X-ray spectroscopy properties:
SCF XES/XAS/RIXS spectra                ...  NO

SCF SOC stabilization energy            ...  NO
Diagonal Born-Oppenheimer correction    ...  NO

-------------
DIPOLE MOMENT
-------------

Method             : SCF
Type of density    : Electron Density
Multiplicity       :   1
Irrep              :   0
Energy             :  -229.0984182312260486 Eh
Basis              : AO
                                X                 Y                 Z
Electronic contribution:     -2.226506565       2.446771337       0.000000002
Nuclear contribution   :      2.102617427      -3.118765285       0.000000000
                        -----------------------------------------
Total Dipole Moment    :     -0.123889138      -0.671993948       0.000000002
                        -----------------------------------------
Magnitude (a.u.)       :      0.683318655
Magnitude (Debye)      :      1.736857991



--------------------
Rotational spectrum 
--------------------
 
Rotational constants in cm-1:             0.373252             0.316126             0.176788 
Rotational constants in MHz :         11189.819630          9477.229268          5299.974115 

Dipole components along the rotational axes: 
x,y,z [a.u.] :    -0.342314    -0.591393     0.000000 
x,y,z [Debye]:    -0.870094    -1.503200     0.000000 

 

Dipole moment calculation done in   0.0 sec 

-----------------
QUADRUPOLE MOMENT
-----------------

Method             : SCF
Type of density    : Electron Density
Multiplicity       :   1
Irrep              :   0
Energy             :  -229.0984182312260486 Eh
Basis              : AO

                XX              YY              ZZ              XY              XZ              YZ
  NUC      103.447904006    93.335807526     5.552847104   -15.402641721     0.000000000     0.000000000
  EL      -118.345515785  -113.436946569   -22.679130172    12.753984184    -0.000000003     0.000000001
  TOT      -14.897611779   -20.101139043   -17.126283068    -2.648657537    -0.000000003     0.000000001 (a.u.)
           -20.037797341   -27.036719472   -23.035436445    -3.562534971    -0.000000004     0.000000001 (Buckingham)

diagonalized tensor:
           -21.212131900   -17.126283068   -13.786618922 (a.u.)
           -28.531042860   -23.035436445   -18.543473953 (Buckingham)
           -15.483175323     1.003643924    14.479531399 (traceless form in Buckingham)

            -0.386805288     0.000000001    -0.922161412
            -0.922161412    -0.000000000     0.386805288
            -0.000000000     1.000000000     0.000000001
        
Isotropic quadrupole :   -17.375011297

Quadrupole moment calculation done in   0.0 sec (  0.0 sec for integrals)

Maximum memory used throughout the entire PROP-calculation: 7.4 MB

--------------------------------
SUGGESTED CITATIONS FOR THIS RUN
--------------------------------

Below you find a list of papers that are relevant to this ORCA run
We neither can nor want to force you to cite these papers, but we appreciate if you do
You receive ORCA, which is the product of decades of hard work by many enthusiastic individuals, for free
The only thing we kindly ask in return is that you cite our papers,
We deeply appreciate it, if you show your appreciation for ORCA by not just citing the generic ORCA reference.

Please note that relegating all ORCA citations to the supporting information does *not* help us.
SI sections are not indexed - citations you put there will not count into any citation statistics
But we need these citations in order to attract the funding resources that allow us to do what we are doing

Therefore, if you are a happy ORCA user, please consider citing a few of the papers listed below in the main body of your paper

In addition to the list printed below, the program has created the file /cluster/projects/nn14654k/ylvaos/basis_set_n_funcs/functionals/hyb_gga_xc_b97/CH3COOH/inp/CH3COOH_hyb_gga_xc_b97_ccpvtz.bibtex that contains the list in bibtex format
You can import this file easily into all common literature databanks and citation aid programs

It goes without saying that in many instances, there are alternative algorithms to achieve similar
results as the ones you have gotten from ORCA. It is, of course, also the case that in some instances
ORCA just re-implements algorithms worked out by others. We are fully aware of that and we are also
fully appreciative of our colleagues work. Hence this citation list should not be read as indicating
that the listed papers, which are focused on our own work, are the only ones worth citing. It simply
meant to make it easier for users to cite ORCA specific papers. It is not a substitute for doing your
own literature research and citing the relevant literature in a scientifically appropriate manner.

List of essential papers. We consider these as the minimum necessary citations

  1. Neese, F.
     Software update: the ORCA program system, version 6.0
     WIRES Comput. Molec. Sci. 2025 15(1), e70019
     doi.org/10.1002/wcms.70019

List of papers to cite with high priority. The work reported in these papers was absolutely
necessary for this run to complete.
Our perspective: the developers of density functionals and basis sets usually get cited in chemistry papers
Good! But without the algorithms to do something with them, the functionals or basis sets would not do anything.
Hence, in our opinion, the algorithm design and method developments papers are equally worthy of getting cited

  1. Lehtola, S.; Steigemann, C.; Oliveira, M.; Marques, M.
     Recent developments in Libxc - A comprehensive library of functionals for density functional theory
     Software X 2018 7 , 
     doi.org/10.1016/j.softx.2017.11.002
  2. Neese, F.
     The SHARK Integral Generation and Digestion System
     J. Comp. Chem. 2022 44(3), 381
     doi.org/10.1002/jcc.26942

List of suggested additional citations. These are papers that are important in the 'surrounding' of 
of this run, or papers that preceded the highly important papers. If you like your results we are grateful for a citation.

  1. Neese, F.
     The ORCA program system
     WIRES Comput. Molec. Sci. 2012 2(1), 73-78
     doi.org/10.1002/wcms.81
  2. Neese, F.
     Software update: the ORCA program system, version 4.0
     WIRES Comput. Molec. Sci. 2018 8(1), 1-6
     doi.org/10.1002/wcms.1327
  3. Neese, F.; Wennmohs, F.; Becker, U.; Riplinger, C.
     The ORCA quantum chemistry program package
     J. Chem. Phys. 2020 152(22), 224108
     doi.org/10.1063/5.0004608
  4. Neese, F.
     Software update: The ORCA program system—Version 5.0
     WIRES Comput. Molec. Sci. 2022 12(1), e1606
     doi.org/10.1002/wcms.1606

List of optional additional citations

  1. Neese, F.
     Approximate second-order SCF convergence for spin unrestricted wavefunctions
     Chem. Phys. Lett. 2000 325(1-3), 93-98
     doi.org/10.1016/s0009-2614(00)00662-x

Timings for individual modules:

Sum of individual times          ...        6.248 sec (=   0.104 min)
Startup calculation              ...        0.829 sec (=   0.014 min)  13.3 %
SCF iterations                   ...        4.878 sec (=   0.081 min)  78.1 %
Property integrals               ...        0.249 sec (=   0.004 min)   4.0 %
Property calculations            ...        0.286 sec (=   0.005 min)   4.6 %
Orbital localization             ...        0.006 sec (=   0.000 min)   0.1 %
                             ****ORCA TERMINATED NORMALLY****
TOTAL RUN TIME: 0 days 0 hours 0 minutes 7 seconds 81 msec
