
                                 *****************
                                 * O   R   C   A *
                                 *****************

                                            #,                                       
                                            ###                                      
                                            ####                                     
                                            #####                                    
                                            ######                                   
                                           ########,                                 
                                     ,,################,,,,,                         
                               ,,#################################,,                 
                          ,,##########################################,,             
                       ,#########################################, ''#####,          
                    ,#############################################,,   '####,        
                  ,##################################################,,,,####,       
                ,###########''''           ''''###############################       
              ,#####''   ,,,,##########,,,,          '''####'''          '####       
            ,##' ,,,,###########################,,,                        '##       
           ' ,,###''''                  '''############,,,                           
         ,,##''                                '''############,,,,        ,,,,,,###''
      ,#''                                            '''#######################'''  
     '                                                          ''''####''''         
             ,#######,   #######,   ,#######,      ##                                
            ,#'     '#,  ##    ##  ,#'     '#,    #''#        ,####,    ,#,          
            ##       ##  ##   ,#'  ##            #'  '#       #'       ,# #          
            ##       ##  #######   ##           ,######,      #####,      #          
            '#,     ,#'  ##    ##  '#,     ,#' ,#      #,     #,   #      #          
             '#######'   ##     ##  '#######'  #'      '#     '####' #    #          



                #########################################################
                #                        -***-                          #
                #          Department of theory and spectroscopy        #
                #                                                       #
                #                      Frank Neese                      #
                #                                                       #
                #     Directorship, Architecture, Infrastructure        #
                #                    SHARK, DRIVERS                     #
                #        Core code/Algorithms in most modules           #
                #                                                       #
                #        Max Planck Institute fuer Kohlenforschung      #
                #                Kaiser Wilhelm Platz 1                 #
                #                 D-45470 Muelheim/Ruhr                 #
                #                      Germany                          #
                #                                                       #
                #                  All rights reserved                  #
                #                        -***-                          #
                #########################################################


                         Program Version 6.1.1  -  RELEASE   -
                                (GIT: $487d211c$)
                          ($2025-11-21 10:33:24 +0100$)


 With contributions from (in alphabetic order):
[Max-Planck-Institut fuer Kohlenforschung]                               
  Daniel Aravena         : Magnetic Suceptibility                        
  Michael Atanasov       : Ab Initio Ligand Field Theory (pilot matlab implementation)
  Alexander A. Auer      : GIAO ZORA, VPT2 properties, NMR spectrum      
  Ute Becker             : All parallelization in ORCA, NUMFREQ, NUMCALC 
  Giovanni Bistoni       : ED, misc. LED, open-shell LED, HFLD           
  Dmytro Bykov           : pre 5.0 version of the SCF Hessian            
  Marcos Casanova-Páez   : Triplet and SCS-CIS(D). UHF-(DLPNO)-IP/EA/STEOM-CCSD. UHF-CVS-IP/STEOM-CCSD   
  Vijay G. Chilkuri      : MRCI spin determinant printing, contributions to CSF-ICE 
  Pauline Colinet        : FMM embedding                                 
  Dipayan Datta          : RHF DLPNO-CCSD density                        
  Achintya Kumar Dutta   : EOM-CC, STEOM-CC                              
  Nicolas Foglia         : Exact transition moments, OPA infrastructure, MCD improvements    
  Dmitry Ganyushin       : Spin-Orbit,Spin-Spin,Magnetic field MRCI      
  Miquel Garcia-Rates    : C-PCM and meta-GGA Hessian, CCSD/C-PCM, Gaussian charge scheme 
  Tiago L. C. Gouveia    : GS-ROHF, GS-ROCIS                             
  Yang Guo               : DLPNO-NEVPT2, F12-NEVPT2, CIM, IAO-localization        
  Andreas Hansen         : Spin unrestricted coupled pair/coupled cluster methods 
  Ingolf Harden          : AUTO-CI MPn and infrastructure                
  Benjamin Helmich-Paris : MC-RPA, TRAH-(SCF,CASSCF), AVAS, COSX integrals, SCF dyn. polar., MC-PDFT, srDFT 
  Lee Huntington         : MR-EOM, pCC                                   
  Robert Izsak           : Overlap fitted RIJCOSX, COSX-SCS-MP3, EOM     
  Riya Kayal             : Wick's Theorem for AUTO-CI, AUTO-CI UHF-CCSDT 
  Emily Kempfer          : AUTO-CI RHF CISDT and CCSDT, approximate NEVPT4
  Christian Kollmar      : KDIIS, OOCD, Brueckner-CCSD(T), CCSD density, CASPT2, CASPT2-K, improved NEVPT2 
  Axel Koslowski         : Symmetry handling                             
  Simone Kossmann        : meta-GGA functionals, TD-DFT gradient, OOMP2, (MP2 Hessian; deprecated post 5.0) 
  Lucas Lang             : DCDCAS, Hyperfine gauge corrections, ICE-SOC+SSC
  Marvin Lechner         : AUTO-CI (C++ implementation), FIC-MRCC        
  Spencer Leger          : CASSCF response                               
  Dagmar Lenk            : GEPOL surface, SMD, ORCA-2-JSON               
  Dimitrios Liakos       : Extrapolation schemes; Compound Job, Property file
  Dimitrios Manganas     : Further ROCIS development; embedding schemes. LFT, Crystal Embedding 
  Dimitrios Pantazis     : SARC Basis sets                               
  Anastasios Papadopoulos: AUTO-CI, single reference methods and gradients 
  Taras Petrenko         : pre 6.0 DFT Hessian and TD-DFT gradient,  ECA, NRVS 
  Petra Pikulova         : Analytic Raman intensities                    
  Peter Pinski           : DLPNO-MP2, DLPNO-MP2 Gradient                 
  Shashank Vittal Rao    : ES-AILFT, MagRelax                            
  Christoph Reimann      : Effective Core Potentials                     
  Marius Retegan         : Local ZFS, SOC                                
  Christoph Riplinger    : Optimizer, TS searches, QM/MM, DLPNO-CCSD(T), (RO)-DLPNO pert. Triples 
  Michael Roemelt        : Original ROCIS implementation, recursive CI coupling coefficients
  Masaaki Saitow         : Open-shell DLPNO-CCSD energy and density      
  Barbara Sandhoefer     : DKH picture change effects                    
  Yorick L. A. Schmerwitz: GMF and freeze-and-release deltaSCF, NEB S-IDPP initial path                    
  Kantharuban Sivalingam : CASSCF convergence/infrastructure, NEVPT2, NEVPT3, NEVPT4(SD), FIC-MRCI and CEPA variants
  Bernardo de Souza      : ESD, SOC TD-DFT                               
  Georgi L. Stoychev     : AutoAux, RI-MP2 NMR, DLPNO-MP2 response, X2C  
  Van Anh Tran           : RI-MP2 g-tensors                              
  Willem Van den Heuvel  : Paramagnetic NMR                              
  Zikuan Wang            : NOTCH, Electric field optimization            
  Frank Wennmohs         : Technical directorship and infrastructure     
  Hang Xu                : AUTO-CI-Response properties                   
                                                                         
[FACCTs GmbH]                                                            
  Markus Bursch, Nicolas Foglia, Miquel Garcia-Rates, Ingolf Harden, Hagen Neugebauer, Anastasios Papadopoulos, 
  Christoph Riplinger, Bernardo de Souza, Georgi L. Stoychev                                                    
                                                                 
  APM, various basis sets, CI-OPT, improved COSX, DLPNO-Multilevel,           
  DOCKER, DRACO, updates on ESD, Fragmentator, GOAT, IRC, LR-CPCM, L-BFGS, MBIS, meta-GGA TD-DFT gradient, ML-optimized integration grids, 
  MM, NACMEs, nearIR, NEB, NEB-TS, NL-DFT gradient (VV10), 2- and 3-layer-ONIOM, interface openCOSMO-RS, QMMM,   
  Crystal-QMMM, RESP, rigid body optimization, SF, symmetry and pop. for TD-DFT, various functionals, SOLVATOR                                   
                                                                         
[Other institutions]                                                     
  V. Asgeirsson          : NEB                                           
  Christoph Bannwarth    : sTDA-DFT, sTD-DFT, PBEh-3c, B97-3c, D3        
  Giovanni Bistoni       : ETS/NOCV, ADLD/ADEX, COVALED                  
  Martin Brehm           : Molecular dynamics                            
  Ronald Cardenas        : ETS/NOCV                                      
  Martina Colucci        : COVALED                                       
  Sebastian Ehlert       : rSCAN, r2SCAN, r2SCAN-3c, D4, dhf basis sets  
  Marvin Friede          : D4 for Fr, Ra, Ac-Lr                          
  Lars Goerigk           : TD-DFT with DH, B97 family of functionals     
  Stefan Grimme          : VdW corrections, initial TS optimization, DFT functionals, gCP, sTDA/sTD-DF 
  Waldemar Hujo          : DFT-NL                                        
  H. Jonsson             : NEB                                           
  Holger Kruse           : gCP                                           
  Marcel Mueller         : wB97X-3c, vDZP basis set                      
  Hagen Neugebauer       : wr2SCAN, Native XTB                           
  Gianluca Regni         : ADLD/ADEX                                     
  Tobias Risthaus        : pre 6.0 range-separated hybrid DFT and stability analysis
  Lukas Wittmann         : regularized MP2, r2SCAN double-hybrids, wr2SCAN        
                                                                         
We gratefully acknowledge several colleagues who have allowed us to      
interface, adapt or use parts of their codes:                            
  Ed Valeev, F. Pavosevic, A. Kumar             : LibInt (2-el integral package), F12 methods 
  Garnet Chan, S. Sharma, J. Yang, R. Olivares  : DMRG                   
  Ulf Ekstrom                                   : XCFun DFT Library      
  Mihaly Kallay                                 : mrcc  (arbitrary order and MRCC methods)
  Frank Weinhold                                : gennbo (NPA and NBO analysis)           
  Simon Mueller                                 : openCOSMO-RS                            
  Christopher J. Cramer and Donald G. Truhlar   : smd solvation model                     
  S Lehtola, MJT Oliveira, MAL Marques          : LibXC Library                           
  Liviu Ungur et al                             : ANISO software                          


 Your calculation uses the libint2 library for the computation of 2-el integrals
 For citations please refer to: http://libint.valeyev.net

 Your ORCA version has been built with support for libXC version: 7.0.0
 For citations please refer to: https://libxc.gitlab.io

 This ORCA versions uses:
   CBLAS   interface :  Fast vector & matrix operations
   LAPACKE interface :  Fast linear algebra routines
   SCALAPACK package :  Parallel linear algebra routines
   Shared memory     :  Shared parallel matrices
   BLAS/LAPACK       :  OpenBLAS 0.3.29  USE64BITINT DYNAMIC_ARCH NO_AFFINITY Cooperlake SINGLE_THREADED
        Core in use  :  Cooperlake
   Copyright (c) 2011-2014, The OpenBLAS Project


  ***********************************
  * Starting time: Wed May 20 12:38:34 2026
  * Host name:     c1-48
  * Process ID:    1438776
  * Working dir.:  /cluster/projects/nn14654k/ylvaos/basis_set_n_funcs/functionals/gga_c_pbe/PO2/out
  ***********************************

Using LibXC functional ID 130 : Perdew, Burke & Ernzerhof
[ 1]  J. P. Perdew, K. Burke, and M. Ernzerhof.,  Phys. Rev. Lett. 77, 3865 (1996)
[ 2]  J. P. Perdew, K. Burke, and M. Ernzerhof.,  Phys. Rev. Lett. 78, 1396 (1997)
Using LibXC functional ID 130 : Perdew, Burke & Ernzerhof
[ 1]  J. P. Perdew, K. Burke, and M. Ernzerhof.,  Phys. Rev. Lett. 77, 3865 (1996)
[ 2]  J. P. Perdew, K. Burke, and M. Ernzerhof.,  Phys. Rev. Lett. 78, 1396 (1997)
Your calculation utilizes LibXC
by S. Lehtola, C. Steigemann, M. J. T. Oliveira & M. A. L. Marques
Please cite in your paper:
Lehtola, S.; Steigemann, C.; Oliveira, M.J.T.; Marques, M. A. L. Software X, 7, (2018), 1.
   

================================================================================

----- Orbital basis set information -----
Your calculation utilizes the basis: pc-4
   H, C-F              : F. Jensen, J. Chem. Phys. 115, 9113 (2001).
                         F. Jensen, J. Chem. Phys. 116, 7372 (2002).
                         F. Jensen, J. Chem. Phys. 117, 9234 (2002).
   Si-Cl               : F. Jensen, T. Helgaker, J. Chem. Phys. 121, 3463 (2004).
   He-B, Ne-Mg, Al, Ar : F. Jensen, J. Phys. Chem. A 111, 11198 (2007).
   K, Ca, Ga-Kr        : F. Jensen, J. Chem. Phys. 136, 094110 (2012).
   Sc-Zn               : F. Jensen, J. Chem. Phys. 138, 014107 (2013).

================================================================================
                                        WARNINGS
                       Please study these warnings very carefully!
================================================================================


WARNING: The basis set has functions with high angular momentum (Lmax>4).
         We might need to increase small grids for safety reasons and
         in general, DEFGRID3 is recommend for such cases.
  ===> : GRIDX1, TD-DFT and the CP-SCF AngGrids will be increased to at least 2


WARNING: your system is open-shell and RHF/RKS was chosen
  ===> : WILL SWITCH to UHF/UKS


================================================================================
                                       INPUT FILE
================================================================================
NAME = /cluster/projects/nn14654k/ylvaos/basis_set_n_funcs/functionals/gga_c_pbe/PO2/inp/PO2_gga_c_pbe_pc4.inp
|  1> ! dft pc-4 TightSCF
|  2> %pal nprocs 8 end
|  3> 
|  4> %loc
|  5>   LocMet NewBoys
|  6>   Occ true
|  7> end
|  8> 
|  9> %method
| 10>   exchange None
| 11>   correlation gga_c_pbe
| 12> end
| 13> 
| 14> %elprop
| 15>   Dipole true
| 16>   Quadrupole true
| 17> end
| 18> 
| 19> * xyz 0 2
| 20> P    0.000000000000   0.000000000000   0.287900000000
| 21> O    0.000000000000   1.356300000000  -0.269900000000
| 22> O    0.000000000000  -1.356300000000  -0.269900000000
| 23> *
| 24> 
| 25> 
| 26>                          ****END OF INPUT****
================================================================================

                       ****************************
                       * Single Point Calculation *
                       ****************************

---------------------------------
CARTESIAN COORDINATES (ANGSTROEM)
---------------------------------
  P      0.000000    0.000000    0.287900
  O      0.000000    1.356300   -0.269900
  O      0.000000   -1.356300   -0.269900

----------------------------
CARTESIAN COORDINATES (A.U.)
----------------------------
  NO LB      ZA    FRAG     MASS         X           Y           Z
   0 P    15.0000    0    30.974    0.000000    0.000000    0.544052
   1 O     8.0000    0    15.999    0.000000    2.563036   -0.510037
   2 O     8.0000    0    15.999    0.000000   -2.563036   -0.510037

--------------------------------
INTERNAL COORDINATES (ANGSTROEM)
--------------------------------
 P      0   0   0     0.000000000000     0.00000000     0.00000000
 O      1   0   0     1.466523279733     0.00000000     0.00000000
 O      1   2   0     1.466523279733   135.28860674     0.00000000

---------------------------
INTERNAL COORDINATES (A.U.)
---------------------------
 P      0   0   0     0.000000000000     0.00000000     0.00000000
 O      1   0   0     2.771327367716     0.00000000     0.00000000
 O      1   2   0     2.771327367716   135.28860674     0.00000000

---------------------
BASIS SET INFORMATION
---------------------
There are 2 groups of distinct atoms

 Group   1 Type P   : 43s26p6d3f2g1h contracted to 7s6p6d3f2g1h pattern {1512121111/11111111/111111/111/11/1}
 Group   2 Type O   : 26s11p6d3f2g1h contracted to 8s7p6d3f2g1h pattern {119111111/5111111/111111/111/11/1}

Atom   0P    basis set group =>   1
Atom   1O    basis set group =>   2
Atom   2O    basis set group =>   2


           ************************************************************
           *        Program running with 8 parallel MPI-processes     *
           *              working on a common directory               *
           ************************************************************
------------------------------------------------------------------------------
                             ORCA STARTUP CALCULATIONS
------------------------------------------------------------------------------
------------------------------------------------------------------------------
                   ___                                                        
                  /   \      - P O W E R E D   B Y -                         
                 /     \                                                     
                 |  |  |   _    _      __       _____    __    __             
                 |  |  |  | |  | |    /  \     |  _  \  |  |  /  |          
                  \  \/   | |  | |   /    \    | | | |  |  | /  /          
                 / \  \   | |__| |  /  /\  \   | |_| |  |  |/  /          
                |  |  |   |  __  | /  /__\  \  |    /   |      \           
                |  |  |   | |  | | |   __   |  |    \   |  |\   \          
                \     /   | |  | | |  |  |  |  | |\  \  |  | \   \       
                 \___/    |_|  |_| |__|  |__|  |_| \__\ |__|  \__/        
                                                                              
                      - O R C A' S   B I G   F R I E N D -                    
                                      &                                       
                       - I N T E G R A L  F E E D E R -                       
                                                                              
 v1 FN, 2020, v2 2021, v3 2022-2024                                           
------------------------------------------------------------------------------


----------------------
SHARK INTEGRAL PACKAGE
----------------------

Number of atoms                             ...      3
Number of basis functions                   ...    323
Number of shells                            ...     79
Maximum angular momentum                    ...      5
Integral batch strategy                     ... SHARK/LIBINT Hybrid
RI-J (if used) integral strategy            ... SPLIT-RIJ (Revised 2003 algorithm where possible)
Printlevel                                  ...      1
Contraction scheme used                     ... SEGMENTED contraction
Prescreening option                         ... SCHWARTZ
   Thresh                                   ... 2.500e-11
   Tcut                                     ... 2.500e-12
   Tpresel                                  ... 2.500e-12 
Coulomb Range Separation                    ... NOT USED
Exchange Range Separation                   ... NOT USED
Multipole approximations                    ... NOT USED
Finite Nucleus Model                        ... NOT USED
CABS basis                                  ... NOT available
Auxiliary Coulomb fitting basis             ... NOT available
Auxiliary J/K fitting basis                 ... NOT available
Auxiliary Correlation fitting basis         ... NOT available
Auxiliary 'external' fitting basis          ... NOT available

Checking pre-screening integrals            ... done (  0.0 sec) Dimension = 79
   => SHARK Basis and OBASIS are compatible. Storing Pre-screening
Shell pair information
Shell pair cut-off parameter TPreSel        ...   2.5e-12
Total number of shell pairs                 ...      3160
Shell pairs after pre-screening             ...      2987
Total number of primitive shell pairs       ...     16659
Primitive shell pairs kept                  ...     12306
          la=0 lb=0:    250 shell pairs
          la=1 lb=0:    434 shell pairs
          la=1 lb=1:    202 shell pairs
          la=2 lb=0:    378 shell pairs
          la=2 lb=1:    342 shell pairs
          la=2 lb=2:    157 shell pairs
          la=3 lb=0:    199 shell pairs
          la=3 lb=1:    176 shell pairs
          la=3 lb=2:    158 shell pairs
          la=3 lb=3:     45 shell pairs
          la=4 lb=0:    130 shell pairs
          la=4 lb=1:    116 shell pairs
          la=4 lb=2:    104 shell pairs
          la=4 lb=3:     54 shell pairs
          la=4 lb=4:     20 shell pairs
          la=5 lb=0:     63 shell pairs
          la=5 lb=1:     58 shell pairs
          la=5 lb=2:     50 shell pairs
          la=5 lb=3:     27 shell pairs
          la=5 lb=4:     18 shell pairs
          la=5 lb=5:      6 shell pairs

Checking whether 4 symmetric matrices of dimension 323 fit in memory
:Max Core in MB      =   4096.00
 MB in use           =     11.15
 MB left             =   4084.85
 MB needed           =      1.60
 Data fit in memory  = YES
Calculating Nuclear repulsion               ... done (  0.0 sec) ENN=     99.086296046297 Eh

Diagonalization of the overlap matrix:
Smallest eigenvalue                        ... 1.430e-05
Time for diagonalization                   ...    0.006 sec
Threshold for overlap eigenvalues          ... 1.000e-07
Number of eigenvalues below threshold      ... 0
Time for construction of square roots      ...    0.004 sec
Total time needed                          ...    0.012 sec

-------------------
DFT GRID GENERATION
-------------------

General Integration Accuracy     IntAcc      ... 4.388
Radial Grid Type                 RadialGrid  ... OptM3 with GC (2021)
Angular Grid (max. ang.)         AngularGrid ... 4 (Lebedev-302)
Angular grid pruning method      GridPruning ... 4 (adaptive)
Weight generation scheme         WeightScheme... mBecke (2022)
Basis function cutoff            BFCut       ... 1.0000e-11
Integration weight cutoff        WCut        ... 1.0000e-14
Partially contracted basis set               ... off
Rotationally invariant grid construction     ... off
Angular grids for H and He will be reduced by one unit
Diffuse basis detected: some atoms will have their outermost
                        angular grid increased by 1.
Core-polarized basis detected: some atoms will have their core
                               angular grid increased.

Total number of grid points                  ...    26050
Total number of batches                      ...      408
Average number of points per batch           ...       63
Average number of grid points per atom       ...     8683
Grids setup in   0.1 sec
Initializing property integral containers    ... done (  0.0 sec)

SHARK setup successfully completed in   0.4 seconds

Maximum memory used throughout the entire STARTUP-calculation: 100.0 MB


           ************************************************************
           *        Program running with 8 parallel MPI-processes     *
           *              working on a common directory               *
           ************************************************************
-------------------------------------------------------------------------------
                                 ORCA GUESS
                   Start orbitals & Density for SCF / CASSCF
-------------------------------------------------------------------------------

------------
SCF SETTINGS
------------
Hamiltonian:
 Density Functional     Method          .... DFT(GTOs)
 Exchange Functional    Exchange        .... no Exchange
  Functional kind                       .... Correlation
  Functional name                       .... Perdew, Burke & Ernzerhof
  Functional family                     .... GGA
  Functional refs                              
    [ 0] J. P. Perdew, K. Burke, and M. Ernzerhof.,  Phys. Rev. Lett. 77, 3865 (1996), doi: 10.1103/PhysRevLett.77.3865
    [ 1] J. P. Perdew, K. Burke, and M. Ernzerhof.,  Phys. Rev. Lett. 78, 1396 (1997), doi: 10.1103/PhysRevLett.78.1396
  Functional external parameters        .... 3
    Parameter  0 _beta      =  6.672455e-02 : beta constant       
    Parameter  1 _gamma     =  3.109069e-02 : (1 - ln(2))/Pi^2 in the PBE
    Parameter  2 _B         =  1.000000e+00 : Multiplies the A t^2 term. Used in the SPBE functional
 Gradients option       PostSCFGGA      .... off


General Settings:
 Integral files         IntName         .... /cluster/projects/nn14654k/ylvaos/basis_set_n_funcs/functionals/gga_c_pbe/PO2/inp/PO2_gga_c_pbe_pc4
 Hartree-Fock type      HFTyp           .... UHF
 Total Charge           Charge          ....    0
 Multiplicity           Mult            ....    2
 Number of Electrons    NEL             ....   31
 Basis Dimension        Dim             ....  323
 Nuclear Repulsion      ENuc            ....     99.0862960463 Eh

Convergence Acceleration:
 AO-DIIS                CNVDIIS         .... on
   Start iteration      DIISMaxIt       ....    12
   Startup error        DIISStart       ....  0.200000
   # of expansion vecs  DIISMaxEq       ....     5
   Bias factor          DIISBfac        ....   1.050
   Max. coefficient     DIISMaxC        ....  10.000
 MO-DIIS                CNVKDIIS        .... off
 Trust-Rad. Augm. Hess. CNVTRAH         .... auto
   Auto Start mean grad. ratio tolernc. ....  1.125000
   Auto Start start iteration           ....    50
   Auto Start num. interpolation iter.  ....    10
   Max. Number of Micro iterations      ....    24
   Max. Number of Macro iterations      .... Maxiter - #DIIS iter
   Number of Davidson start vectors     ....     2
   Converg. threshold    (grad. norm)   ....   1.000e-05
   Grad. Scal. Fac. for Micro threshold ....   0.100
   Minimum threshold for Micro iter.    ....   1.000e-02
   NR start threshold (gradient norm)   ....   1.000e-04
   Initial trust radius                 ....   0.400
   Minimum AH scaling param. (alpha)    ....   1.000
   Maximum AH scaling param. (alpha)    .... 1000.000
   Quad. conv. algorithm                .... NR
   White noise on init. David. guess    .... on
   Maximum white noise                  ....   0.010
   Pseudo random numbers                .... off
   Inactive MOs                         .... canonical
   Orbital update algorithm             .... Taylor
   Preconditioner                       .... Diag
   Full preconditioner red. dimension   ....   250
 SOSCF                 CNVSOSCF           .... on
   Start iteration     SOSCFMaxIt         ....   150
   Startup grad/error  SOSCFStart         ....  0.003300
   Hessian update      SOSCFHessUp        .... L-BFGS
   Autom. constraints  SOSCFAutoConstrain .... off
 Level Shifting         CNVShift        .... on
   Level shift para.    LevelShift      ....    0.2500
   Turn off err/grad.   ShiftErr        ....    0.0010
 Zerner damping         CNVZerner       .... off
 Static damping         CNVDamp         .... on
   Fraction old density DampFac         ....    0.7000
   Max. Damping (<1)    DampMax         ....    0.9800
   Min. Damping (>=0)   DampMin         ....    0.0000
   Turn off err/grad.   DampErr         ....    0.1000

SCF Procedure:
 Maximum # iterations   MaxIter         ....   125
 SCF integral mode      SCFMode         .... Direct
   Integral package                     .... SHARK and LIBINT hybrid scheme
 Reset frequency        DirectResetFreq ....    20
 Integral Threshold     Thresh          ....  2.500e-11 Eh
 Primitive CutOff       TCut            ....  2.500e-12 Eh

Convergence Tolerance:
 Convergence Check Mode ConvCheckMode   .... Total+1el-Energy
 Convergence forced     ConvForced      .... 0
 Energy Change          TolE            ....  1.000e-08 Eh
 1-El. energy change                    ....  1.000e-05 Eh
 Orbital Gradient       TolG            ....  1.000e-05
 Orbital Rotation angle TolX            ....  1.000e-05
 DIIS Error             TolErr          ....  5.000e-07

------------------------------
INITIAL GUESS: MODEL POTENTIAL
------------------------------
Loading Hartree-Fock densities                     ... done
Calculating cut-offs                               ... done
Initializing the effective Hamiltonian             ... done
Setting up the integral package (SHARK)            ... done
Starting the Coulomb interaction                   ... done (   0.0 sec)
Making the grid                                    ... done (   0.0 sec)
Mapping shells                                     ... done
Starting the XC term evaluation                    ... done (   0.0 sec)
  promolecular density results
     # of electrons  =     31.000270345
     EX              =      0.000000000
     EC              =     -1.107806922
     EX+EC           =     -1.107806922
Transforming the Hamiltonian                       ... done (   0.0 sec)
Diagonalizing the Hamiltonian                      ... done (   0.0 sec)
Back transforming the eigenvectors                 ... done (   0.0 sec)
Now organizing SCF variables                       ... done
                      ------------------
                      INITIAL GUESS DONE (   0.1 sec)
                      ------------------
             **** ENERGY FILE WAS UPDATED (/cluster/projects/nn14654k/ylvaos/basis_set_n_funcs/functionals/gga_c_pbe/PO2/inp/PO2_gga_c_pbe_pc4.en.tmp) ****
Finished Guess after   0.2 sec
Maximum memory used throughout the entire GUESS-calculation: 24.8 MB


           ************************************************************
           *        Program running with 8 parallel MPI-processes     *
           *              working on a common directory               *
           ************************************************************

-------------------------------------------------------------------------------------------
                                      ORCA LEAN-SCF
                              memory conserving SCF solver
-------------------------------------------------------------------------------------------

----------------------------------------D-I-I-S--------------------------------------------
Iteration    Energy (Eh)           Delta-E    RMSDP     MaxDP     DIISErr   Damp  Time(sec)
-------------------------------------------------------------------------------------------
               ***  Starting incremental Fock matrix formation  ***
    1    -447.2503717574508642     0.00e+00  9.76e-01  3.39e+01  6.26e-01  0.700   5.6
Warning: op=0 Small HOMO/LUMO gap (  -0.062) - skipping pre-diagonalization
         Will do a full diagonalization
    2    -450.7352622432964040    -3.48e+00  6.84e-01  2.37e+01  2.17e-01  0.700   5.5
                               ***Turning on AO-DIIS***
    3    -451.9460598515393599    -1.21e+00  4.78e-01  1.65e+01  1.24e-01  0.700   5.4
    4    -452.5399422367065085    -5.94e-01  3.34e-01  1.15e+01  1.15e-01  0.700   5.4
    5    -452.8834307873652847    -3.43e-01  2.31e-01  8.06e+00  1.01e-01  0.700   5.3
    6    -453.1112676922861624    -2.28e-01  1.52e-01  5.63e+00  8.40e-02  0.700   5.4
    7    -453.2772564913414612    -1.66e-01  3.23e-01  1.31e+01  6.12e-02  0.000   5.3
    8    -453.6430044985209520    -3.66e-01  2.19e-02  9.25e-01  1.89e-02  0.000   5.4
                              *** Initializing SOSCF ***
---------------------------------------S-O-S-C-F--------------------------------------
Iteration    Energy (Eh)           Delta-E    RMSDP     MaxDP     MaxGrad    Time(sec)
--------------------------------------------------------------------------------------
    9    -453.6462445532536663    -3.24e-03  2.14e-02  1.02e+00  2.13e-03     5.5
               *** Restarting incremental Fock matrix formation ***
   10    -453.6465515551371368    -3.07e-04  3.14e-02  1.53e+00  3.66e-03     5.5
   11    -453.6466439944131821    -9.24e-05  8.75e-03  4.42e-01  7.61e-04     5.2
   12    -453.6466469734996849    -2.98e-06  3.61e-03  1.82e-01  9.18e-04     5.2
   13    -453.6466559825684612    -9.01e-06  3.45e-03  1.71e-01  6.14e-04     5.0
   14    -453.6466537639926742     2.22e-06  2.81e-03  1.41e-01  6.10e-04     5.0
   15    -453.6466609408362842    -7.18e-06  6.31e-05  3.16e-03  5.13e-05     5.0
   16    -453.6466609591818155    -1.83e-08  8.74e-05  3.65e-03  4.98e-05     4.3
   17    -453.6466609915088952    -3.23e-08  5.39e-05  3.12e-03  6.73e-06     4.2
   18    -453.6466609917920891    -2.83e-10  5.59e-06  2.32e-04  2.74e-06     4.1
                 **** Energy Check signals convergence ****

               *****************************************************
               *                     SUCCESS                       *
               *           SCF CONVERGED AFTER  18 CYCLES          *
               *****************************************************

             **** ENERGY FILE WAS UPDATED (/cluster/projects/nn14654k/ylvaos/basis_set_n_funcs/functionals/gga_c_pbe/PO2/inp/PO2_gga_c_pbe_pc4.en.tmp) ****

----------------
TOTAL SCF ENERGY
----------------

Total Energy       :       -453.64666099226650 Eh          -12344.35322 eV

Components:
Nuclear Repulsion  :         99.08629604629714 Eh            2696.27519 eV
Electronic Energy  :       -552.73295703856365 Eh          -15040.62841 eV
One Electron Energy:       -858.00797670844599 Eh          -23347.58401 eV
Two Electron Energy:        305.27501966988228 Eh            8306.95560 eV

Virial components:
Potential Energy   :       -917.80877460409329 Eh          -24974.84645 eV
Kinetic Energy     :        464.16211361182684 Eh           12630.49323 eV
Virial Ratio       :          1.97734530175732

DFT components:
N(Alpha)           :       16.000120493822 electrons
N(Beta)            :       14.999816091419 electrons
N(Total)           :       30.999936585241 electrons
E(X)               :        0.000000000000 Eh       
E(C)               :       -1.074551311435 Eh       
E(XC)              :       -1.074551311435 Eh       

---------------
SCF CONVERGENCE
---------------

  Last Energy change         ...    2.8319e-10  Tolerance :   1.0000e-08
  Last MAX-Density change    ...    2.3211e-04  Tolerance :   1.0000e-07
  Last RMS-Density change    ...    5.5900e-06  Tolerance :   5.0000e-09
  Last DIIS Error            ...    2.1261e-03  Tolerance :   5.0000e-07
  Last Orbital Gradient      ...    2.7366e-06  Tolerance :   1.0000e-05
  Last Orbital Rotation      ...    2.9643e-06  Tolerance :   1.0000e-05


----------------------
UHF SPIN CONTAMINATION
----------------------

Warning: in a DFT calculation there is little theoretical justification to 
         calculate <S**2> as in Hartree-Fock theory. We will do it anyways
         but you should keep in mind that the values have only limited relevance

Expectation value of <S**2>     :     0.750083
Ideal value S*(S+1) for S=0.5   :     0.750000
Deviation                       :     0.000083

----------------
ORBITAL ENERGIES
----------------
                 SPIN UP ORBITALS
  NO   OCC          E(Eh)            E(eV) 
   0   1.0000     -71.688959     -1950.7557 
   1   1.0000     -16.837789      -458.1795 
   2   1.0000     -16.837789      -458.1795 
   3   1.0000      -5.281492      -143.7167 
   4   1.0000      -3.537381       -96.2570 
   5   1.0000      -3.535720       -96.2118 
   6   1.0000      -3.534725       -96.1848 
   7   1.0000      -0.670787       -18.2530 
   8   1.0000      -0.615739       -16.7551 
   9   1.0000      -0.217682        -5.9234 
  10   1.0000      -0.161438        -4.3930 
  11   1.0000      -0.154520        -4.2047 
  12   1.0000      -0.130553        -3.5525 
  13   1.0000      -0.086792        -2.3617 
  14   1.0000      -0.072737        -1.9793 
  15   1.0000      -0.020410        -0.5554 
  16   0.0000       0.070805         1.9267 
  17   0.0000       0.079720         2.1693 
  18   0.0000       0.089020         2.4224 
  19   0.0000       0.110842         3.0162 
  20   0.0000       0.128610         3.4997 
  21   0.0000       0.163515         4.4495 
  22   0.0000       0.176575         4.8049 
  23   0.0000       0.181506         4.9390 
  24   0.0000       0.182029         4.9533 
  25   0.0000       0.211164         5.7461 
  26   0.0000       0.229974         6.2579 

                 SPIN DOWN ORBITALS
  NO   OCC          E(Eh)            E(eV) 
   0   1.0000     -71.688983     -1950.7564 
   1   1.0000     -16.838071      -458.1872 
   2   1.0000     -16.838071      -458.1872 
   3   1.0000      -5.281670      -143.7215 
   4   1.0000      -3.537558       -96.2619 
   5   1.0000      -3.535896       -96.2166 
   6   1.0000      -3.535007       -96.1924 
   7   1.0000      -0.672941       -18.3117 
   8   1.0000      -0.617868       -16.8131 
   9   1.0000      -0.221015        -6.0141 
  10   1.0000      -0.163362        -4.4453 
  11   1.0000      -0.156626        -4.2620 
  12   1.0000      -0.132931        -3.6172 
  13   1.0000      -0.087979        -2.3940 
  14   1.0000      -0.074102        -2.0164 
  15   0.0000      -0.025663        -0.6983 
  16   0.0000       0.069062         1.8793 
  17   0.0000       0.078331         2.1315 
  18   0.0000       0.088337         2.4038 
  19   0.0000       0.108441         2.9508 
  20   0.0000       0.125510         3.4153 
  21   0.0000       0.162712         4.4276 
  22   0.0000       0.174231         4.7411 
  23   0.0000       0.180108         4.9010 
  24   0.0000       0.181344         4.9346 
  25   0.0000       0.209961         5.7133 
*Only the first 10 virtual orbitals were printed.

                    ********************************
                    * MULLIKEN POPULATION ANALYSIS *
                    ********************************

--------------------------------------------
MULLIKEN ATOMIC CHARGES AND SPIN POPULATIONS
--------------------------------------------
   0 P :   -2.111384    2.188198
   1 O :    1.055680   -0.594106
   2 O :    1.055705   -0.594092
Sum of atomic charges         :   -0.0000000
Sum of atomic spin populations:    1.0000000

-----------------------------------------------------
MULLIKEN REDUCED ORBITAL CHARGES AND SPIN POPULATIONS
-----------------------------------------------------
CHARGE
  0 P s       :     8.196677  s :     8.196677
      pz      :     2.623227  p :     8.299959
      px      :     2.843855
      py      :     2.832878
      dz2     :     0.015958  d :     0.512080
      dxz     :     0.020834
      dyz     :     0.273465
      dx2y2   :    -0.039594
      dxy     :     0.241418
      f0      :     0.003765  f :     0.082614
      f+1     :     0.000133
      f-1     :     0.025787
      f+2     :     0.013281
      f-2     :     0.010525
      f+3     :     0.016086
      f-3     :     0.013036
      g0      :     0.001991  g :     0.017704
      g+1     :     0.000194
      g-1     :     0.002068
      g+2     :     0.003515
      g-2     :    -0.000000
      g+3     :     0.002352
      g-3     :     0.002848
      g+4     :     0.001595
      g-4     :     0.003141
      h0      :     0.000137  h :     0.002351
      h+1     :     0.000004
      h-1     :     0.000378
      h+2     :     0.000254
      h-2     :     0.000046
      h+3     :     0.000008
      h-3     :     0.000332
      h+4     :     0.000307
      h-4     :     0.000315
      h+5     :     0.000306
      h-5     :     0.000264

  1 O s       :     2.965573  s :     2.965573
      pz      :     1.400366  p :     3.986498
      px      :     1.417476
      py      :     1.168656
      dz2     :     0.005567  d :    -0.000959
      dxz     :     0.001658
      dyz     :    -0.016792
      dx2y2   :    -0.000663
      dxy     :     0.009271
      f0      :    -0.001368  f :    -0.005540
      f+1     :     0.000007
      f-1     :     0.000664
      f+2     :    -0.002477
      f-2     :     0.000697
      f+3     :     0.001218
      f-3     :    -0.004282
      g0      :     0.000019  g :    -0.001181
      g+1     :     0.000003
      g-1     :    -0.000390
      g+2     :     0.000029
      g-2     :     0.000000
      g+3     :     0.000025
      g-3     :    -0.000511
      g+4     :    -0.000394
      g-4     :     0.000036
      h0      :    -0.000006  h :    -0.000070
      h+1     :    -0.000000
      h-1     :    -0.000005
      h+2     :    -0.000014
      h-2     :     0.000000
      h+3     :     0.000000
      h-3     :    -0.000002
      h+4     :    -0.000027
      h-4     :    -0.000000
      h+5     :    -0.000000
      h-5     :    -0.000016

  2 O s       :     2.965564  s :     2.965564
      pz      :     1.400364  p :     3.986482
      px      :     1.417476
      py      :     1.168642
      dz2     :     0.005566  d :    -0.000959
      dxz     :     0.001658
      dyz     :    -0.016791
      dx2y2   :    -0.000663
      dxy     :     0.009271
      f0      :    -0.001368  f :    -0.005540
      f+1     :     0.000007
      f-1     :     0.000664
      f+2     :    -0.002477
      f-2     :     0.000697
      f+3     :     0.001218
      f-3     :    -0.004282
      g0      :     0.000019  g :    -0.001181
      g+1     :     0.000003
      g-1     :    -0.000390
      g+2     :     0.000029
      g-2     :     0.000000
      g+3     :     0.000025
      g-3     :    -0.000511
      g+4     :    -0.000394
      g-4     :     0.000036
      h0      :    -0.000006  h :    -0.000070
      h+1     :    -0.000000
      h-1     :    -0.000005
      h+2     :    -0.000014
      h-2     :     0.000000
      h+3     :     0.000000
      h-3     :    -0.000002
      h+4     :    -0.000027
      h-4     :    -0.000000
      h+5     :    -0.000000
      h-5     :    -0.000016


SPIN
  0 P s       :     2.535545  s :     2.535545
      pz      :    -0.130717  p :    -0.140187
      px      :    -0.007146
      py      :    -0.002324
      dz2     :    -0.052894  d :    -0.209559
      dxz     :     0.000654
      dyz     :    -0.001754
      dx2y2   :    -0.153662
      dxy     :    -0.001902
      f0      :    -0.000139  f :     0.002802
      f+1     :     0.000011
      f-1     :     0.000286
      f+2     :     0.002285
      f-2     :     0.000051
      f+3     :     0.000273
      f-3     :     0.000034
      g0      :     0.000069  g :    -0.000392
      g+1     :    -0.000000
      g-1     :    -0.000015
      g+2     :     0.000049
      g-2     :    -0.000000
      g+3     :    -0.000014
      g-3     :    -0.000005
      g+4     :    -0.000501
      g-4     :     0.000025
      h0      :     0.000003  h :    -0.000010
      h+1     :    -0.000000
      h-1     :    -0.000003
      h+2     :     0.000004
      h-2     :    -0.000001
      h+3     :     0.000000
      h-3     :    -0.000002
      h+4     :    -0.000001
      h-4     :    -0.000003
      h+5     :    -0.000003
      h-5     :    -0.000004

  1 O s       :    -0.714841  s :    -0.714841
      pz      :     0.181649  p :     0.136383
      px      :     0.003876
      py      :    -0.049143
      dz2     :     0.002413  d :    -0.016040
      dxz     :     0.000061
      dyz     :    -0.018630
      dx2y2   :     0.000028
      dxy     :     0.000087
      f0      :     0.000038  f :     0.000367
      f+1     :     0.000001
      f-1     :    -0.000027
      f+2     :     0.000024
      f-2     :    -0.000002
      f+3     :     0.000004
      f-3     :     0.000328
      g0      :     0.000001  g :     0.000024
      g+1     :     0.000000
      g-1     :     0.000004
      g+2     :     0.000000
      g-2     :    -0.000000
      g+3     :    -0.000000
      g-3     :     0.000012
      g+4     :     0.000007
      g-4     :    -0.000000
      h0      :     0.000000  h :     0.000002
      h+1     :    -0.000000
      h-1     :     0.000000
      h+2     :     0.000000
      h-2     :     0.000000
      h+3     :    -0.000000
      h-3     :     0.000000
      h+4     :     0.000001
      h-4     :    -0.000000
      h+5     :    -0.000000
      h-5     :     0.000000

  2 O s       :    -0.714831  s :    -0.714831
      pz      :     0.181648  p :     0.136386
      px      :     0.003876
      py      :    -0.049138
      dz2     :     0.002413  d :    -0.016040
      dxz     :     0.000061
      dyz     :    -0.018629
      dx2y2   :     0.000028
      dxy     :     0.000087
      f0      :     0.000038  f :     0.000367
      f+1     :     0.000001
      f-1     :    -0.000027
      f+2     :     0.000024
      f-2     :    -0.000002
      f+3     :     0.000004
      f-3     :     0.000328
      g0      :     0.000001  g :     0.000024
      g+1     :     0.000000
      g-1     :     0.000004
      g+2     :     0.000000
      g-2     :    -0.000000
      g+3     :    -0.000000
      g-3     :     0.000012
      g+4     :     0.000007
      g-4     :    -0.000000
      h0      :     0.000000  h :     0.000002
      h+1     :    -0.000000
      h-1     :     0.000000
      h+2     :     0.000000
      h-2     :     0.000000
      h+3     :    -0.000000
      h-3     :     0.000000
      h+4     :     0.000001
      h-4     :    -0.000000
      h+5     :    -0.000000
      h-5     :     0.000000



                     *******************************
                     * LOEWDIN POPULATION ANALYSIS *
                     *******************************

-------------------------------------------
LOEWDIN ATOMIC CHARGES AND SPIN POPULATIONS
-------------------------------------------
   0 P :   -0.129853    0.614631
   1 O :    0.064926    0.192685
   2 O :    0.064926    0.192685

----------------------------------------------------
LOEWDIN REDUCED ORBITAL CHARGES AND SPIN POPULATIONS
----------------------------------------------------
CHARGE
  0 P s       :     4.953316  s :     4.953316
      pz      :     2.779217  p :     8.314920
      px      :     2.677861
      py      :     2.857842
      dz2     :     0.161061  d :     1.452180
      dxz     :     0.016951
      dyz     :     0.474660
      dx2y2   :     0.400114
      dxy     :     0.399395
      f0      :     0.025548  f :     0.298254
      f+1     :     0.000270
      f-1     :     0.089846
      f+2     :     0.055872
      f-2     :     0.040435
      f+3     :     0.029743
      f-3     :     0.056539
      g0      :     0.007527  g :     0.089078
      g+1     :     0.000718
      g-1     :     0.009045
      g+2     :     0.013639
      g-2     :     0.000017
      g+3     :     0.008234
      g-3     :     0.015333
      g+4     :     0.011737
      g-4     :     0.022828
      h0      :     0.000938  h :     0.022104
      h+1     :     0.000023
      h-1     :     0.004190
      h+2     :     0.001703
      h-2     :     0.000643
      h+3     :     0.000043
      h-3     :     0.004030
      h+4     :     0.002032
      h-4     :     0.004569
      h+5     :     0.002125
      h-5     :     0.001807

  1 O s       :     3.403429  s :     3.403429
      pz      :     1.382368  p :     4.313147
      px      :     1.347673
      py      :     1.583106
      dz2     :     0.020142  d :     0.161371
      dxz     :     0.004260
      dyz     :     0.054723
      dx2y2   :     0.045072
      dxy     :     0.037173
      f0      :     0.007039  f :     0.053142
      f+1     :     0.000128
      f-1     :     0.007004
      f+2     :     0.015466
      f-2     :     0.002443
      f+3     :     0.006119
      f-3     :     0.014943
      g0      :     0.000097  g :     0.003670
      g+1     :     0.000009
      g-1     :     0.000957
      g+2     :     0.000146
      g-2     :     0.000005
      g+3     :     0.000101
      g-3     :     0.001257
      g+4     :     0.000955
      g-4     :     0.000143
      h0      :     0.000025  h :     0.000315
      h+1     :     0.000000
      h-1     :     0.000026
      h+2     :     0.000062
      h-2     :     0.000002
      h+3     :     0.000001
      h-3     :     0.000013
      h+4     :     0.000107
      h-4     :     0.000008
      h+5     :     0.000008
      h-5     :     0.000064

  2 O s       :     3.403429  s :     3.403429
      pz      :     1.382368  p :     4.313147
      px      :     1.347673
      py      :     1.583106
      dz2     :     0.020142  d :     0.161371
      dxz     :     0.004260
      dyz     :     0.054723
      dx2y2   :     0.045072
      dxy     :     0.037173
      f0      :     0.007039  f :     0.053142
      f+1     :     0.000128
      f-1     :     0.007004
      f+2     :     0.015466
      f-2     :     0.002443
      f+3     :     0.006119
      f-3     :     0.014943
      g0      :     0.000097  g :     0.003670
      g+1     :     0.000009
      g-1     :     0.000957
      g+2     :     0.000146
      g-2     :     0.000005
      g+3     :     0.000101
      g-3     :     0.001257
      g+4     :     0.000955
      g-4     :     0.000143
      h0      :     0.000025  h :     0.000315
      h+1     :     0.000000
      h-1     :     0.000026
      h+2     :     0.000062
      h-2     :     0.000002
      h+3     :     0.000001
      h-3     :     0.000013
      h+4     :     0.000107
      h-4     :     0.000008
      h+5     :     0.000008
      h-5     :     0.000064


SPIN
  0 P s       :     0.337035  s :     0.337035
      pz      :     0.074123  p :     0.071021
      px      :    -0.003514
      py      :     0.000412
      dz2     :     0.070363  d :     0.196916
      dxz     :     0.000604
      dyz     :    -0.000614
      dx2y2   :     0.126947
      dxy     :    -0.000385
      f0      :     0.000945  f :     0.003040
      f+1     :     0.000013
      f-1     :     0.000295
      f+2     :     0.001279
      f-2     :     0.000111
      f+3     :     0.000435
      f-3     :    -0.000039
      g0      :     0.001300  g :     0.005750
      g+1     :     0.000003
      g-1     :    -0.000026
      g+2     :     0.002659
      g-2     :    -0.000001
      g+3     :     0.000018
      g-3     :    -0.000007
      g+4     :     0.001777
      g-4     :     0.000027
      h0      :     0.000272  h :     0.000869
      h+1     :     0.000000
      h-1     :    -0.000007
      h+2     :     0.000453
      h-2     :    -0.000001
      h+3     :     0.000000
      h-3     :    -0.000008
      h+4     :     0.000173
      h-4     :    -0.000006
      h+5     :     0.000002
      h-5     :    -0.000011

  1 O s       :     0.039351  s :     0.039351
      pz      :     0.108787  p :     0.147335
      px      :     0.001670
      py      :     0.036879
      dz2     :     0.002359  d :     0.005536
      dxz     :    -0.000048
      dyz     :     0.002939
      dx2y2   :     0.000526
      dxy     :    -0.000240
      f0      :     0.000004  f :     0.000452
      f+1     :     0.000001
      f-1     :     0.000321
      f+2     :     0.000008
      f-2     :    -0.000022
      f+3     :    -0.000014
      f-3     :     0.000154
      g0      :     0.000002  g :     0.000010
      g+1     :    -0.000000
      g-1     :     0.000000
      g+2     :     0.000002
      g-2     :     0.000000
      g+3     :    -0.000001
      g-3     :     0.000001
      g+4     :     0.000005
      g-4     :    -0.000000
      h0      :    -0.000000  h :     0.000000
      h+1     :    -0.000000
      h-1     :     0.000000
      h+2     :    -0.000000
      h-2     :     0.000000
      h+3     :    -0.000000
      h-3     :     0.000000
      h+4     :     0.000000
      h-4     :    -0.000000
      h+5     :     0.000000
      h-5     :     0.000000

  2 O s       :     0.039351  s :     0.039351
      pz      :     0.108787  p :     0.147335
      px      :     0.001670
      py      :     0.036879
      dz2     :     0.002359  d :     0.005536
      dxz     :    -0.000048
      dyz     :     0.002939
      dx2y2   :     0.000526
      dxy     :    -0.000240
      f0      :     0.000004  f :     0.000452
      f+1     :     0.000001
      f-1     :     0.000321
      f+2     :     0.000008
      f-2     :    -0.000022
      f+3     :    -0.000014
      f-3     :     0.000154
      g0      :     0.000002  g :     0.000010
      g+1     :    -0.000000
      g-1     :     0.000000
      g+2     :     0.000002
      g-2     :     0.000000
      g+3     :    -0.000001
      g-3     :     0.000001
      g+4     :     0.000005
      g-4     :    -0.000000
      h0      :    -0.000000  h :     0.000000
      h+1     :    -0.000000
      h-1     :     0.000000
      h+2     :    -0.000000
      h-2     :     0.000000
      h+3     :    -0.000000
      h-3     :     0.000000
      h+4     :     0.000000
      h-4     :    -0.000000
      h+5     :     0.000000
      h-5     :     0.000000



                      *****************************
                      * MAYER POPULATION ANALYSIS *
                      *****************************

  NA   - Mulliken gross atomic population
  ZA   - Total nuclear charge
  QA   - Mulliken gross atomic charge
  VA   - Mayer's total valence
  BVA  - Mayer's bonded valence
  FA   - Mayer's free valence

  ATOM       NA         ZA         QA         VA         BVA        FA
  0 P     17.1114    15.0000    -2.1114     1.2368    -3.6251     4.8619
  1 O      6.9443     8.0000     1.0557    -0.1653    -0.5305     0.3652
  2 O      6.9443     8.0000     1.0557    -0.1653    -0.5305     0.3652

  Mayer bond orders larger than 0.100000
B(  0-P ,  1-O ) :  -1.8126 B(  0-P ,  2-O ) :  -1.8126 B(  1-O ,  2-O ) :   1.2821 


-------
TIMINGS
-------

Total SCF time: 0 days 0 hours 1 min 36 sec 

Total time                  ....      96.182 sec
Sum of individual times     ....      92.504 sec  ( 96.2%)

SCF preparation             ....       0.147 sec  (  0.2%)
Fock matrix formation       ....      90.953 sec  ( 94.6%)
  Startup                   ....       0.026 sec  (  0.0% of F)
  Coulomb formation         ....      92.215 sec  (101.4% of F)
  XC integration            ....       1.808 sec  (  2.0% of F)
    XC Preparation          ....       0.000 sec  (  0.0% of XC)
    Basis function eval.    ....       0.160 sec  (  8.8% of XC)
    Density eval.           ....       0.358 sec  ( 19.8% of XC)
    XC-Functional eval.     ....       0.022 sec  (  1.2% of XC)
    XC-Potential eval.      ....       0.975 sec  ( 53.9% of XC)
Diagonalization             ....       0.000 sec  (  0.0%)
Density matrix formation    ....       0.247 sec  (  0.3%)
Total Energy calculation    ....       0.194 sec  (  0.2%)
Population analysis         ....       0.028 sec  (  0.0%)
Orbital Transformation      ....       0.072 sec  (  0.1%)
Orbital Orthonormalization  ....       0.000 sec  (  0.0%)
DIIS solution               ....       0.520 sec  (  0.5%)
SOSCF solution              ....       0.343 sec  (  0.4%)
Finished LeanSCF after  96.2 sec

Maximum memory used throughout the entire LEANSCF-calculation: 107.6 MB


           ************************************************************
           *        Program running with 8 parallel MPI-processes     *
           *              working on a common directory               *
           ************************************************************

------------------------------------------------------------------------------
                         ORCA PROPERTY INTEGRAL CALCULATIONS
------------------------------------------------------------------------------

GBWName                                   ... /cluster/projects/nn14654k/ylvaos/basis_set_n_funcs/functionals/gga_c_pbe/PO2/inp/PO2_gga_c_pbe_pc4.gbw
Number of atoms                           ...      3
Number of basis functions                 ...    323
Max core memory                           ...   4096 MB

Dipole integrals                          ... YES
Quadrupole integrals                      ... YES
Linear momentum integrals                 ...  NO
Angular momentum integrals                ...  NO
Higher moments length integrals           ...  NO
Higher moments velocity integrals         ...  NO
Kinetic energy integrals                  ...  NO
GIAO right hand sides                     ...  NO
GIAO dipole derivative integrals          ...  NO
SOC integrals                             ...  NO
EPR diamagnetic integrals (GIAO)          ...  NO
EPR gauge integrals                       ...  NO
Field gradient integrals                  ...  NO (   0 nuclei)
Spin-dipole/Fermi contact integrals       ...  NO (   0 nuclei)
Contact density integrals                 ...  NO (   0 nuclei)
Nucleus-orbit integrals                   ...  NO (   0 nuclei)
Geometric perturbations                   ...  NO (   3 nuclei)

Choice of electric origin   ... Center of mass
Position of electric origin ... (  0.0000,  0.0000,  0.0084) 
Choice of magnetic origin   ... GIAO
Position of magnetic origin ... (  0.0000,  0.0000,  0.0000) 

Calculating integrals                     ... Electric Dipole (Length)     done (  0.0 sec)
Calculating integrals                     ... Electric Quadrupole (Length) done (  0.0 sec)

Property integrals calculated in   0.0 sec

Maximum memory used throughout the entire PROPINT-calculation: 27.6 MB
------------------------------------------------------------------------------
                           ORCA ORBITAL LOCALIZATION
------------------------------------------------------------------------------

Input orbitals are from                  ... /cluster/projects/nn14654k/ylvaos/basis_set_n_funcs/functionals/gga_c_pbe/PO2/inp/PO2_gga_c_pbe_pc4.gbw
Output orbitals are to                   ... /cluster/projects/nn14654k/ylvaos/basis_set_n_funcs/functionals/gga_c_pbe/PO2/inp/PO2_gga_c_pbe_pc4.loc
Max. number of iterations                ... 128
Localizations seeded randomly            ... on
Convergence tolerance                    ... 1.000e-06
Threshold for strong local MOs           ... 9.500e-01
Threshold for bond MOs                   ... 8.500e-01
Operator                                 ... 0
Orbital range for localization           ... 4 to 15
Localization criterion                   ... NEW-BOYS
Doing the dipole integrals               ... o.k.
Initial value of the localization sum :    24.527756
ITERATION   0 : L=   48.2122182393 DL=  2.37e+01 (AVERGE_DL)=    0.5990454837 
ITERATION   1 : L=   50.7708157857 DL=  2.56e+00 (AVERGE_DL)=    0.1968924313 
ITERATION   2 : L=   50.9026408364 DL=  1.32e-01 (AVERGE_DL)=    0.0446917135 
ITERATION   3 : L=   50.9100940529 DL=  7.45e-03 (AVERGE_DL)=    0.0106267362 
ITERATION   4 : L=   50.9152681306 DL=  5.17e-03 (AVERGE_DL)=    0.0088541017 
ITERATION   5 : L=   50.9209394642 DL=  5.67e-03 (AVERGE_DL)=    0.0092698057 
ITERATION   6 : L=   50.9275222851 DL=  6.58e-03 (AVERGE_DL)=    0.0099869770 
ITERATION   7 : L=   50.9348450458 DL=  7.32e-03 (AVERGE_DL)=    0.0105333242 
ITERATION   8 : L=   50.9426319807 DL=  7.79e-03 (AVERGE_DL)=    0.0108620377 
ITERATION   9 : L=   50.9505920230 DL=  7.96e-03 (AVERGE_DL)=    0.0109821083 
ITERATION  10 : L=   50.9585058376 DL=  7.91e-03 (AVERGE_DL)=    0.0109501727 
ITERATION  11 : L=   50.9662135954 DL=  7.71e-03 (AVERGE_DL)=    0.0108066743 
ITERATION  12 : L=   50.9735534406 DL=  7.34e-03 (AVERGE_DL)=    0.0105456046 
ITERATION  13 : L=   50.9803208954 DL=  6.77e-03 (AVERGE_DL)=    0.0101260651 
ITERATION  14 : L=   50.9862942668 DL=  5.97e-03 (AVERGE_DL)=    0.0095134445 
ITERATION  15 : L=   50.9913049707 DL=  5.01e-03 (AVERGE_DL)=    0.0087131944 
ITERATION  16 : L=   50.9952950481 DL=  3.99e-03 (AVERGE_DL)=    0.0077753275 
ITERATION  17 : L=   50.9983239794 DL=  3.03e-03 (AVERGE_DL)=    0.0067744298 
ITERATION  18 : L=   51.0005319419 DL=  2.21e-03 (AVERGE_DL)=    0.0057839413 
ITERATION  19 : L=   51.0020903248 DL=  1.56e-03 (AVERGE_DL)=    0.0048592038 
ITERATION  20 : L=   51.0031634999 DL=  1.07e-03 (AVERGE_DL)=    0.0040323974 
ITERATION  21 : L=   51.0038892222 DL=  7.26e-04 (AVERGE_DL)=    0.0033159905 
ITERATION  22 : L=   51.0043735336 DL=  4.84e-04 (AVERGE_DL)=    0.0027088838 
ITERATION  23 : L=   51.0046936764 DL=  3.20e-04 (AVERGE_DL)=    0.0022024190 
ITERATION  24 : L=   51.0049038377 DL=  2.10e-04 (AVERGE_DL)=    0.0017844497 
ITERATION  25 : L=   51.0050411125 DL=  1.37e-04 (AVERGE_DL)=    0.0014421934 
ITERATION  26 : L=   51.0051304524 DL=  8.93e-05 (AVERGE_DL)=    0.0011634584 
ITERATION  27 : L=   51.0051884354 DL=  5.80e-05 (AVERGE_DL)=    0.0009372996 
ITERATION  28 : L=   51.0052259938 DL=  3.76e-05 (AVERGE_DL)=    0.0007543642 
ITERATION  29 : L=   51.0052502851 DL=  2.43e-05 (AVERGE_DL)=    0.0006066719 
ITERATION  30 : L=   51.0052659792 DL=  1.57e-05 (AVERGE_DL)=    0.0004876369 
ITERATION  31 : L=   51.0052761101 DL=  1.01e-05 (AVERGE_DL)=    0.0003917886 
ITERATION  32 : L=   51.0052826455 DL=  6.54e-06 (AVERGE_DL)=    0.0003146773 
ITERATION  33 : L=   51.0052868603 DL=  4.21e-06 (AVERGE_DL)=    0.0002527049 
ITERATION  34 : L=   51.0052895763 DL=  2.72e-06 (AVERGE_DL)=    0.0002028593 
ITERATION  35 : L=   51.0052913258 DL=  1.75e-06 (AVERGE_DL)=    0.0001628084 
ITERATION  36 : L=   51.0052924537 DL=  1.13e-06 (AVERGE_DL)=    0.0001307287 
ITERATION  37 : L=   51.0052931791 DL=  7.25e-07 (AVERGE_DL)=    0.0001048390 
LOCALIZATION SUM CONVERGED


--------------------------------------------------------------------------------
                    LOCALIZED MOLECULAR ORBITAL COMPOSITIONS
--------------------------------------------------------------------------------

The Mulliken populations for each LMO on each atom are computed
The LMO`s will be ordered according to atom index and type
  (A) Strongly localized MO`s have populations of >=0.950 on one atom
  (B) Two center bond orbitals have populations of >=0.850 on two atoms
  (C) Other MO`s are considered to be `delocalized`

FOUND  -   6 strongly local MO`s
       -   6 two center bond MO`s
       -   0 significantly delocalized MO`s

Rather strongly localized orbitals:
MO   9:   2O  -   1.094371
MO   8:   1O  -   1.094413
MO   7:   0P  -   1.019605
MO   6:   0P  -   1.003992
MO   5:   0P  -   1.004010
MO   4:   0P  -   2.818932
Bond-like localized orbitals:
MO  15:   2O  -   0.601510  and   0P  -   0.419685
MO  14:   2O  -   0.602637  and   0P  -   0.417960
MO  13:   2O  -   0.791051  and   0P  -   0.197667
MO  12:   1O  -   0.601898  and   0P  -   0.419097
MO  11:   1O  -   0.602212  and   0P  -   0.418621
MO  10:   1O  -   0.791068  and   0P  -   0.197642
Localized MO's were stored in: /cluster/projects/nn14654k/ylvaos/basis_set_n_funcs/functionals/gga_c_pbe/PO2/inp/PO2_gga_c_pbe_pc4.loc
------------------------------------------------------------------------------
                           ORCA ORBITAL LOCALIZATION
------------------------------------------------------------------------------

Input orbitals are from                  ... /cluster/projects/nn14654k/ylvaos/basis_set_n_funcs/functionals/gga_c_pbe/PO2/inp/PO2_gga_c_pbe_pc4.loc
Output orbitals are to                   ... /cluster/projects/nn14654k/ylvaos/basis_set_n_funcs/functionals/gga_c_pbe/PO2/inp/PO2_gga_c_pbe_pc4.loc
Max. number of iterations                ... 128
Localizations seeded randomly            ... on
Convergence tolerance                    ... 1.000e-06
Threshold for strong local MOs           ... 9.500e-01
Threshold for bond MOs                   ... 8.500e-01
Operator                                 ... 1
Orbital range for localization           ... 4 to 14
Localization criterion                   ... NEW-BOYS
Doing the dipole integrals               ... o.k.
Initial value of the localization sum :    23.509313
ITERATION   0 : L=   37.3629078124 DL=  1.39e+01 (AVERGE_DL)=    0.5018800047 
ITERATION   1 : L=   42.6434851002 DL=  5.28e+00 (AVERGE_DL)=    0.3098556053 
ITERATION   2 : L=   43.3230354024 DL=  6.80e-01 (AVERGE_DL)=    0.1111551170 
ITERATION   3 : L=   43.3770826610 DL=  5.40e-02 (AVERGE_DL)=    0.0313476862 
ITERATION   4 : L=   43.3822041159 DL=  5.12e-03 (AVERGE_DL)=    0.0096497338 
ITERATION   5 : L=   43.3840135679 DL=  1.81e-03 (AVERGE_DL)=    0.0057357761 
ITERATION   6 : L=   43.3856630218 DL=  1.65e-03 (AVERGE_DL)=    0.0054763190 
ITERATION   7 : L=   43.3872882411 DL=  1.63e-03 (AVERGE_DL)=    0.0054359398 
ITERATION   8 : L=   43.3888732289 DL=  1.58e-03 (AVERGE_DL)=    0.0053682364 
ITERATION   9 : L=   43.3903971923 DL=  1.52e-03 (AVERGE_DL)=    0.0052638793 
ITERATION  10 : L=   43.3918421301 DL=  1.44e-03 (AVERGE_DL)=    0.0051255825 
ITERATION  11 : L=   43.3931933056 DL=  1.35e-03 (AVERGE_DL)=    0.0049564935 
ITERATION  12 : L=   43.3944400810 DL=  1.25e-03 (AVERGE_DL)=    0.0047611600 
ITERATION  13 : L=   43.3955762117 DL=  1.14e-03 (AVERGE_DL)=    0.0045449886 
ITERATION  14 : L=   43.3965996735 DL=  1.02e-03 (AVERGE_DL)=    0.0043137450 
ITERATION  15 : L=   43.3975121303 DL=  9.12e-04 (AVERGE_DL)=    0.0040730976 
ITERATION  16 : L=   43.3983181632 DL=  8.06e-04 (AVERGE_DL)=    0.0038282036 
ITERATION  17 : L=   43.3990244537 DL=  7.06e-04 (AVERGE_DL)=    0.0035835242 
ITERATION  18 : L=   43.3996390478 DL=  6.15e-04 (AVERGE_DL)=    0.0033428188 
ITERATION  19 : L=   43.4001706741 DL=  5.32e-04 (AVERGE_DL)=    0.0031090084 
ITERATION  20 : L=   43.4006282234 DL=  4.58e-04 (AVERGE_DL)=    0.0028842815 
ITERATION  21 : L=   43.4010203666 DL=  3.92e-04 (AVERGE_DL)=    0.0026701828 
ITERATION  22 : L=   43.4013552871 DL=  3.35e-04 (AVERGE_DL)=    0.0024676839 
ITERATION  23 : L=   43.4016405245 DL=  2.85e-04 (AVERGE_DL)=    0.0022773086 
ITERATION  24 : L=   43.4018828968 DL=  2.42e-04 (AVERGE_DL)=    0.0020992306 
ITERATION  25 : L=   43.4020884706 DL=  2.06e-04 (AVERGE_DL)=    0.0019333143 
ITERATION  26 : L=   43.4022625893 DL=  1.74e-04 (AVERGE_DL)=    0.0017792680 
ITERATION  27 : L=   43.4024099064 DL=  1.47e-04 (AVERGE_DL)=    0.0016366101 
ITERATION  28 : L=   43.4025344488 DL=  1.25e-04 (AVERGE_DL)=    0.0015047949 
ITERATION  29 : L=   43.4026396817 DL=  1.05e-04 (AVERGE_DL)=    0.0013832303 
ITERATION  30 : L=   43.4027285656 DL=  8.89e-05 (AVERGE_DL)=    0.0012712474 
ITERATION  31 : L=   43.4028036241 DL=  7.51e-05 (AVERGE_DL)=    0.0011682036 
ITERATION  32 : L=   43.4028670044 DL=  6.34e-05 (AVERGE_DL)=    0.0010734848 
ITERATION  33 : L=   43.4029205287 DL=  5.35e-05 (AVERGE_DL)=    0.0009864932 
ITERATION  34 : L=   43.4029657298 DL=  4.52e-05 (AVERGE_DL)=    0.0009065526 
ITERATION  35 : L=   43.4030039136 DL=  3.82e-05 (AVERGE_DL)=    0.0008332175 
ITERATION  36 : L=   43.4030361742 DL=  3.23e-05 (AVERGE_DL)=    0.0007658695 
ITERATION  37 : L=   43.4030634402 DL=  2.73e-05 (AVERGE_DL)=    0.0007040919 
ITERATION  38 : L=   43.4030864889 DL=  2.30e-05 (AVERGE_DL)=    0.0006473553 
ITERATION  39 : L=   43.4031059818 DL=  1.95e-05 (AVERGE_DL)=    0.0005953274 
ITERATION  40 : L=   43.4031224722 DL=  1.65e-05 (AVERGE_DL)=    0.0005475644 
ITERATION  41 : L=   43.4031364263 DL=  1.40e-05 (AVERGE_DL)=    0.0005036959 
ITERATION  42 : L=   43.4031482397 DL=  1.18e-05 (AVERGE_DL)=    0.0004634541 
ITERATION  43 : L=   43.4031582431 DL=  1.00e-05 (AVERGE_DL)=    0.0004264736 
ITERATION  44 : L=   43.4031667176 DL=  8.47e-06 (AVERGE_DL)=    0.0003925335 
ITERATION  45 : L=   43.4031739000 DL=  7.18e-06 (AVERGE_DL)=    0.0003613706 
ITERATION  46 : L=   43.4031799873 DL=  6.09e-06 (AVERGE_DL)=    0.0003326845 
ITERATION  47 : L=   43.4031851491 DL=  5.16e-06 (AVERGE_DL)=    0.0003063506 
ITERATION  48 : L=   43.4031895276 DL=  4.38e-06 (AVERGE_DL)=    0.0002821497 
ITERATION  49 : L=   43.4031932423 DL=  3.71e-06 (AVERGE_DL)=    0.0002598845 
ITERATION  50 : L=   43.4031963957 DL=  3.15e-06 (AVERGE_DL)=    0.0002394452 
ITERATION  51 : L=   43.4031990714 DL=  2.68e-06 (AVERGE_DL)=    0.0002205667 
ITERATION  52 : L=   43.4032013453 DL=  2.27e-06 (AVERGE_DL)=    0.0002033332 
ITERATION  53 : L=   43.4032032761 DL=  1.93e-06 (AVERGE_DL)=    0.0001873652 
ITERATION  54 : L=   43.4032049173 DL=  1.64e-06 (AVERGE_DL)=    0.0001727412 
ITERATION  55 : L=   43.4032063108 DL=  1.39e-06 (AVERGE_DL)=    0.0001591748 
ITERATION  56 : L=   43.4032074966 DL=  1.19e-06 (AVERGE_DL)=    0.0001468292 
ITERATION  57 : L=   43.4032085035 DL=  1.01e-06 (AVERGE_DL)=    0.0001353062 
ITERATION  58 : L=   43.4032093605 DL=  8.57e-07 (AVERGE_DL)=    0.0001248266 
LOCALIZATION SUM CONVERGED


--------------------------------------------------------------------------------
                    LOCALIZED MOLECULAR ORBITAL COMPOSITIONS
--------------------------------------------------------------------------------

The Mulliken populations for each LMO on each atom are computed
The LMO`s will be ordered according to atom index and type
  (A) Strongly localized MO`s have populations of >=0.950 on one atom
  (B) Two center bond orbitals have populations of >=0.850 on two atoms
  (C) Other MO`s are considered to be `delocalized`

FOUND  -   5 strongly local MO`s
       -   6 two center bond MO`s
       -   0 significantly delocalized MO`s

Rather strongly localized orbitals:
MO   8:   2O  -   0.988738
MO   7:   1O  -   0.988737
MO   6:   0P  -   1.010929
MO   5:   0P  -   1.010928
MO   4:   0P  -   0.993456
Bond-like localized orbitals:
MO  14:   2O  -   0.661459  and   0P  -   0.340506
MO  13:   2O  -   0.660502  and   0P  -   0.341618
MO  12:   2O  -   0.425132  and   0P  -   0.589700
MO  11:   1O  -   0.661663  and   0P  -   0.340277
MO  10:   1O  -   0.660293  and   0P  -   0.341854
MO   9:   1O  -   0.425157  and   0P  -   0.589674
Localized MO's were stored in: /cluster/projects/nn14654k/ylvaos/basis_set_n_funcs/functionals/gga_c_pbe/PO2/inp/PO2_gga_c_pbe_pc4.loc

-------------------------   --------------------
FINAL SINGLE POINT ENERGY      -453.646660992267
-------------------------   --------------------



           ************************************************************
           *        Program running with 8 parallel MPI-processes     *
           *              working on a common directory               *
           ************************************************************

------------------------------------------------------------------------------
                              ORCA PROPERTY CALCULATIONS
------------------------------------------------------------------------------

GBWName                                 ... /cluster/projects/nn14654k/ylvaos/basis_set_n_funcs/functionals/gga_c_pbe/PO2/inp/PO2_gga_c_pbe_pc4.gbw
Number of atoms                         ...      3
Number of basis functions               ...    323
Max core memory                         ...   4096 MB

Electric properties:
Dipole moment                           ... YES
Quadrupole moment                       ... YES
Static polarizability (Dipole/Dipole)   ...  NO
Static polarizability (Dipole/Quad.)    ...  NO
Static polarizability (Quad./Quad.)     ...  NO
Static polarizability (Velocity)        ...  NO
Static hyperpolarizability              ...  NO

Atomic electric properties:
Dipole moment                           ...  NO
Quadrupole moment                       ...  NO
Static polarizability                   ...  NO

Choice of electric origin               ... Center of mass
Position of electric origin             ...     0.000000     0.000000     0.008437

General magnetic properties:
Magnetizability                         ...  NO

EPR properties:
g-Tensor (aka g-matrix)                 ...  NO
Zero-Field splitting spin-orbit         ...  NO
Zero-field splitting spin-spin          ...  NO
Hyperfine couplings                     ...  NO (   0 nuclei)
Quadrupole couplings                    ...  NO (   0 nuclei)
Contact density                         ...  NO (   0 nuclei)

NMR properties:
Chemical shifts                         ...  NO (   0 nuclei)
Spin-rotation constants                 ...  NO (   0 nuclei)
Spin-spin couplings                     ...  NO (   0 nuclei,    0 pairs)

Choice of magnetic origin               ... GIAO
Position of magnetic origin             ...     0.000000     0.000000     0.000000

Properties with geometric perturbations:
SCF Hessian                             ...  NO
IR spectrum                             ...  NO
VCD spectrum                            ...  NO
X-ray spectroscopy properties:
SCF XES/XAS/RIXS spectra                ...  NO

SCF SOC stabilization energy            ...  NO
Diagonal Born-Oppenheimer correction    ...  NO

-------------
DIPOLE MOMENT
-------------

Method             : SCF
Type of density    : Electron Density
Multiplicity       :   2
Irrep              :   0
Energy             :  -453.6466609922665043 Eh
Basis              : AO
                                X                 Y                 Z
Electronic contribution:      0.000000005      -0.000000226       0.320251457
Nuclear contribution   :      0.000000000       0.000000000      -0.261362976
                        -----------------------------------------
Total Dipole Moment    :      0.000000005      -0.000000226       0.058888481
                        -----------------------------------------
Magnitude (a.u.)       :      0.058888481
Magnitude (Debye)      :      0.149682622



--------------------
Rotational spectrum 
--------------------
 
Rotational constants in cm-1:             3.442444             0.286393             0.264396 
Rotational constants in MHz :        103201.869580          8585.841533          7926.407020 

Dipole components along the rotational axes: 
x,y,z [a.u.] :    -0.000000     0.058888     0.000000 
x,y,z [Debye]:    -0.000001     0.149683     0.000000 

 

Dipole moment calculation done in   0.0 sec 

-----------------
QUADRUPOLE MOMENT
-----------------

Method             : SCF
Type of density    : Electron Density
Multiplicity       :   2
Irrep              :   0
Energy             :  -453.6466609922665043 Eh
Basis              : AO

                XX              YY              ZZ              XY              XZ              YZ
  NUC        0.000000000   105.106420135     8.604299986     0.000000000     0.000000000     0.000000000
  EL       -23.553544066  -132.385404568   -33.123257221    -0.000000283     0.000000033    -0.000001400
  TOT      -23.553544066   -27.278984433   -24.518957236    -0.000000283     0.000000033    -0.000001400 (a.u.)
           -31.680322300   -36.691167004   -32.978836031    -0.000000380     0.000000044    -0.000001883 (Buckingham)

diagonalized tensor:
           -27.278984433   -24.518957236   -23.553544066 (a.u.)
           -36.691167004   -32.978836031   -31.680322300 (Buckingham)
            -8.723175678     2.413817243     6.309358435 (traceless form in Buckingham)

             0.000000076     0.000000034     1.000000000
             1.000000000     0.000000507    -0.000000076
             0.000000507    -1.000000000     0.000000034
        
Isotropic quadrupole :   -25.117161912

Quadrupole moment calculation done in   0.0 sec (  0.0 sec for integrals)

Maximum memory used throughout the entire PROP-calculation: 21.0 MB

--------------------------------
SUGGESTED CITATIONS FOR THIS RUN
--------------------------------

Below you find a list of papers that are relevant to this ORCA run
We neither can nor want to force you to cite these papers, but we appreciate if you do
You receive ORCA, which is the product of decades of hard work by many enthusiastic individuals, for free
The only thing we kindly ask in return is that you cite our papers,
We deeply appreciate it, if you show your appreciation for ORCA by not just citing the generic ORCA reference.

Please note that relegating all ORCA citations to the supporting information does *not* help us.
SI sections are not indexed - citations you put there will not count into any citation statistics
But we need these citations in order to attract the funding resources that allow us to do what we are doing

Therefore, if you are a happy ORCA user, please consider citing a few of the papers listed below in the main body of your paper

In addition to the list printed below, the program has created the file /cluster/projects/nn14654k/ylvaos/basis_set_n_funcs/functionals/gga_c_pbe/PO2/inp/PO2_gga_c_pbe_pc4.bibtex that contains the list in bibtex format
You can import this file easily into all common literature databanks and citation aid programs

It goes without saying that in many instances, there are alternative algorithms to achieve similar
results as the ones you have gotten from ORCA. It is, of course, also the case that in some instances
ORCA just re-implements algorithms worked out by others. We are fully aware of that and we are also
fully appreciative of our colleagues work. Hence this citation list should not be read as indicating
that the listed papers, which are focused on our own work, are the only ones worth citing. It simply
meant to make it easier for users to cite ORCA specific papers. It is not a substitute for doing your
own literature research and citing the relevant literature in a scientifically appropriate manner.

List of essential papers. We consider these as the minimum necessary citations

  1. Neese, F.
     Software update: the ORCA program system, version 6.0
     WIRES Comput. Molec. Sci. 2025 15(1), e70019
     doi.org/10.1002/wcms.70019

List of papers to cite with high priority. The work reported in these papers was absolutely
necessary for this run to complete.
Our perspective: the developers of density functionals and basis sets usually get cited in chemistry papers
Good! But without the algorithms to do something with them, the functionals or basis sets would not do anything.
Hence, in our opinion, the algorithm design and method developments papers are equally worthy of getting cited

  1. Lehtola, S.; Steigemann, C.; Oliveira, M.; Marques, M.
     Recent developments in Libxc - A comprehensive library of functionals for density functional theory
     Software X 2018 7 , 
     doi.org/10.1016/j.softx.2017.11.002
  2. Neese, F.
     The SHARK Integral Generation and Digestion System
     J. Comp. Chem. 2022 44(3), 381
     doi.org/10.1002/jcc.26942

List of suggested additional citations. These are papers that are important in the 'surrounding' of 
of this run, or papers that preceded the highly important papers. If you like your results we are grateful for a citation.

  1. Neese, F.
     The ORCA program system
     WIRES Comput. Molec. Sci. 2012 2(1), 73-78
     doi.org/10.1002/wcms.81
  2. Neese, F.
     Software update: the ORCA program system, version 4.0
     WIRES Comput. Molec. Sci. 2018 8(1), 1-6
     doi.org/10.1002/wcms.1327
  3. Neese, F.; Wennmohs, F.; Becker, U.; Riplinger, C.
     The ORCA quantum chemistry program package
     J. Chem. Phys. 2020 152(22), 224108
     doi.org/10.1063/5.0004608
  4. Neese, F.
     Software update: The ORCA program system—Version 5.0
     WIRES Comput. Molec. Sci. 2022 12(1), e1606
     doi.org/10.1002/wcms.1606

List of optional additional citations

  1. Neese, F.
     Approximate second-order SCF convergence for spin unrestricted wavefunctions
     Chem. Phys. Lett. 2000 325(1-3), 93-98
     doi.org/10.1016/s0009-2614(00)00662-x

Timings for individual modules:

Sum of individual times          ...       98.186 sec (=   1.636 min)
Startup calculation              ...        0.727 sec (=   0.012 min)   0.7 %
SCF iterations                   ...       96.840 sec (=   1.614 min)  98.6 %
Property integrals               ...        0.332 sec (=   0.006 min)   0.3 %
Property calculations            ...        0.269 sec (=   0.004 min)   0.3 %
Orbital localization             ...        0.019 sec (=   0.000 min)   0.0 %
                             ****ORCA TERMINATED NORMALLY****
TOTAL RUN TIME: 0 days 0 hours 1 minutes 38 seconds 857 msec
