
                                 *****************
                                 * O   R   C   A *
                                 *****************

                                            #,                                       
                                            ###                                      
                                            ####                                     
                                            #####                                    
                                            ######                                   
                                           ########,                                 
                                     ,,################,,,,,                         
                               ,,#################################,,                 
                          ,,##########################################,,             
                       ,#########################################, ''#####,          
                    ,#############################################,,   '####,        
                  ,##################################################,,,,####,       
                ,###########''''           ''''###############################       
              ,#####''   ,,,,##########,,,,          '''####'''          '####       
            ,##' ,,,,###########################,,,                        '##       
           ' ,,###''''                  '''############,,,                           
         ,,##''                                '''############,,,,        ,,,,,,###''
      ,#''                                            '''#######################'''  
     '                                                          ''''####''''         
             ,#######,   #######,   ,#######,      ##                                
            ,#'     '#,  ##    ##  ,#'     '#,    #''#        ,####,    ,#,          
            ##       ##  ##   ,#'  ##            #'  '#       #'       ,# #          
            ##       ##  #######   ##           ,######,      #####,      #          
            '#,     ,#'  ##    ##  '#,     ,#' ,#      #,     #,   #      #          
             '#######'   ##     ##  '#######'  #'      '#     '####' #    #          



                #########################################################
                #                        -***-                          #
                #          Department of theory and spectroscopy        #
                #                                                       #
                #                      Frank Neese                      #
                #                                                       #
                #     Directorship, Architecture, Infrastructure        #
                #                    SHARK, DRIVERS                     #
                #        Core code/Algorithms in most modules           #
                #                                                       #
                #        Max Planck Institute fuer Kohlenforschung      #
                #                Kaiser Wilhelm Platz 1                 #
                #                 D-45470 Muelheim/Ruhr                 #
                #                      Germany                          #
                #                                                       #
                #                  All rights reserved                  #
                #                        -***-                          #
                #########################################################


                         Program Version 6.1.1  -  RELEASE   -
                                (GIT: $487d211c$)
                          ($2025-11-21 10:33:24 +0100$)


 With contributions from (in alphabetic order):
[Max-Planck-Institut fuer Kohlenforschung]                               
  Daniel Aravena         : Magnetic Suceptibility                        
  Michael Atanasov       : Ab Initio Ligand Field Theory (pilot matlab implementation)
  Alexander A. Auer      : GIAO ZORA, VPT2 properties, NMR spectrum      
  Ute Becker             : All parallelization in ORCA, NUMFREQ, NUMCALC 
  Giovanni Bistoni       : ED, misc. LED, open-shell LED, HFLD           
  Dmytro Bykov           : pre 5.0 version of the SCF Hessian            
  Marcos Casanova-Páez   : Triplet and SCS-CIS(D). UHF-(DLPNO)-IP/EA/STEOM-CCSD. UHF-CVS-IP/STEOM-CCSD   
  Vijay G. Chilkuri      : MRCI spin determinant printing, contributions to CSF-ICE 
  Pauline Colinet        : FMM embedding                                 
  Dipayan Datta          : RHF DLPNO-CCSD density                        
  Achintya Kumar Dutta   : EOM-CC, STEOM-CC                              
  Nicolas Foglia         : Exact transition moments, OPA infrastructure, MCD improvements    
  Dmitry Ganyushin       : Spin-Orbit,Spin-Spin,Magnetic field MRCI      
  Miquel Garcia-Rates    : C-PCM and meta-GGA Hessian, CCSD/C-PCM, Gaussian charge scheme 
  Tiago L. C. Gouveia    : GS-ROHF, GS-ROCIS                             
  Yang Guo               : DLPNO-NEVPT2, F12-NEVPT2, CIM, IAO-localization        
  Andreas Hansen         : Spin unrestricted coupled pair/coupled cluster methods 
  Ingolf Harden          : AUTO-CI MPn and infrastructure                
  Benjamin Helmich-Paris : MC-RPA, TRAH-(SCF,CASSCF), AVAS, COSX integrals, SCF dyn. polar., MC-PDFT, srDFT 
  Lee Huntington         : MR-EOM, pCC                                   
  Robert Izsak           : Overlap fitted RIJCOSX, COSX-SCS-MP3, EOM     
  Riya Kayal             : Wick's Theorem for AUTO-CI, AUTO-CI UHF-CCSDT 
  Emily Kempfer          : AUTO-CI RHF CISDT and CCSDT, approximate NEVPT4
  Christian Kollmar      : KDIIS, OOCD, Brueckner-CCSD(T), CCSD density, CASPT2, CASPT2-K, improved NEVPT2 
  Axel Koslowski         : Symmetry handling                             
  Simone Kossmann        : meta-GGA functionals, TD-DFT gradient, OOMP2, (MP2 Hessian; deprecated post 5.0) 
  Lucas Lang             : DCDCAS, Hyperfine gauge corrections, ICE-SOC+SSC
  Marvin Lechner         : AUTO-CI (C++ implementation), FIC-MRCC        
  Spencer Leger          : CASSCF response                               
  Dagmar Lenk            : GEPOL surface, SMD, ORCA-2-JSON               
  Dimitrios Liakos       : Extrapolation schemes; Compound Job, Property file
  Dimitrios Manganas     : Further ROCIS development; embedding schemes. LFT, Crystal Embedding 
  Dimitrios Pantazis     : SARC Basis sets                               
  Anastasios Papadopoulos: AUTO-CI, single reference methods and gradients 
  Taras Petrenko         : pre 6.0 DFT Hessian and TD-DFT gradient,  ECA, NRVS 
  Petra Pikulova         : Analytic Raman intensities                    
  Peter Pinski           : DLPNO-MP2, DLPNO-MP2 Gradient                 
  Shashank Vittal Rao    : ES-AILFT, MagRelax                            
  Christoph Reimann      : Effective Core Potentials                     
  Marius Retegan         : Local ZFS, SOC                                
  Christoph Riplinger    : Optimizer, TS searches, QM/MM, DLPNO-CCSD(T), (RO)-DLPNO pert. Triples 
  Michael Roemelt        : Original ROCIS implementation, recursive CI coupling coefficients
  Masaaki Saitow         : Open-shell DLPNO-CCSD energy and density      
  Barbara Sandhoefer     : DKH picture change effects                    
  Yorick L. A. Schmerwitz: GMF and freeze-and-release deltaSCF, NEB S-IDPP initial path                    
  Kantharuban Sivalingam : CASSCF convergence/infrastructure, NEVPT2, NEVPT3, NEVPT4(SD), FIC-MRCI and CEPA variants
  Bernardo de Souza      : ESD, SOC TD-DFT                               
  Georgi L. Stoychev     : AutoAux, RI-MP2 NMR, DLPNO-MP2 response, X2C  
  Van Anh Tran           : RI-MP2 g-tensors                              
  Willem Van den Heuvel  : Paramagnetic NMR                              
  Zikuan Wang            : NOTCH, Electric field optimization            
  Frank Wennmohs         : Technical directorship and infrastructure     
  Hang Xu                : AUTO-CI-Response properties                   
                                                                         
[FACCTs GmbH]                                                            
  Markus Bursch, Nicolas Foglia, Miquel Garcia-Rates, Ingolf Harden, Hagen Neugebauer, Anastasios Papadopoulos, 
  Christoph Riplinger, Bernardo de Souza, Georgi L. Stoychev                                                    
                                                                 
  APM, various basis sets, CI-OPT, improved COSX, DLPNO-Multilevel,           
  DOCKER, DRACO, updates on ESD, Fragmentator, GOAT, IRC, LR-CPCM, L-BFGS, MBIS, meta-GGA TD-DFT gradient, ML-optimized integration grids, 
  MM, NACMEs, nearIR, NEB, NEB-TS, NL-DFT gradient (VV10), 2- and 3-layer-ONIOM, interface openCOSMO-RS, QMMM,   
  Crystal-QMMM, RESP, rigid body optimization, SF, symmetry and pop. for TD-DFT, various functionals, SOLVATOR                                   
                                                                         
[Other institutions]                                                     
  V. Asgeirsson          : NEB                                           
  Christoph Bannwarth    : sTDA-DFT, sTD-DFT, PBEh-3c, B97-3c, D3        
  Giovanni Bistoni       : ETS/NOCV, ADLD/ADEX, COVALED                  
  Martin Brehm           : Molecular dynamics                            
  Ronald Cardenas        : ETS/NOCV                                      
  Martina Colucci        : COVALED                                       
  Sebastian Ehlert       : rSCAN, r2SCAN, r2SCAN-3c, D4, dhf basis sets  
  Marvin Friede          : D4 for Fr, Ra, Ac-Lr                          
  Lars Goerigk           : TD-DFT with DH, B97 family of functionals     
  Stefan Grimme          : VdW corrections, initial TS optimization, DFT functionals, gCP, sTDA/sTD-DF 
  Waldemar Hujo          : DFT-NL                                        
  H. Jonsson             : NEB                                           
  Holger Kruse           : gCP                                           
  Marcel Mueller         : wB97X-3c, vDZP basis set                      
  Hagen Neugebauer       : wr2SCAN, Native XTB                           
  Gianluca Regni         : ADLD/ADEX                                     
  Tobias Risthaus        : pre 6.0 range-separated hybrid DFT and stability analysis
  Lukas Wittmann         : regularized MP2, r2SCAN double-hybrids, wr2SCAN        
                                                                         
We gratefully acknowledge several colleagues who have allowed us to      
interface, adapt or use parts of their codes:                            
  Ed Valeev, F. Pavosevic, A. Kumar             : LibInt (2-el integral package), F12 methods 
  Garnet Chan, S. Sharma, J. Yang, R. Olivares  : DMRG                   
  Ulf Ekstrom                                   : XCFun DFT Library      
  Mihaly Kallay                                 : mrcc  (arbitrary order and MRCC methods)
  Frank Weinhold                                : gennbo (NPA and NBO analysis)           
  Simon Mueller                                 : openCOSMO-RS                            
  Christopher J. Cramer and Donald G. Truhlar   : smd solvation model                     
  S Lehtola, MJT Oliveira, MAL Marques          : LibXC Library                           
  Liviu Ungur et al                             : ANISO software                          


 Your calculation uses the libint2 library for the computation of 2-el integrals
 For citations please refer to: http://libint.valeyev.net

 Your ORCA version has been built with support for libXC version: 7.0.0
 For citations please refer to: https://libxc.gitlab.io

 This ORCA versions uses:
   CBLAS   interface :  Fast vector & matrix operations
   LAPACKE interface :  Fast linear algebra routines
   SCALAPACK package :  Parallel linear algebra routines
   Shared memory     :  Shared parallel matrices
   BLAS/LAPACK       :  OpenBLAS 0.3.29  USE64BITINT DYNAMIC_ARCH NO_AFFINITY Cooperlake SINGLE_THREADED
        Core in use  :  Cooperlake
   Copyright (c) 2011-2014, The OpenBLAS Project


  ***********************************
  * Starting time: Wed May 20 12:39:34 2026
  * Host name:     c1-37
  * Process ID:    671263
  * Working dir.:  /cluster/projects/nn14654k/ylvaos/basis_set_n_funcs/functionals/gga_x_pw91/PO2/out
  ***********************************

Using LibXC functional ID 109 : Perdew & Wang 91
[ 1]  J. P. Perdew. In P. Ziesche and H. Eschrig, editors, Proceedings of the 75. WE-Heraeus-Seminar and 21st Annual International Symposium on Electronic Structure of Solids, 11. Berlin, 1991. Akademie Verlag.
[ 2]  J. P. Perdew, J. A. Chevary, S. H. Vosko, K. A. Jackson, M. R. Pederson, D. J. Singh, and C. Fiolhais.,  Phys. Rev. B 46, 6671 (1992)
[ 3]  J. P. Perdew, J. A. Chevary, S. H. Vosko, K. A. Jackson, M. R. Pederson, D. J. Singh, and C. Fiolhais.,  Phys. Rev. B 48, 4978 (1993)
Using LibXC functional ID 109 : Perdew & Wang 91
[ 1]  J. P. Perdew. In P. Ziesche and H. Eschrig, editors, Proceedings of the 75. WE-Heraeus-Seminar and 21st Annual International Symposium on Electronic Structure of Solids, 11. Berlin, 1991. Akademie Verlag.
[ 2]  J. P. Perdew, J. A. Chevary, S. H. Vosko, K. A. Jackson, M. R. Pederson, D. J. Singh, and C. Fiolhais.,  Phys. Rev. B 46, 6671 (1992)
[ 3]  J. P. Perdew, J. A. Chevary, S. H. Vosko, K. A. Jackson, M. R. Pederson, D. J. Singh, and C. Fiolhais.,  Phys. Rev. B 48, 4978 (1993)
Your calculation utilizes LibXC
by S. Lehtola, C. Steigemann, M. J. T. Oliveira & M. A. L. Marques
Please cite in your paper:
Lehtola, S.; Steigemann, C.; Oliveira, M.J.T.; Marques, M. A. L. Software X, 7, (2018), 1.
   

================================================================================

----- Orbital basis set information -----
Your calculation utilizes the basis: def2-QZVP
   F. Weigend and R. Ahlrichs, Phys. Chem. Chem. Phys. 7, 3297 (2005).

================================================================================
                                        WARNINGS
                       Please study these warnings very carefully!
================================================================================


WARNING: your system is open-shell and RHF/RKS was chosen
  ===> : WILL SWITCH to UHF/UKS


================================================================================
                                       INPUT FILE
================================================================================
NAME = /cluster/projects/nn14654k/ylvaos/basis_set_n_funcs/functionals/gga_x_pw91/PO2/inp/PO2_gga_x_pw91_def2qzvp.inp
|  1> ! dft def2-QZVP TightSCF
|  2> %pal nprocs 8 end
|  3> 
|  4> %loc
|  5>   LocMet NewBoys
|  6>   Occ true
|  7> end
|  8> 
|  9> %method
| 10>   exchange gga_x_pw91
| 11>   correlation None
| 12> end
| 13> 
| 14> %elprop
| 15>   Dipole true
| 16>   Quadrupole true
| 17> end
| 18> 
| 19> * xyz 0 2
| 20> P    0.000000000000   0.000000000000   0.287900000000
| 21> O    0.000000000000   1.356300000000  -0.269900000000
| 22> O    0.000000000000  -1.356300000000  -0.269900000000
| 23> *
| 24> 
| 25> 
| 26>                          ****END OF INPUT****
================================================================================

                       ****************************
                       * Single Point Calculation *
                       ****************************

---------------------------------
CARTESIAN COORDINATES (ANGSTROEM)
---------------------------------
  P      0.000000    0.000000    0.287900
  O      0.000000    1.356300   -0.269900
  O      0.000000   -1.356300   -0.269900

----------------------------
CARTESIAN COORDINATES (A.U.)
----------------------------
  NO LB      ZA    FRAG     MASS         X           Y           Z
   0 P    15.0000    0    30.974    0.000000    0.000000    0.544052
   1 O     8.0000    0    15.999    0.000000    2.563036   -0.510037
   2 O     8.0000    0    15.999    0.000000   -2.563036   -0.510037

--------------------------------
INTERNAL COORDINATES (ANGSTROEM)
--------------------------------
 P      0   0   0     0.000000000000     0.00000000     0.00000000
 O      1   0   0     1.466523279733     0.00000000     0.00000000
 O      1   2   0     1.466523279733   135.28860674     0.00000000

---------------------------
INTERNAL COORDINATES (A.U.)
---------------------------
 P      0   0   0     0.000000000000     0.00000000     0.00000000
 O      1   0   0     2.771327367716     0.00000000     0.00000000
 O      1   2   0     2.771327367716   135.28860674     0.00000000

---------------------
BASIS SET INFORMATION
---------------------
There are 2 groups of distinct atoms

 Group   1 Type P   : 20s14p4d2f1g contracted to 9s6p4d2f1g pattern {1031111111/821111/1111/11/1}
 Group   2 Type O   : 15s8p3d2f1g contracted to 7s4p3d2f1g pattern {8211111/5111/111/11/1}

Atom   0P    basis set group =>   1
Atom   1O    basis set group =>   2
Atom   2O    basis set group =>   2


           ************************************************************
           *        Program running with 8 parallel MPI-processes     *
           *              working on a common directory               *
           ************************************************************
------------------------------------------------------------------------------
                             ORCA STARTUP CALCULATIONS
------------------------------------------------------------------------------
------------------------------------------------------------------------------
                   ___                                                        
                  /   \      - P O W E R E D   B Y -                         
                 /     \                                                     
                 |  |  |   _    _      __       _____    __    __             
                 |  |  |  | |  | |    /  \     |  _  \  |  |  /  |          
                  \  \/   | |  | |   /    \    | | | |  |  | /  /          
                 / \  \   | |__| |  /  /\  \   | |_| |  |  |/  /          
                |  |  |   |  __  | /  /__\  \  |    /   |      \           
                |  |  |   | |  | | |   __   |  |    \   |  |\   \          
                \     /   | |  | | |  |  |  |  | |\  \  |  | \   \       
                 \___/    |_|  |_| |__|  |__|  |_| \__\ |__|  \__/        
                                                                              
                      - O R C A' S   B I G   F R I E N D -                    
                                      &                                       
                       - I N T E G R A L  F E E D E R -                       
                                                                              
 v1 FN, 2020, v2 2021, v3 2022-2024                                           
------------------------------------------------------------------------------


----------------------
SHARK INTEGRAL PACKAGE
----------------------

Number of atoms                             ...      3
Number of basis functions                   ...    184
Number of shells                            ...     56
Maximum angular momentum                    ...      4
Integral batch strategy                     ... SHARK/LIBINT Hybrid
RI-J (if used) integral strategy            ... SPLIT-RIJ (Revised 2003 algorithm where possible)
Printlevel                                  ...      1
Contraction scheme used                     ... SEGMENTED contraction
Prescreening option                         ... SCHWARTZ
   Thresh                                   ... 2.500e-11
   Tcut                                     ... 2.500e-12
   Tpresel                                  ... 2.500e-12 
Coulomb Range Separation                    ... NOT USED
Exchange Range Separation                   ... NOT USED
Multipole approximations                    ... NOT USED
Finite Nucleus Model                        ... NOT USED
CABS basis                                  ... NOT available
Auxiliary Coulomb fitting basis             ... NOT available
Auxiliary J/K fitting basis                 ... NOT available
Auxiliary Correlation fitting basis         ... NOT available
Auxiliary 'external' fitting basis          ... NOT available

Checking pre-screening integrals            ... done (  0.0 sec) Dimension = 56
   => SHARK Basis and OBASIS are compatible. Storing Pre-screening
Shell pair information
Shell pair cut-off parameter TPreSel        ...   2.5e-12
Total number of shell pairs                 ...      1596
Shell pairs after pre-screening             ...      1505
Total number of primitive shell pairs       ...      5105
Primitive shell pairs kept                  ...      3964
          la=0 lb=0:    226 shell pairs
          la=1 lb=0:    314 shell pairs
          la=1 lb=1:    105 shell pairs
          la=2 lb=0:    218 shell pairs
          la=2 lb=1:    138 shell pairs
          la=2 lb=2:     54 shell pairs
          la=3 lb=0:    130 shell pairs
          la=3 lb=1:     84 shell pairs
          la=3 lb=2:     58 shell pairs
          la=3 lb=3:     21 shell pairs
          la=4 lb=0:     61 shell pairs
          la=4 lb=1:     42 shell pairs
          la=4 lb=2:     30 shell pairs
          la=4 lb=3:     18 shell pairs
          la=4 lb=4:      6 shell pairs

Checking whether 4 symmetric matrices of dimension 184 fit in memory
:Max Core in MB      =   4096.00
 MB in use           =      5.29
 MB left             =   4090.71
 MB needed           =      0.52
 Data fit in memory  = YES
Calculating Nuclear repulsion               ... done (  0.0 sec) ENN=     99.086296046297 Eh

Diagonalization of the overlap matrix:
Smallest eigenvalue                        ... 1.854e-04
Time for diagonalization                   ...    0.002 sec
Threshold for overlap eigenvalues          ... 1.000e-07
Number of eigenvalues below threshold      ... 0
Time for construction of square roots      ...    0.002 sec
Total time needed                          ...    0.006 sec

-------------------
DFT GRID GENERATION
-------------------

General Integration Accuracy     IntAcc      ... 4.388
Radial Grid Type                 RadialGrid  ... OptM3 with GC (2021)
Angular Grid (max. ang.)         AngularGrid ... 4 (Lebedev-302)
Angular grid pruning method      GridPruning ... 4 (adaptive)
Weight generation scheme         WeightScheme... mBecke (2022)
Basis function cutoff            BFCut       ... 1.0000e-11
Integration weight cutoff        WCut        ... 1.0000e-14
Partially contracted basis set               ... off
Rotationally invariant grid construction     ... off
Angular grids for H and He will be reduced by one unit
Diffuse basis detected: some atoms will have their outermost
                        angular grid increased by 1.

Total number of grid points                  ...    20254
Total number of batches                      ...      318
Average number of points per batch           ...       63
Average number of grid points per atom       ...     6751
Grids setup in   0.1 sec
Initializing property integral containers    ... done (  0.0 sec)

SHARK setup successfully completed in   0.3 seconds

Maximum memory used throughout the entire STARTUP-calculation: 33.4 MB


           ************************************************************
           *        Program running with 8 parallel MPI-processes     *
           *              working on a common directory               *
           ************************************************************
-------------------------------------------------------------------------------
                                 ORCA GUESS
                   Start orbitals & Density for SCF / CASSCF
-------------------------------------------------------------------------------

------------
SCF SETTINGS
------------
Hamiltonian:
 Density Functional     Method          .... DFT(GTOs)
  Functional kind                       .... Exchange
  Functional name                       .... Perdew & Wang 91
  Functional family                     .... GGA
  Functional refs                              
    [ 0] J. P. Perdew. In P. Ziesche and H. Eschrig, editors, Proceedings of the 75. WE-Heraeus-Seminar and 21st Annual International Symposium on Electronic Structure of Solids, 11. Berlin, 1991. Akademie Verlag.
    [ 1] J. P. Perdew, J. A. Chevary, S. H. Vosko, K. A. Jackson, M. R. Pederson, D. J. Singh, and C. Fiolhais.,  Phys. Rev. B 46, 6671 (1992), doi: 10.1103/PhysRevB.46.6671
    [ 2] J. P. Perdew, J. A. Chevary, S. H. Vosko, K. A. Jackson, M. R. Pederson, D. J. Singh, and C. Fiolhais.,  Phys. Rev. B 48, 4978 (1993), doi: 10.1103/PhysRevB.48.4978.2
  Functional external parameters        .... 7
    Parameter  0 _a         =  1.964500e-01 : a parameter         
    Parameter  1 _b         =  7.795600e+00 : b parameter         
    Parameter  2 _c         =  2.743000e-01 : c parameter         
    Parameter  3 _d         = -1.508000e-01 : d parameter         
    Parameter  4 _f         =  4.000000e-03 : f parameter         
    Parameter  5 _alpha     =  1.000000e+02 : alpha parameter     
    Parameter  6 _expo      =  4.000000e+00 : exponent            
 Correlation Functional Correlation     .... No Correlation
 Gradients option       PostSCFGGA      .... off


General Settings:
 Integral files         IntName         .... /cluster/projects/nn14654k/ylvaos/basis_set_n_funcs/functionals/gga_x_pw91/PO2/inp/PO2_gga_x_pw91_def2qzvp
 Hartree-Fock type      HFTyp           .... UHF
 Total Charge           Charge          ....    0
 Multiplicity           Mult            ....    2
 Number of Electrons    NEL             ....   31
 Basis Dimension        Dim             ....  184
 Nuclear Repulsion      ENuc            ....     99.0862960463 Eh

Convergence Acceleration:
 AO-DIIS                CNVDIIS         .... on
   Start iteration      DIISMaxIt       ....    12
   Startup error        DIISStart       ....  0.200000
   # of expansion vecs  DIISMaxEq       ....     5
   Bias factor          DIISBfac        ....   1.050
   Max. coefficient     DIISMaxC        ....  10.000
 MO-DIIS                CNVKDIIS        .... off
 Trust-Rad. Augm. Hess. CNVTRAH         .... auto
   Auto Start mean grad. ratio tolernc. ....  1.125000
   Auto Start start iteration           ....    50
   Auto Start num. interpolation iter.  ....    10
   Max. Number of Micro iterations      ....    24
   Max. Number of Macro iterations      .... Maxiter - #DIIS iter
   Number of Davidson start vectors     ....     2
   Converg. threshold    (grad. norm)   ....   1.000e-05
   Grad. Scal. Fac. for Micro threshold ....   0.100
   Minimum threshold for Micro iter.    ....   1.000e-02
   NR start threshold (gradient norm)   ....   1.000e-04
   Initial trust radius                 ....   0.400
   Minimum AH scaling param. (alpha)    ....   1.000
   Maximum AH scaling param. (alpha)    .... 1000.000
   Quad. conv. algorithm                .... NR
   White noise on init. David. guess    .... on
   Maximum white noise                  ....   0.010
   Pseudo random numbers                .... off
   Inactive MOs                         .... canonical
   Orbital update algorithm             .... Taylor
   Preconditioner                       .... Diag
   Full preconditioner red. dimension   ....   250
 SOSCF                 CNVSOSCF           .... on
   Start iteration     SOSCFMaxIt         ....   150
   Startup grad/error  SOSCFStart         ....  0.003300
   Hessian update      SOSCFHessUp        .... L-BFGS
   Autom. constraints  SOSCFAutoConstrain .... off
 Level Shifting         CNVShift        .... on
   Level shift para.    LevelShift      ....    0.2500
   Turn off err/grad.   ShiftErr        ....    0.0010
 Zerner damping         CNVZerner       .... off
 Static damping         CNVDamp         .... on
   Fraction old density DampFac         ....    0.7000
   Max. Damping (<1)    DampMax         ....    0.9800
   Min. Damping (>=0)   DampMin         ....    0.0000
   Turn off err/grad.   DampErr         ....    0.1000

SCF Procedure:
 Maximum # iterations   MaxIter         ....   125
 SCF integral mode      SCFMode         .... Direct
   Integral package                     .... SHARK and LIBINT hybrid scheme
 Reset frequency        DirectResetFreq ....    20
 Integral Threshold     Thresh          ....  2.500e-11 Eh
 Primitive CutOff       TCut            ....  2.500e-12 Eh

Convergence Tolerance:
 Convergence Check Mode ConvCheckMode   .... Total+1el-Energy
 Convergence forced     ConvForced      .... 0
 Energy Change          TolE            ....  1.000e-08 Eh
 1-El. energy change                    ....  1.000e-05 Eh
 Orbital Gradient       TolG            ....  1.000e-05
 Orbital Rotation angle TolX            ....  1.000e-05
 DIIS Error             TolErr          ....  5.000e-07

------------------------------
INITIAL GUESS: MODEL POTENTIAL
------------------------------
Loading Hartree-Fock densities                     ... done
Calculating cut-offs                               ... done
Initializing the effective Hamiltonian             ... done
Setting up the integral package (SHARK)            ... done
Starting the Coulomb interaction                   ... done (   0.0 sec)
Making the grid                                    ... done (   0.0 sec)
Mapping shells                                     ... done
Starting the XC term evaluation                    ... done (   0.0 sec)
  promolecular density results
     # of electrons  =     31.000270344
     EX              =    -38.955346134
     EC              =      0.000000000
     EX+EC           =    -38.955346134
Transforming the Hamiltonian                       ... done (   0.0 sec)
Diagonalizing the Hamiltonian                      ... done (   0.0 sec)
Back transforming the eigenvectors                 ... done (   0.0 sec)
Now organizing SCF variables                       ... done
                      ------------------
                      INITIAL GUESS DONE (   0.1 sec)
                      ------------------
             **** ENERGY FILE WAS UPDATED (/cluster/projects/nn14654k/ylvaos/basis_set_n_funcs/functionals/gga_x_pw91/PO2/inp/PO2_gga_x_pw91_def2qzvp.en.tmp) ****
Finished Guess after   0.1 sec
Maximum memory used throughout the entire GUESS-calculation: 12.0 MB


           ************************************************************
           *        Program running with 8 parallel MPI-processes     *
           *              working on a common directory               *
           ************************************************************

-------------------------------------------------------------------------------------------
                                      ORCA LEAN-SCF
                              memory conserving SCF solver
-------------------------------------------------------------------------------------------

----------------------------------------D-I-I-S--------------------------------------------
Iteration    Energy (Eh)           Delta-E    RMSDP     MaxDP     DIISErr   Damp  Time(sec)
-------------------------------------------------------------------------------------------
               ***  Starting incremental Fock matrix formation  ***
    1    -490.3849482919042089     0.00e+00  3.46e-03  4.39e-02  1.68e-01  0.700   0.5
Warning: op=1 Small HOMO/LUMO gap (   0.060) - skipping pre-diagonalization
         Will do a full diagonalization
    2    -490.5353600174027520    -1.50e-01  1.56e-03  2.54e-02  3.48e-02  0.700   0.5
                               ***Turning on AO-DIIS***
    3    -490.5645244902042919    -2.92e-02  8.33e-04  2.11e-02  1.81e-02  0.700   0.5
    4    -490.5866623793096437    -2.21e-02  2.05e-03  6.90e-02  2.39e-02  0.000   0.5
    5    -490.6493732647753063    -6.27e-02  5.14e-04  1.34e-02  1.46e-02  0.000   0.5
    6    -490.6515918086708439    -2.22e-03  2.55e-04  6.85e-03  5.49e-03  0.000   0.5
                              *** Initializing SOSCF ***
---------------------------------------S-O-S-C-F--------------------------------------
Iteration    Energy (Eh)           Delta-E    RMSDP     MaxDP     MaxGrad    Time(sec)
--------------------------------------------------------------------------------------
    7    -490.6519117528853826    -3.20e-04  1.60e-04  4.72e-03  2.07e-03     0.5
               *** Restarting incremental Fock matrix formation ***
    8    -490.6519595649825192    -4.78e-05  1.76e-04  4.02e-03  1.37e-03     0.5
    9    -490.6519279223094259     3.16e-05  7.10e-05  1.44e-03  2.70e-03     0.4
   10    -490.6519729689514975    -4.50e-05  2.02e-05  3.99e-04  1.46e-04     0.4
   11    -490.6519733636596925    -3.95e-07  1.33e-05  4.33e-04  8.98e-05     0.4
   12    -490.6519735173672530    -1.54e-07  5.41e-06  1.75e-04  1.46e-05     0.7
   13    -490.6519735244975777    -7.13e-09  8.02e-07  1.57e-05  8.75e-06     0.4
                 **** Energy Check signals convergence ****

               *****************************************************
               *                     SUCCESS                       *
               *           SCF CONVERGED AFTER  13 CYCLES          *
               *****************************************************

             **** ENERGY FILE WAS UPDATED (/cluster/projects/nn14654k/ylvaos/basis_set_n_funcs/functionals/gga_x_pw91/PO2/inp/PO2_gga_x_pw91_def2qzvp.en.tmp) ****

----------------
TOTAL SCF ENERGY
----------------

Total Energy       :       -490.65197352624222 Eh          -13351.31897 eV

Components:
Nuclear Repulsion  :         99.08629604629714 Eh            2696.27519 eV
Electronic Energy  :       -589.73826957253937 Eh          -16047.59416 eV
One Electron Energy:       -875.07467355084850 Eh          -23811.99245 eV
Two Electron Energy:        285.33640397830914 Eh            7764.39829 eV

Virial components:
Potential Energy   :       -981.46832196975220 Eh          -26707.11080 eV
Kinetic Energy     :        490.81634844350992 Eh           13355.79184 eV
Virial Ratio       :          1.99966509893611

DFT components:
N(Alpha)           :       16.000010349451 electrons
N(Beta)            :       15.000001938609 electrons
N(Total)           :       31.000012288060 electrons
E(X)               :      -39.153634029802 Eh       
E(C)               :        0.000000000000 Eh       
E(XC)              :      -39.153634029802 Eh       

---------------
SCF CONVERGENCE
---------------

  Last Energy change         ...    7.1303e-09  Tolerance :   1.0000e-08
  Last MAX-Density change    ...    1.5705e-05  Tolerance :   1.0000e-07
  Last RMS-Density change    ...    8.0218e-07  Tolerance :   5.0000e-09
  Last DIIS Error            ...    2.0688e-03  Tolerance :   5.0000e-07
  Last Orbital Gradient      ...    8.7471e-06  Tolerance :   1.0000e-05
  Last Orbital Rotation      ...    2.4808e-05  Tolerance :   1.0000e-05


----------------------
UHF SPIN CONTAMINATION
----------------------

Warning: in a DFT calculation there is little theoretical justification to 
         calculate <S**2> as in Hartree-Fock theory. We will do it anyways
         but you should keep in mind that the values have only limited relevance

Expectation value of <S**2>     :     0.754489
Ideal value S*(S+1) for S=0.5   :     0.750000
Deviation                       :     0.004489

----------------
ORBITAL ENERGIES
----------------
                 SPIN UP ORBITALS
  NO   OCC          E(Eh)            E(eV) 
   0   1.0000     -76.421628     -2079.5382 
   1   1.0000     -18.796504      -511.4789 
   2   1.0000     -18.796504      -511.4789 
   3   1.0000      -6.369938      -173.3348 
   4   1.0000      -4.596469      -125.0763 
   5   1.0000      -4.593751      -125.0023 
   6   1.0000      -4.589817      -124.8953 
   7   1.0000      -0.953090       -25.9349 
   8   1.0000      -0.908208       -24.7136 
   9   1.0000      -0.479560       -13.0495 
  10   1.0000      -0.383366       -10.4319 
  11   1.0000      -0.369113       -10.0441 
  12   1.0000      -0.368970       -10.0402 
  13   1.0000      -0.301964        -8.2168 
  14   1.0000      -0.294316        -8.0088 
  15   1.0000      -0.244996        -6.6667 
  16   0.0000      -0.095618        -2.6019 
  17   0.0000      -0.002973        -0.0809 
  18   0.0000       0.060421         1.6441 
  19   0.0000       0.080852         2.2001 
  20   0.0000       0.107387         2.9222 
  21   0.0000       0.134077         3.6484 
  22   0.0000       0.180887         4.9222 
  23   0.0000       0.183286         4.9875 
  24   0.0000       0.206815         5.6277 
  25   0.0000       0.235890         6.4189 
  26   0.0000       0.256050         6.9675 

                 SPIN DOWN ORBITALS
  NO   OCC          E(Eh)            E(eV) 
   0   1.0000     -76.419699     -2079.4857 
   1   1.0000     -18.789860      -511.2981 
   2   1.0000     -18.789860      -511.2981 
   3   1.0000      -6.367038      -173.2559 
   4   1.0000      -4.593760      -125.0026 
   5   1.0000      -4.588422      -124.8573 
   6   1.0000      -4.587883      -124.8426 
   7   1.0000      -0.937302       -25.5053 
   8   1.0000      -0.891765       -24.2662 
   9   1.0000      -0.453026       -12.3275 
  10   1.0000      -0.361650        -9.8410 
  11   1.0000      -0.359767        -9.7898 
  12   1.0000      -0.351100        -9.5539 
  13   1.0000      -0.297300        -8.0899 
  14   1.0000      -0.283465        -7.7135 
  15   0.0000      -0.188782        -5.1370 
  16   0.0000      -0.067865        -1.8467 
  17   0.0000       0.014372         0.3911 
  18   0.0000       0.069215         1.8834 
  19   0.0000       0.097041         2.6406 
  20   0.0000       0.114694         3.1210 
  21   0.0000       0.145624         3.9626 
  22   0.0000       0.200457         5.4547 
  23   0.0000       0.201525         5.4838 
  24   0.0000       0.219143         5.9632 
  25   0.0000       0.241250         6.5647 
*Only the first 10 virtual orbitals were printed.

                    ********************************
                    * MULLIKEN POPULATION ANALYSIS *
                    ********************************

--------------------------------------------
MULLIKEN ATOMIC CHARGES AND SPIN POPULATIONS
--------------------------------------------
   0 P :    0.654550    0.639070
   1 O :   -0.327275    0.180465
   2 O :   -0.327275    0.180465
Sum of atomic charges         :   -0.0000000
Sum of atomic spin populations:    1.0000000

-----------------------------------------------------
MULLIKEN REDUCED ORBITAL CHARGES AND SPIN POPULATIONS
-----------------------------------------------------
CHARGE
  0 P s       :     5.582270  s :     5.582270
      pz      :     2.782662  p :     8.099181
      px      :     2.719615
      py      :     2.596904
      dz2     :     0.081591  d :     0.592329
      dxz     :     0.012898
      dyz     :     0.186613
      dx2y2   :     0.129012
      dxy     :     0.182216
      f0      :     0.005970  f :     0.057433
      f+1     :     0.000140
      f-1     :     0.010111
      f+2     :     0.014659
      f-2     :     0.007977
      f+3     :     0.007209
      f-3     :     0.011368
      g0      :     0.001775  g :     0.014235
      g+1     :     0.000159
      g-1     :     0.001621
      g+2     :     0.002903
      g-2     :    -0.000001
      g+3     :     0.001723
      g-3     :     0.002101
      g+4     :     0.001078
      g-4     :     0.002877

  1 O s       :     3.731553  s :     3.731553
      pz      :     1.544693  p :     4.559910
      px      :     1.519539
      py      :     1.495678
      dz2     :     0.005243  d :     0.033248
      dxz     :     0.001708
      dyz     :     0.008168
      dx2y2   :     0.007762
      dxy     :     0.010366
      f0      :     0.000159  f :     0.002461
      f+1     :     0.000005
      f-1     :     0.000606
      f+2     :     0.000382
      f-2     :     0.000319
      f+3     :     0.000623
      f-3     :     0.000367
      g0      :     0.000009  g :     0.000104
      g+1     :     0.000001
      g-1     :     0.000013
      g+2     :     0.000016
      g-2     :    -0.000000
      g+3     :     0.000014
      g-3     :     0.000017
      g+4     :     0.000015
      g-4     :     0.000018

  2 O s       :     3.731553  s :     3.731553
      pz      :     1.544693  p :     4.559910
      px      :     1.519539
      py      :     1.495678
      dz2     :     0.005243  d :     0.033248
      dxz     :     0.001708
      dyz     :     0.008168
      dx2y2   :     0.007762
      dxy     :     0.010366
      f0      :     0.000159  f :     0.002461
      f+1     :     0.000005
      f-1     :     0.000606
      f+2     :     0.000382
      f-2     :     0.000319
      f+3     :     0.000623
      f-3     :     0.000367
      g0      :     0.000009  g :     0.000104
      g+1     :     0.000001
      g-1     :     0.000013
      g+2     :     0.000016
      g-2     :    -0.000000
      g+3     :     0.000014
      g-3     :     0.000017
      g+4     :     0.000015
      g-4     :     0.000018


SPIN
  0 P s       :     0.431864  s :     0.431864
      pz      :     0.158303  p :     0.171694
      px      :     0.032394
      py      :    -0.019003
      dz2     :     0.020152  d :     0.041619
      dxz     :    -0.005006
      dyz     :    -0.003605
      dx2y2   :     0.031112
      dxy     :    -0.001035
      f0      :     0.000396  f :    -0.006506
      f+1     :    -0.000146
      f-1     :    -0.004223
      f+2     :     0.002770
      f-2     :    -0.000805
      f+3     :    -0.003578
      f-3     :    -0.000919
      g0      :     0.000189  g :     0.000399
      g+1     :     0.000005
      g-1     :     0.000168
      g+2     :     0.000298
      g-2     :     0.000001
      g+3     :     0.000110
      g-3     :     0.000005
      g+4     :     0.000004
      g-4     :    -0.000380

  1 O s       :    -0.027988  s :    -0.027988
      pz      :     0.175831  p :     0.208486
      px      :    -0.011298
      py      :     0.043952
      dz2     :     0.000290  d :    -0.000335
      dxz     :     0.000075
      dyz     :    -0.000906
      dx2y2   :    -0.000113
      dxy     :     0.000320
      f0      :     0.000004  f :     0.000289
      f+1     :    -0.000007
      f-1     :     0.000063
      f+2     :     0.000059
      f-2     :     0.000076
      f+3     :     0.000051
      f-3     :     0.000043
      g0      :     0.000001  g :     0.000014
      g+1     :     0.000000
      g-1     :     0.000002
      g+2     :     0.000001
      g-2     :     0.000000
      g+3     :     0.000002
      g-3     :     0.000004
      g+4     :     0.000002
      g-4     :     0.000001

  2 O s       :    -0.027988  s :    -0.027988
      pz      :     0.175831  p :     0.208486
      px      :    -0.011298
      py      :     0.043952
      dz2     :     0.000290  d :    -0.000335
      dxz     :     0.000075
      dyz     :    -0.000906
      dx2y2   :    -0.000113
      dxy     :     0.000320
      f0      :     0.000004  f :     0.000289
      f+1     :    -0.000007
      f-1     :     0.000063
      f+2     :     0.000059
      f-2     :     0.000076
      f+3     :     0.000051
      f-3     :     0.000043
      g0      :     0.000001  g :     0.000014
      g+1     :     0.000000
      g-1     :     0.000002
      g+2     :     0.000001
      g-2     :     0.000000
      g+3     :     0.000002
      g-3     :     0.000004
      g+4     :     0.000002
      g-4     :     0.000001



                     *******************************
                     * LOEWDIN POPULATION ANALYSIS *
                     *******************************

-------------------------------------------
LOEWDIN ATOMIC CHARGES AND SPIN POPULATIONS
-------------------------------------------
   0 P :   -0.111273    0.600259
   1 O :    0.055637    0.199871
   2 O :    0.055637    0.199871

----------------------------------------------------
LOEWDIN REDUCED ORBITAL CHARGES AND SPIN POPULATIONS
----------------------------------------------------
CHARGE
  0 P s       :     5.023880  s :     5.023880
      pz      :     2.846271  p :     8.320541
      px      :     2.676459
      py      :     2.797812
      dz2     :     0.165592  d :     1.279347
      dxz     :     0.018212
      dyz     :     0.405152
      dx2y2   :     0.363736
      dxy     :     0.326655
      f0      :     0.032976  f :     0.384112
      f+1     :     0.000396
      f-1     :     0.110799
      f+2     :     0.075325
      f-2     :     0.047435
      f+3     :     0.041931
      f-3     :     0.075248
      g0      :     0.009272  g :     0.103394
      g+1     :     0.000826
      g-1     :     0.010564
      g+2     :     0.016840
      g-2     :     0.000003
      g+3     :     0.009422
      g-3     :     0.017336
      g+4     :     0.013896
      g-4     :     0.025234

  1 O s       :     3.408890  s :     3.408890
      pz      :     1.464338  p :     4.451208
      px      :     1.409124
      py      :     1.577746
      dz2     :     0.008074  d :     0.073386
      dxz     :     0.001834
      dyz     :     0.027794
      dx2y2   :     0.022144
      dxy     :     0.013540
      f0      :     0.001285  f :     0.010563
      f+1     :     0.000017
      f-1     :     0.001728
      f+2     :     0.002901
      f-2     :     0.000628
      f+3     :     0.001507
      f-3     :     0.002497
      g0      :     0.000020  g :     0.000316
      g+1     :     0.000002
      g-1     :     0.000065
      g+2     :     0.000036
      g-2     :     0.000001
      g+3     :     0.000026
      g-3     :     0.000075
      g+4     :     0.000057
      g-4     :     0.000034

  2 O s       :     3.408890  s :     3.408890
      pz      :     1.464338  p :     4.451208
      px      :     1.409124
      py      :     1.577746
      dz2     :     0.008074  d :     0.073386
      dxz     :     0.001834
      dyz     :     0.027794
      dx2y2   :     0.022144
      dxy     :     0.013540
      f0      :     0.001285  f :     0.010563
      f+1     :     0.000017
      f-1     :     0.001728
      f+2     :     0.002901
      f-2     :     0.000628
      f+3     :     0.001507
      f-3     :     0.002497
      g0      :     0.000020  g :     0.000316
      g+1     :     0.000002
      g-1     :     0.000065
      g+2     :     0.000036
      g-2     :     0.000001
      g+3     :     0.000026
      g-3     :     0.000075
      g+4     :     0.000057
      g-4     :     0.000034


SPIN
  0 P s       :     0.217973  s :     0.217973
      pz      :     0.182761  p :     0.199457
      px      :     0.027916
      py      :    -0.011220
      dz2     :     0.071392  d :     0.175805
      dxz     :    -0.004642
      dyz     :    -0.003098
      dx2y2   :     0.112993
      dxy     :    -0.000840
      f0      :     0.000110  f :    -0.003316
      f+1     :    -0.000129
      f-1     :    -0.001272
      f+2     :     0.001442
      f-2     :    -0.000569
      f+3     :    -0.003624
      f-3     :     0.000726
      g0      :     0.001922  g :     0.010340
      g+1     :    -0.000010
      g-1     :     0.000412
      g+2     :     0.004224
      g-2     :     0.000002
      g+3     :    -0.000080
      g-3     :     0.000194
      g+4     :     0.003742
      g-4     :    -0.000065

  1 O s       :     0.017971  s :     0.017971
      pz      :     0.141947  p :     0.176479
      px      :    -0.009768
      py      :     0.044300
      dz2     :     0.000950  d :     0.004797
      dxz     :     0.000135
      dyz     :     0.003298
      dx2y2   :    -0.000109
      dxy     :     0.000523
      f0      :    -0.000011  f :     0.000607
      f+1     :    -0.000006
      f-1     :     0.000367
      f+2     :     0.000079
      f-2     :     0.000071
      f+3     :     0.000063
      f-3     :     0.000043
      g0      :     0.000002  g :     0.000016
      g+1     :     0.000000
      g-1     :     0.000003
      g+2     :     0.000006
      g-2     :     0.000000
      g+3     :     0.000002
      g-3     :    -0.000000
      g+4     :     0.000002
      g-4     :     0.000001

  2 O s       :     0.017971  s :     0.017971
      pz      :     0.141947  p :     0.176479
      px      :    -0.009768
      py      :     0.044300
      dz2     :     0.000950  d :     0.004797
      dxz     :     0.000135
      dyz     :     0.003298
      dx2y2   :    -0.000109
      dxy     :     0.000523
      f0      :    -0.000011  f :     0.000607
      f+1     :    -0.000006
      f-1     :     0.000367
      f+2     :     0.000079
      f-2     :     0.000071
      f+3     :     0.000063
      f-3     :     0.000043
      g0      :     0.000002  g :     0.000016
      g+1     :     0.000000
      g-1     :     0.000003
      g+2     :     0.000006
      g-2     :     0.000000
      g+3     :     0.000002
      g-3     :    -0.000000
      g+4     :     0.000002
      g-4     :     0.000001



                      *****************************
                      * MAYER POPULATION ANALYSIS *
                      *****************************

  NA   - Mulliken gross atomic population
  ZA   - Total nuclear charge
  QA   - Mulliken gross atomic charge
  VA   - Mayer's total valence
  BVA  - Mayer's bonded valence
  FA   - Mayer's free valence

  ATOM       NA         ZA         QA         VA         BVA        FA
  0 P     14.3454    15.0000     0.6546     4.6357     4.1677     0.4679
  1 O      8.3273     8.0000    -0.3273     2.2550     2.2194     0.0356
  2 O      8.3273     8.0000    -0.3273     2.2550     2.2194     0.0356

  Mayer bond orders larger than 0.100000
B(  0-P ,  1-O ) :   2.0839 B(  0-P ,  2-O ) :   2.0839 B(  1-O ,  2-O ) :   0.1355 


-------
TIMINGS
-------

Total SCF time: 0 days 0 hours 0 min 7 sec 

Total time                  ....       7.027 sec
Sum of individual times     ....       6.592 sec  ( 93.8%)

SCF preparation             ....       0.078 sec  (  1.1%)
Fock matrix formation       ....       5.877 sec  ( 83.6%)
  Startup                   ....       0.019 sec  (  0.3% of F)
  Coulomb formation         ....       4.974 sec  ( 84.6% of F)
  XC integration            ....       0.598 sec  ( 10.2% of F)
    Basis function eval.    ....       0.052 sec  (  8.6% of XC)
    Density eval.           ....       0.079 sec  ( 13.1% of XC)
    XC-Functional eval.     ....       0.015 sec  (  2.5% of XC)
    XC-Potential eval.      ....       0.215 sec  ( 36.0% of XC)
Diagonalization             ....       0.000 sec  (  0.0%)
Density matrix formation    ....       0.122 sec  (  1.7%)
Total Energy calculation    ....       0.034 sec  (  0.5%)
Population analysis         ....       0.017 sec  (  0.2%)
Orbital Transformation      ....       0.047 sec  (  0.7%)
Orbital Orthonormalization  ....       0.000 sec  (  0.0%)
DIIS solution               ....       0.288 sec  (  4.1%)
SOSCF solution              ....       0.129 sec  (  1.8%)
Finished LeanSCF after   7.1 sec

Maximum memory used throughout the entire LEANSCF-calculation: 34.6 MB


           ************************************************************
           *        Program running with 8 parallel MPI-processes     *
           *              working on a common directory               *
           ************************************************************

------------------------------------------------------------------------------
                         ORCA PROPERTY INTEGRAL CALCULATIONS
------------------------------------------------------------------------------

GBWName                                   ... /cluster/projects/nn14654k/ylvaos/basis_set_n_funcs/functionals/gga_x_pw91/PO2/inp/PO2_gga_x_pw91_def2qzvp.gbw
Number of atoms                           ...      3
Number of basis functions                 ...    184
Max core memory                           ...   4096 MB

Dipole integrals                          ... YES
Quadrupole integrals                      ... YES
Linear momentum integrals                 ...  NO
Angular momentum integrals                ...  NO
Higher moments length integrals           ...  NO
Higher moments velocity integrals         ...  NO
Kinetic energy integrals                  ...  NO
GIAO right hand sides                     ...  NO
GIAO dipole derivative integrals          ...  NO
SOC integrals                             ...  NO
EPR diamagnetic integrals (GIAO)          ...  NO
EPR gauge integrals                       ...  NO
Field gradient integrals                  ...  NO (   0 nuclei)
Spin-dipole/Fermi contact integrals       ...  NO (   0 nuclei)
Contact density integrals                 ...  NO (   0 nuclei)
Nucleus-orbit integrals                   ...  NO (   0 nuclei)
Geometric perturbations                   ...  NO (   3 nuclei)

Choice of electric origin   ... Center of mass
Position of electric origin ... (  0.0000,  0.0000,  0.0084) 
Choice of magnetic origin   ... GIAO
Position of magnetic origin ... (  0.0000,  0.0000,  0.0000) 

Calculating integrals                     ... Electric Dipole (Length)     done (  0.0 sec)
Calculating integrals                     ... Electric Quadrupole (Length) done (  0.0 sec)

Property integrals calculated in   0.0 sec

Maximum memory used throughout the entire PROPINT-calculation: 13.0 MB
------------------------------------------------------------------------------
                           ORCA ORBITAL LOCALIZATION
------------------------------------------------------------------------------

Input orbitals are from                  ... /cluster/projects/nn14654k/ylvaos/basis_set_n_funcs/functionals/gga_x_pw91/PO2/inp/PO2_gga_x_pw91_def2qzvp.gbw
Output orbitals are to                   ... /cluster/projects/nn14654k/ylvaos/basis_set_n_funcs/functionals/gga_x_pw91/PO2/inp/PO2_gga_x_pw91_def2qzvp.loc
Max. number of iterations                ... 128
Localizations seeded randomly            ... on
Convergence tolerance                    ... 1.000e-06
Threshold for strong local MOs           ... 9.500e-01
Threshold for bond MOs                   ... 8.500e-01
Operator                                 ... 0
Orbital range for localization           ... 4 to 15
Localization criterion                   ... NEW-BOYS
Doing the dipole integrals               ... o.k.
Initial value of the localization sum :    32.805590
ITERATION   0 : L=   47.6901781308 DL=  1.49e+01 (AVERGE_DL)=    0.4748937318 
ITERATION   1 : L=   50.1355859786 DL=  2.45e+00 (AVERGE_DL)=    0.1924880102 
ITERATION   2 : L=   50.3605740068 DL=  2.25e-01 (AVERGE_DL)=    0.0583858674 
ITERATION   3 : L=   50.3690966110 DL=  8.52e-03 (AVERGE_DL)=    0.0113635543 
ITERATION   4 : L=   50.3713416843 DL=  2.25e-03 (AVERGE_DL)=    0.0058323462 
ITERATION   5 : L=   50.3720104323 DL=  6.69e-04 (AVERGE_DL)=    0.0031831659 
ITERATION   6 : L=   50.3722047462 DL=  1.94e-04 (AVERGE_DL)=    0.0017158527 
ITERATION   7 : L=   50.3722595629 DL=  5.48e-05 (AVERGE_DL)=    0.0009113488 
ITERATION   8 : L=   50.3722748447 DL=  1.53e-05 (AVERGE_DL)=    0.0004811874 
ITERATION   9 : L=   50.3722790780 DL=  4.23e-06 (AVERGE_DL)=    0.0002532634 
ITERATION  10 : L=   50.3722802445 DL=  1.17e-06 (AVERGE_DL)=    0.0001329421 
ITERATION  11 : L=   50.3722805647 DL=  3.20e-07 (AVERGE_DL)=    0.0000696559 
LOCALIZATION SUM CONVERGED


--------------------------------------------------------------------------------
                    LOCALIZED MOLECULAR ORBITAL COMPOSITIONS
--------------------------------------------------------------------------------

The Mulliken populations for each LMO on each atom are computed
The LMO`s will be ordered according to atom index and type
  (A) Strongly localized MO`s have populations of >=0.950 on one atom
  (B) Two center bond orbitals have populations of >=0.850 on two atoms
  (C) Other MO`s are considered to be `delocalized`

FOUND  -   4 strongly local MO`s
       -   8 two center bond MO`s
       -   0 significantly delocalized MO`s

Rather strongly localized orbitals:
MO   7:   0P  -   1.120893
MO   6:   0P  -   1.000457
MO   5:   0P  -   1.000457
MO   4:   0P  -   0.999443
Bond-like localized orbitals:
MO  15:   2O  -   0.748624  and   0P  -   0.250956
MO  14:   2O  -   0.895253  and   0P  -   0.106794
MO  13:   2O  -   0.922687  and   0P  -   0.077027
MO  12:   2O  -   0.748626  and   0P  -   0.250947
MO  11:   1O  -   0.895260  and   0P  -   0.106786
MO  10:   1O  -   0.748624  and   0P  -   0.250952
MO   9:   1O  -   0.748623  and   0P  -   0.250954
MO   8:   1O  -   0.922683  and   0P  -   0.077033
Localized MO's were stored in: /cluster/projects/nn14654k/ylvaos/basis_set_n_funcs/functionals/gga_x_pw91/PO2/inp/PO2_gga_x_pw91_def2qzvp.loc
------------------------------------------------------------------------------
                           ORCA ORBITAL LOCALIZATION
------------------------------------------------------------------------------

Input orbitals are from                  ... /cluster/projects/nn14654k/ylvaos/basis_set_n_funcs/functionals/gga_x_pw91/PO2/inp/PO2_gga_x_pw91_def2qzvp.loc
Output orbitals are to                   ... /cluster/projects/nn14654k/ylvaos/basis_set_n_funcs/functionals/gga_x_pw91/PO2/inp/PO2_gga_x_pw91_def2qzvp.loc
Max. number of iterations                ... 128
Localizations seeded randomly            ... on
Convergence tolerance                    ... 1.000e-06
Threshold for strong local MOs           ... 9.500e-01
Threshold for bond MOs                   ... 8.500e-01
Operator                                 ... 1
Orbital range for localization           ... 4 to 14
Localization criterion                   ... NEW-BOYS
Doing the dipole integrals               ... o.k.
Initial value of the localization sum :    29.266839
ITERATION   0 : L=   40.4813446011 DL=  1.12e+01 (AVERGE_DL)=    0.4515529928 
ITERATION   1 : L=   42.9093545655 DL=  2.43e+00 (AVERGE_DL)=    0.2101086284 
ITERATION   2 : L=   43.2244632112 DL=  3.15e-01 (AVERGE_DL)=    0.0756917968 
ITERATION   3 : L=   43.2603933048 DL=  3.59e-02 (AVERGE_DL)=    0.0255592337 
ITERATION   4 : L=   43.2657458525 DL=  5.35e-03 (AVERGE_DL)=    0.0098650418 
ITERATION   5 : L=   43.2675685355 DL=  1.82e-03 (AVERGE_DL)=    0.0057567083 
ITERATION   6 : L=   43.2688008180 DL=  1.23e-03 (AVERGE_DL)=    0.0047334064 
ITERATION   7 : L=   43.2697265482 DL=  9.26e-04 (AVERGE_DL)=    0.0041026161 
ITERATION   8 : L=   43.2704258788 DL=  6.99e-04 (AVERGE_DL)=    0.0035658241 
ITERATION   9 : L=   43.2709524831 DL=  5.27e-04 (AVERGE_DL)=    0.0030942887 
ITERATION  10 : L=   43.2713475730 DL=  3.95e-04 (AVERGE_DL)=    0.0026801965 
ITERATION  11 : L=   43.2716431373 DL=  2.96e-04 (AVERGE_DL)=    0.0023181665 
ITERATION  12 : L=   43.2718637958 DL=  2.21e-04 (AVERGE_DL)=    0.0020029909 
ITERATION  13 : L=   43.2720283135 DL=  1.65e-04 (AVERGE_DL)=    0.0017295178 
ITERATION  14 : L=   43.2721508853 DL=  1.23e-04 (AVERGE_DL)=    0.0014928424 
ITERATION  15 : L=   43.2722421770 DL=  9.13e-05 (AVERGE_DL)=    0.0012883509 
ITERATION  16 : L=   43.2723101713 DL=  6.80e-05 (AVERGE_DL)=    0.0011118722 
ITERATION  17 : L=   43.2723608238 DL=  5.07e-05 (AVERGE_DL)=    0.0009596645 
ITERATION  18 : L=   43.2723985746 DL=  3.78e-05 (AVERGE_DL)=    0.0008284787 
ITERATION  19 : L=   43.2724267186 DL=  2.81e-05 (AVERGE_DL)=    0.0007153385 
ITERATION  20 : L=   43.2724477177 DL=  2.10e-05 (AVERGE_DL)=    0.0006179010 
ITERATION  21 : L=   43.2724633903 DL=  1.57e-05 (AVERGE_DL)=    0.0005338132 
ITERATION  22 : L=   43.2724750972 DL=  1.17e-05 (AVERGE_DL)=    0.0004613598 
ITERATION  23 : L=   43.2724838480 DL=  8.75e-06 (AVERGE_DL)=    0.0003988810 
ITERATION  24 : L=   43.2724903909 DL=  6.54e-06 (AVERGE_DL)=    0.0003449091 
ITERATION  25 : L=   43.2724952890 DL=  4.90e-06 (AVERGE_DL)=    0.0002984227 
ITERATION  26 : L=   43.2724989560 DL=  3.67e-06 (AVERGE_DL)=    0.0002582110 
ITERATION  27 : L=   43.2725017052 DL=  2.75e-06 (AVERGE_DL)=    0.0002235711 
ITERATION  28 : L=   43.2725037649 DL=  2.06e-06 (AVERGE_DL)=    0.0001935198 
ITERATION  29 : L=   43.2725053105 DL=  1.55e-06 (AVERGE_DL)=    0.0001676336 
ITERATION  30 : L=   43.2725064709 DL=  1.16e-06 (AVERGE_DL)=    0.0001452567 
ITERATION  31 : L=   43.2725073427 DL=  8.72e-07 (AVERGE_DL)=    0.0001258994 
LOCALIZATION SUM CONVERGED


--------------------------------------------------------------------------------
                    LOCALIZED MOLECULAR ORBITAL COMPOSITIONS
--------------------------------------------------------------------------------

The Mulliken populations for each LMO on each atom are computed
The LMO`s will be ordered according to atom index and type
  (A) Strongly localized MO`s have populations of >=0.950 on one atom
  (B) Two center bond orbitals have populations of >=0.850 on two atoms
  (C) Other MO`s are considered to be `delocalized`

FOUND  -   3 strongly local MO`s
       -   8 two center bond MO`s
       -   0 significantly delocalized MO`s

Rather strongly localized orbitals:
MO   6:   0P  -   0.999757
MO   5:   0P  -   0.999757
MO   4:   0P  -   1.000066
Bond-like localized orbitals:
MO  14:   2O  -   0.779559  and   0P  -   0.220197
MO  13:   2O  -   0.779325  and   0P  -   0.220449
MO  12:   2O  -   0.926743  and   0P  -   0.071214
MO  11:   2O  -   0.582094  and   0P  -   0.415200
MO  10:   1O  -   0.779747  and   0P  -   0.220006
MO   9:   1O  -   0.582130  and   0P  -   0.415163
MO   8:   1O  -   0.779100  and   0P  -   0.220679
MO   7:   1O  -   0.926743  and   0P  -   0.071213
Localized MO's were stored in: /cluster/projects/nn14654k/ylvaos/basis_set_n_funcs/functionals/gga_x_pw91/PO2/inp/PO2_gga_x_pw91_def2qzvp.loc

-------------------------   --------------------
FINAL SINGLE POINT ENERGY      -490.651973526242
-------------------------   --------------------



           ************************************************************
           *        Program running with 8 parallel MPI-processes     *
           *              working on a common directory               *
           ************************************************************

------------------------------------------------------------------------------
                              ORCA PROPERTY CALCULATIONS
------------------------------------------------------------------------------

GBWName                                 ... /cluster/projects/nn14654k/ylvaos/basis_set_n_funcs/functionals/gga_x_pw91/PO2/inp/PO2_gga_x_pw91_def2qzvp.gbw
Number of atoms                         ...      3
Number of basis functions               ...    184
Max core memory                         ...   4096 MB

Electric properties:
Dipole moment                           ... YES
Quadrupole moment                       ... YES
Static polarizability (Dipole/Dipole)   ...  NO
Static polarizability (Dipole/Quad.)    ...  NO
Static polarizability (Quad./Quad.)     ...  NO
Static polarizability (Velocity)        ...  NO
Static hyperpolarizability              ...  NO

Atomic electric properties:
Dipole moment                           ...  NO
Quadrupole moment                       ...  NO
Static polarizability                   ...  NO

Choice of electric origin               ... Center of mass
Position of electric origin             ...     0.000000     0.000000     0.008437

General magnetic properties:
Magnetizability                         ...  NO

EPR properties:
g-Tensor (aka g-matrix)                 ...  NO
Zero-Field splitting spin-orbit         ...  NO
Zero-field splitting spin-spin          ...  NO
Hyperfine couplings                     ...  NO (   0 nuclei)
Quadrupole couplings                    ...  NO (   0 nuclei)
Contact density                         ...  NO (   0 nuclei)

NMR properties:
Chemical shifts                         ...  NO (   0 nuclei)
Spin-rotation constants                 ...  NO (   0 nuclei)
Spin-spin couplings                     ...  NO (   0 nuclei,    0 pairs)

Choice of magnetic origin               ... GIAO
Position of magnetic origin             ...     0.000000     0.000000     0.000000

Properties with geometric perturbations:
SCF Hessian                             ...  NO
IR spectrum                             ...  NO
VCD spectrum                            ...  NO
X-ray spectroscopy properties:
SCF XES/XAS/RIXS spectra                ...  NO

SCF SOC stabilization energy            ...  NO
Diagonal Born-Oppenheimer correction    ...  NO

-------------
DIPOLE MOMENT
-------------

Method             : SCF
Type of density    : Electron Density
Multiplicity       :   2
Irrep              :   0
Energy             :  -490.6519735262422159 Eh
Basis              : AO
                                X                 Y                 Z
Electronic contribution:      0.000000000       0.000000003       0.766882946
Nuclear contribution   :      0.000000000       0.000000000      -0.261362976
                        -----------------------------------------
Total Dipole Moment    :      0.000000000       0.000000003       0.505519970
                        -----------------------------------------
Magnitude (a.u.)       :      0.505519970
Magnitude (Debye)      :      1.284929649



--------------------
Rotational spectrum 
--------------------
 
Rotational constants in cm-1:             3.442444             0.286393             0.264396 
Rotational constants in MHz :        103201.869580          8585.841533          7926.407020 

Dipole components along the rotational axes: 
x,y,z [a.u.] :     0.000000     0.505520     0.000000 
x,y,z [Debye]:     0.000000     1.284930     0.000000 

 

Dipole moment calculation done in   0.0 sec 

-----------------
QUADRUPOLE MOMENT
-----------------

Method             : SCF
Type of density    : Electron Density
Multiplicity       :   2
Irrep              :   0
Energy             :  -490.6519735262422159 Eh
Basis              : AO

                XX              YY              ZZ              XY              XZ              YZ
  NUC        0.000000000   105.106420135     8.604299986     0.000000000     0.000000000     0.000000000
  EL       -15.884449900  -126.519826464   -25.231214129    -0.000000000     0.000000000     0.000000006
  TOT      -15.884449900   -21.413406329   -16.626914143    -0.000000000     0.000000000     0.000000006 (a.u.)
           -21.365128363   -28.801763851   -22.363768163    -0.000000000     0.000000000     0.000000008 (Buckingham)

diagonalized tensor:
           -21.413406329   -16.626914143   -15.884449900 (a.u.)
           -28.801763851   -22.363768163   -21.365128363 (Buckingham)
           -13.874631176     5.439355889     8.435275287 (traceless form in Buckingham)

             0.000000000     0.000000000     1.000000000
             1.000000000    -0.000000001    -0.000000000
            -0.000000001    -1.000000000     0.000000000
        
Isotropic quadrupole :   -17.974923457

Quadrupole moment calculation done in   0.0 sec (  0.0 sec for integrals)

Maximum memory used throughout the entire PROP-calculation: 8.0 MB

--------------------------------
SUGGESTED CITATIONS FOR THIS RUN
--------------------------------

Below you find a list of papers that are relevant to this ORCA run
We neither can nor want to force you to cite these papers, but we appreciate if you do
You receive ORCA, which is the product of decades of hard work by many enthusiastic individuals, for free
The only thing we kindly ask in return is that you cite our papers,
We deeply appreciate it, if you show your appreciation for ORCA by not just citing the generic ORCA reference.

Please note that relegating all ORCA citations to the supporting information does *not* help us.
SI sections are not indexed - citations you put there will not count into any citation statistics
But we need these citations in order to attract the funding resources that allow us to do what we are doing

Therefore, if you are a happy ORCA user, please consider citing a few of the papers listed below in the main body of your paper

In addition to the list printed below, the program has created the file /cluster/projects/nn14654k/ylvaos/basis_set_n_funcs/functionals/gga_x_pw91/PO2/inp/PO2_gga_x_pw91_def2qzvp.bibtex that contains the list in bibtex format
You can import this file easily into all common literature databanks and citation aid programs

It goes without saying that in many instances, there are alternative algorithms to achieve similar
results as the ones you have gotten from ORCA. It is, of course, also the case that in some instances
ORCA just re-implements algorithms worked out by others. We are fully aware of that and we are also
fully appreciative of our colleagues work. Hence this citation list should not be read as indicating
that the listed papers, which are focused on our own work, are the only ones worth citing. It simply
meant to make it easier for users to cite ORCA specific papers. It is not a substitute for doing your
own literature research and citing the relevant literature in a scientifically appropriate manner.

List of essential papers. We consider these as the minimum necessary citations

  1. Neese, F.
     Software update: the ORCA program system, version 6.0
     WIRES Comput. Molec. Sci. 2025 15(1), e70019
     doi.org/10.1002/wcms.70019

List of papers to cite with high priority. The work reported in these papers was absolutely
necessary for this run to complete.
Our perspective: the developers of density functionals and basis sets usually get cited in chemistry papers
Good! But without the algorithms to do something with them, the functionals or basis sets would not do anything.
Hence, in our opinion, the algorithm design and method developments papers are equally worthy of getting cited

  1. Lehtola, S.; Steigemann, C.; Oliveira, M.; Marques, M.
     Recent developments in Libxc - A comprehensive library of functionals for density functional theory
     Software X 2018 7 , 
     doi.org/10.1016/j.softx.2017.11.002
  2. Neese, F.
     The SHARK Integral Generation and Digestion System
     J. Comp. Chem. 2022 44(3), 381
     doi.org/10.1002/jcc.26942

List of suggested additional citations. These are papers that are important in the 'surrounding' of 
of this run, or papers that preceded the highly important papers. If you like your results we are grateful for a citation.

  1. Neese, F.
     The ORCA program system
     WIRES Comput. Molec. Sci. 2012 2(1), 73-78
     doi.org/10.1002/wcms.81
  2. Neese, F.
     Software update: the ORCA program system, version 4.0
     WIRES Comput. Molec. Sci. 2018 8(1), 1-6
     doi.org/10.1002/wcms.1327
  3. Neese, F.; Wennmohs, F.; Becker, U.; Riplinger, C.
     The ORCA quantum chemistry program package
     J. Chem. Phys. 2020 152(22), 224108
     doi.org/10.1063/5.0004608
  4. Neese, F.
     Software update: The ORCA program system—Version 5.0
     WIRES Comput. Molec. Sci. 2022 12(1), e1606
     doi.org/10.1002/wcms.1606

List of optional additional citations

  1. Neese, F.
     Approximate second-order SCF convergence for spin unrestricted wavefunctions
     Chem. Phys. Lett. 2000 325(1-3), 93-98
     doi.org/10.1016/s0009-2614(00)00662-x

Timings for individual modules:

Sum of individual times          ...        8.752 sec (=   0.146 min)
Startup calculation              ...        0.603 sec (=   0.010 min)   6.9 %
SCF iterations                   ...        7.608 sec (=   0.127 min)  86.9 %
Property integrals               ...        0.260 sec (=   0.004 min)   3.0 %
Property calculations            ...        0.270 sec (=   0.005 min)   3.1 %
Orbital localization             ...        0.009 sec (=   0.000 min)   0.1 %
                             ****ORCA TERMINATED NORMALLY****
TOTAL RUN TIME: 0 days 0 hours 0 minutes 9 seconds 476 msec
