
                                 *****************
                                 * O   R   C   A *
                                 *****************

                                            #,                                       
                                            ###                                      
                                            ####                                     
                                            #####                                    
                                            ######                                   
                                           ########,                                 
                                     ,,################,,,,,                         
                               ,,#################################,,                 
                          ,,##########################################,,             
                       ,#########################################, ''#####,          
                    ,#############################################,,   '####,        
                  ,##################################################,,,,####,       
                ,###########''''           ''''###############################       
              ,#####''   ,,,,##########,,,,          '''####'''          '####       
            ,##' ,,,,###########################,,,                        '##       
           ' ,,###''''                  '''############,,,                           
         ,,##''                                '''############,,,,        ,,,,,,###''
      ,#''                                            '''#######################'''  
     '                                                          ''''####''''         
             ,#######,   #######,   ,#######,      ##                                
            ,#'     '#,  ##    ##  ,#'     '#,    #''#        ,####,    ,#,          
            ##       ##  ##   ,#'  ##            #'  '#       #'       ,# #          
            ##       ##  #######   ##           ,######,      #####,      #          
            '#,     ,#'  ##    ##  '#,     ,#' ,#      #,     #,   #      #          
             '#######'   ##     ##  '#######'  #'      '#     '####' #    #          



                #########################################################
                #                        -***-                          #
                #          Department of theory and spectroscopy        #
                #                                                       #
                #                      Frank Neese                      #
                #                                                       #
                #     Directorship, Architecture, Infrastructure        #
                #                    SHARK, DRIVERS                     #
                #        Core code/Algorithms in most modules           #
                #                                                       #
                #        Max Planck Institute fuer Kohlenforschung      #
                #                Kaiser Wilhelm Platz 1                 #
                #                 D-45470 Muelheim/Ruhr                 #
                #                      Germany                          #
                #                                                       #
                #                  All rights reserved                  #
                #                        -***-                          #
                #########################################################


                         Program Version 6.1.1  -  RELEASE   -
                                (GIT: $487d211c$)
                          ($2025-11-21 10:33:24 +0100$)


 With contributions from (in alphabetic order):
[Max-Planck-Institut fuer Kohlenforschung]                               
  Daniel Aravena         : Magnetic Suceptibility                        
  Michael Atanasov       : Ab Initio Ligand Field Theory (pilot matlab implementation)
  Alexander A. Auer      : GIAO ZORA, VPT2 properties, NMR spectrum      
  Ute Becker             : All parallelization in ORCA, NUMFREQ, NUMCALC 
  Giovanni Bistoni       : ED, misc. LED, open-shell LED, HFLD           
  Dmytro Bykov           : pre 5.0 version of the SCF Hessian            
  Marcos Casanova-Páez   : Triplet and SCS-CIS(D). UHF-(DLPNO)-IP/EA/STEOM-CCSD. UHF-CVS-IP/STEOM-CCSD   
  Vijay G. Chilkuri      : MRCI spin determinant printing, contributions to CSF-ICE 
  Pauline Colinet        : FMM embedding                                 
  Dipayan Datta          : RHF DLPNO-CCSD density                        
  Achintya Kumar Dutta   : EOM-CC, STEOM-CC                              
  Nicolas Foglia         : Exact transition moments, OPA infrastructure, MCD improvements    
  Dmitry Ganyushin       : Spin-Orbit,Spin-Spin,Magnetic field MRCI      
  Miquel Garcia-Rates    : C-PCM and meta-GGA Hessian, CCSD/C-PCM, Gaussian charge scheme 
  Tiago L. C. Gouveia    : GS-ROHF, GS-ROCIS                             
  Yang Guo               : DLPNO-NEVPT2, F12-NEVPT2, CIM, IAO-localization        
  Andreas Hansen         : Spin unrestricted coupled pair/coupled cluster methods 
  Ingolf Harden          : AUTO-CI MPn and infrastructure                
  Benjamin Helmich-Paris : MC-RPA, TRAH-(SCF,CASSCF), AVAS, COSX integrals, SCF dyn. polar., MC-PDFT, srDFT 
  Lee Huntington         : MR-EOM, pCC                                   
  Robert Izsak           : Overlap fitted RIJCOSX, COSX-SCS-MP3, EOM     
  Riya Kayal             : Wick's Theorem for AUTO-CI, AUTO-CI UHF-CCSDT 
  Emily Kempfer          : AUTO-CI RHF CISDT and CCSDT, approximate NEVPT4
  Christian Kollmar      : KDIIS, OOCD, Brueckner-CCSD(T), CCSD density, CASPT2, CASPT2-K, improved NEVPT2 
  Axel Koslowski         : Symmetry handling                             
  Simone Kossmann        : meta-GGA functionals, TD-DFT gradient, OOMP2, (MP2 Hessian; deprecated post 5.0) 
  Lucas Lang             : DCDCAS, Hyperfine gauge corrections, ICE-SOC+SSC
  Marvin Lechner         : AUTO-CI (C++ implementation), FIC-MRCC        
  Spencer Leger          : CASSCF response                               
  Dagmar Lenk            : GEPOL surface, SMD, ORCA-2-JSON               
  Dimitrios Liakos       : Extrapolation schemes; Compound Job, Property file
  Dimitrios Manganas     : Further ROCIS development; embedding schemes. LFT, Crystal Embedding 
  Dimitrios Pantazis     : SARC Basis sets                               
  Anastasios Papadopoulos: AUTO-CI, single reference methods and gradients 
  Taras Petrenko         : pre 6.0 DFT Hessian and TD-DFT gradient,  ECA, NRVS 
  Petra Pikulova         : Analytic Raman intensities                    
  Peter Pinski           : DLPNO-MP2, DLPNO-MP2 Gradient                 
  Shashank Vittal Rao    : ES-AILFT, MagRelax                            
  Christoph Reimann      : Effective Core Potentials                     
  Marius Retegan         : Local ZFS, SOC                                
  Christoph Riplinger    : Optimizer, TS searches, QM/MM, DLPNO-CCSD(T), (RO)-DLPNO pert. Triples 
  Michael Roemelt        : Original ROCIS implementation, recursive CI coupling coefficients
  Masaaki Saitow         : Open-shell DLPNO-CCSD energy and density      
  Barbara Sandhoefer     : DKH picture change effects                    
  Yorick L. A. Schmerwitz: GMF and freeze-and-release deltaSCF, NEB S-IDPP initial path                    
  Kantharuban Sivalingam : CASSCF convergence/infrastructure, NEVPT2, NEVPT3, NEVPT4(SD), FIC-MRCI and CEPA variants
  Bernardo de Souza      : ESD, SOC TD-DFT                               
  Georgi L. Stoychev     : AutoAux, RI-MP2 NMR, DLPNO-MP2 response, X2C  
  Van Anh Tran           : RI-MP2 g-tensors                              
  Willem Van den Heuvel  : Paramagnetic NMR                              
  Zikuan Wang            : NOTCH, Electric field optimization            
  Frank Wennmohs         : Technical directorship and infrastructure     
  Hang Xu                : AUTO-CI-Response properties                   
                                                                         
[FACCTs GmbH]                                                            
  Markus Bursch, Nicolas Foglia, Miquel Garcia-Rates, Ingolf Harden, Hagen Neugebauer, Anastasios Papadopoulos, 
  Christoph Riplinger, Bernardo de Souza, Georgi L. Stoychev                                                    
                                                                 
  APM, various basis sets, CI-OPT, improved COSX, DLPNO-Multilevel,           
  DOCKER, DRACO, updates on ESD, Fragmentator, GOAT, IRC, LR-CPCM, L-BFGS, MBIS, meta-GGA TD-DFT gradient, ML-optimized integration grids, 
  MM, NACMEs, nearIR, NEB, NEB-TS, NL-DFT gradient (VV10), 2- and 3-layer-ONIOM, interface openCOSMO-RS, QMMM,   
  Crystal-QMMM, RESP, rigid body optimization, SF, symmetry and pop. for TD-DFT, various functionals, SOLVATOR                                   
                                                                         
[Other institutions]                                                     
  V. Asgeirsson          : NEB                                           
  Christoph Bannwarth    : sTDA-DFT, sTD-DFT, PBEh-3c, B97-3c, D3        
  Giovanni Bistoni       : ETS/NOCV, ADLD/ADEX, COVALED                  
  Martin Brehm           : Molecular dynamics                            
  Ronald Cardenas        : ETS/NOCV                                      
  Martina Colucci        : COVALED                                       
  Sebastian Ehlert       : rSCAN, r2SCAN, r2SCAN-3c, D4, dhf basis sets  
  Marvin Friede          : D4 for Fr, Ra, Ac-Lr                          
  Lars Goerigk           : TD-DFT with DH, B97 family of functionals     
  Stefan Grimme          : VdW corrections, initial TS optimization, DFT functionals, gCP, sTDA/sTD-DF 
  Waldemar Hujo          : DFT-NL                                        
  H. Jonsson             : NEB                                           
  Holger Kruse           : gCP                                           
  Marcel Mueller         : wB97X-3c, vDZP basis set                      
  Hagen Neugebauer       : wr2SCAN, Native XTB                           
  Gianluca Regni         : ADLD/ADEX                                     
  Tobias Risthaus        : pre 6.0 range-separated hybrid DFT and stability analysis
  Lukas Wittmann         : regularized MP2, r2SCAN double-hybrids, wr2SCAN        
                                                                         
We gratefully acknowledge several colleagues who have allowed us to      
interface, adapt or use parts of their codes:                            
  Ed Valeev, F. Pavosevic, A. Kumar             : LibInt (2-el integral package), F12 methods 
  Garnet Chan, S. Sharma, J. Yang, R. Olivares  : DMRG                   
  Ulf Ekstrom                                   : XCFun DFT Library      
  Mihaly Kallay                                 : mrcc  (arbitrary order and MRCC methods)
  Frank Weinhold                                : gennbo (NPA and NBO analysis)           
  Simon Mueller                                 : openCOSMO-RS                            
  Christopher J. Cramer and Donald G. Truhlar   : smd solvation model                     
  S Lehtola, MJT Oliveira, MAL Marques          : LibXC Library                           
  Liviu Ungur et al                             : ANISO software                          


 Your calculation uses the libint2 library for the computation of 2-el integrals
 For citations please refer to: http://libint.valeyev.net

 Your ORCA version has been built with support for libXC version: 7.0.0
 For citations please refer to: https://libxc.gitlab.io

 This ORCA versions uses:
   CBLAS   interface :  Fast vector & matrix operations
   LAPACKE interface :  Fast linear algebra routines
   SCALAPACK package :  Parallel linear algebra routines
   Shared memory     :  Shared parallel matrices
   BLAS/LAPACK       :  OpenBLAS 0.3.29  USE64BITINT DYNAMIC_ARCH NO_AFFINITY Cooperlake SINGLE_THREADED
        Core in use  :  Cooperlake
   Copyright (c) 2011-2014, The OpenBLAS Project


  ***********************************
  * Starting time: Wed May 20 12:39:34 2026
  * Host name:     c1-34
  * Process ID:    2547069
  * Working dir.:  /cluster/projects/nn14654k/ylvaos/basis_set_n_funcs/functionals/gga_x_pw91/PO2/out
  ***********************************

Using LibXC functional ID 109 : Perdew & Wang 91
[ 1]  J. P. Perdew. In P. Ziesche and H. Eschrig, editors, Proceedings of the 75. WE-Heraeus-Seminar and 21st Annual International Symposium on Electronic Structure of Solids, 11. Berlin, 1991. Akademie Verlag.
[ 2]  J. P. Perdew, J. A. Chevary, S. H. Vosko, K. A. Jackson, M. R. Pederson, D. J. Singh, and C. Fiolhais.,  Phys. Rev. B 46, 6671 (1992)
[ 3]  J. P. Perdew, J. A. Chevary, S. H. Vosko, K. A. Jackson, M. R. Pederson, D. J. Singh, and C. Fiolhais.,  Phys. Rev. B 48, 4978 (1993)
Using LibXC functional ID 109 : Perdew & Wang 91
[ 1]  J. P. Perdew. In P. Ziesche and H. Eschrig, editors, Proceedings of the 75. WE-Heraeus-Seminar and 21st Annual International Symposium on Electronic Structure of Solids, 11. Berlin, 1991. Akademie Verlag.
[ 2]  J. P. Perdew, J. A. Chevary, S. H. Vosko, K. A. Jackson, M. R. Pederson, D. J. Singh, and C. Fiolhais.,  Phys. Rev. B 46, 6671 (1992)
[ 3]  J. P. Perdew, J. A. Chevary, S. H. Vosko, K. A. Jackson, M. R. Pederson, D. J. Singh, and C. Fiolhais.,  Phys. Rev. B 48, 4978 (1993)
Your calculation utilizes LibXC
by S. Lehtola, C. Steigemann, M. J. T. Oliveira & M. A. L. Marques
Please cite in your paper:
Lehtola, S.; Steigemann, C.; Oliveira, M.J.T.; Marques, M. A. L. Software X, 7, (2018), 1.
   

================================================================================

----- Orbital basis set information -----
Your calculation utilizes the basis: aug-cc-pVTZ 
    H, B-Ne : Obtained from the ccRepo (grant-hill.group.shef.ac.uk/ccrepo) Feb. 2017
              R. A. Kendall, T. H. Dunning, Jr., R. J. Harrison, J. Chem. Phys. 96, 6796 (1992)
         He : Obtained from the ccRepo (grant-hill.group.shef.ac.uk/ccrepo) Feb. 2017
              D. E. Woon, T. H. Dunning, Jr., J. Chem. Phys. 100, 2975 (1994)
  Li-Be, Na : Obtained from the ccRepo (grant-hill.group.shef.ac.uk/ccrepo) Feb. 2017
              B. P. Prascher, D. E. Woon, K. A. Peterson, T. H. Dunning, Jr., A. K. Wilson, Theor. Chem. Acc. 128, 69 (2011)
         Mg : Obtained from the Peterson Research Group Website (tyr0.chem.wsu.edu/~kipeters) Feb. 2017
              B. P. Prascher, D. E. Woon, K. A. Peterson, T. H. Dunning, Jr., A. K. Wilson, Theor. Chem. Acc. 128, 69 (2011)
      Al-Ar : Obtained from the ccRepo (grant-hill.group.shef.ac.uk/ccrepo) Feb. 2017
              D. E. Woon, T. H. Dunning, Jr., J. Chem. Phys. 98, 1358 (1993)
      Sc-Zn : Obtained from the ccRepo (grant-hill.group.shef.ac.uk/ccrepo) Feb. 2017
              N. B. Balabanov, K. A. Peterson, J. Chem. Phys. 123, 064107 (2005)
              N. B. Balabanov, K. A. Peterson, J. Chem. Phys. 125, 074110 (2006)
      Ga-Kr : Obtained from the ccRepo (grant-hill.group.shef.ac.uk/ccrepo) Feb. 2017
              A. K. Wilson, D. E. Woon, K. A. Peterson, T. H. Dunning, Jr., J. Chem. Phys. 110, 7667 (1999)
     Ag, Au : Obtained from the Peterson Research Group Website (tyr0.chem.wsu.edu/~kipeters) Feb. 2017
              K. A. Peterson, C. Puzzarini, Theor. Chem. Acc. 114, 283 (2005)

================================================================================
                                        WARNINGS
                       Please study these warnings very carefully!
================================================================================


WARNING: your system is open-shell and RHF/RKS was chosen
  ===> : WILL SWITCH to UHF/UKS


================================================================================
                                       INPUT FILE
================================================================================
NAME = /cluster/projects/nn14654k/ylvaos/basis_set_n_funcs/functionals/gga_x_pw91/PO2/inp/PO2_gga_x_pw91_augccpvtz.inp
|  1> ! dft aug-cc-pVTZ TightSCF
|  2> %pal nprocs 8 end
|  3> 
|  4> %loc
|  5>   LocMet NewBoys
|  6>   Occ true
|  7> end
|  8> 
|  9> %method
| 10>   exchange gga_x_pw91
| 11>   correlation None
| 12> end
| 13> 
| 14> %elprop
| 15>   Dipole true
| 16>   Quadrupole true
| 17> end
| 18> 
| 19> * xyz 0 2
| 20> P    0.000000000000   0.000000000000   0.287900000000
| 21> O    0.000000000000   1.356300000000  -0.269900000000
| 22> O    0.000000000000  -1.356300000000  -0.269900000000
| 23> *
| 24> 
| 25> 
| 26>                          ****END OF INPUT****
================================================================================

                       ****************************
                       * Single Point Calculation *
                       ****************************

---------------------------------
CARTESIAN COORDINATES (ANGSTROEM)
---------------------------------
  P      0.000000    0.000000    0.287900
  O      0.000000    1.356300   -0.269900
  O      0.000000   -1.356300   -0.269900

----------------------------
CARTESIAN COORDINATES (A.U.)
----------------------------
  NO LB      ZA    FRAG     MASS         X           Y           Z
   0 P    15.0000    0    30.974    0.000000    0.000000    0.544052
   1 O     8.0000    0    15.999    0.000000    2.563036   -0.510037
   2 O     8.0000    0    15.999    0.000000   -2.563036   -0.510037

--------------------------------
INTERNAL COORDINATES (ANGSTROEM)
--------------------------------
 P      0   0   0     0.000000000000     0.00000000     0.00000000
 O      1   0   0     1.466523279733     0.00000000     0.00000000
 O      1   2   0     1.466523279733   135.28860674     0.00000000

---------------------------
INTERNAL COORDINATES (A.U.)
---------------------------
 P      0   0   0     0.000000000000     0.00000000     0.00000000
 O      1   0   0     2.771327367716     0.00000000     0.00000000
 O      1   2   0     2.771327367716   135.28860674     0.00000000

---------------------
BASIS SET INFORMATION
---------------------
There are 2 groups of distinct atoms

 Group   1 Type P   : 42s17p3d2f contracted to 6s5p3d2f pattern {131313111/77111/111/11}
 Group   2 Type O   : 19s6p3d2f contracted to 5s4p3d2f pattern {88111/3111/111/11}

Atom   0P    basis set group =>   1
Atom   1O    basis set group =>   2
Atom   2O    basis set group =>   2


           ************************************************************
           *        Program running with 8 parallel MPI-processes     *
           *              working on a common directory               *
           ************************************************************
------------------------------------------------------------------------------
                             ORCA STARTUP CALCULATIONS
------------------------------------------------------------------------------
------------------------------------------------------------------------------
                   ___                                                        
                  /   \      - P O W E R E D   B Y -                         
                 /     \                                                     
                 |  |  |   _    _      __       _____    __    __             
                 |  |  |  | |  | |    /  \     |  _  \  |  |  /  |          
                  \  \/   | |  | |   /    \    | | | |  |  | /  /          
                 / \  \   | |__| |  /  /\  \   | |_| |  |  |/  /          
                |  |  |   |  __  | /  /__\  \  |    /   |      \           
                |  |  |   | |  | | |   __   |  |    \   |  |\   \          
                \     /   | |  | | |  |  |  |  | |\  \  |  | \   \       
                 \___/    |_|  |_| |__|  |__|  |_| \__\ |__|  \__/        
                                                                              
                      - O R C A' S   B I G   F R I E N D -                    
                                      &                                       
                       - I N T E G R A L  F E E D E R -                       
                                                                              
 v1 FN, 2020, v2 2021, v3 2022-2024                                           
------------------------------------------------------------------------------


----------------------
SHARK INTEGRAL PACKAGE
----------------------

Number of atoms                             ...      3
Number of basis functions                   ...    179
Number of shells                            ...     71
Maximum angular momentum                    ...      3
Integral batch strategy                     ... SHARK/LIBINT Hybrid
RI-J (if used) integral strategy            ... SPLIT-RIJ (Revised 2003 algorithm where possible)
Printlevel                                  ...      1
Contraction scheme used                     ... PARTIAL GENERAL contraction
Prescreening option                         ... SCHWARTZ
   Thresh                                   ... 2.500e-11
   Tcut                                     ... 2.500e-12
   Tpresel                                  ... 2.500e-12 
Coulomb Range Separation                    ... NOT USED
Exchange Range Separation                   ... NOT USED
Multipole approximations                    ... NOT USED
Finite Nucleus Model                        ... NOT USED
CABS basis                                  ... NOT available
Auxiliary Coulomb fitting basis             ... NOT available
Auxiliary J/K fitting basis                 ... NOT available
Auxiliary Correlation fitting basis         ... NOT available
Auxiliary 'external' fitting basis          ... NOT available

Checking pre-screening integrals            ... done (  0.0 sec) Dimension = 71
Save PGC pre-screening integrals            ... done (  0.0 sec) Dimension = 71
Calculate PGC overlap integrals             ... done (  0.0 sec) Dimension = 44
Calculating pre-screening integrals (ORCA)  ... done (  0.0 sec) Dimension = 44
Shell pair information
Shell pair cut-off parameter TPreSel        ...   2.5e-12
Total number of shell pairs                 ...      2556
Shell pairs after pre-screening             ...      2233
Total number of primitive shell pairs       ...      2856
Primitive shell pairs kept                  ...      2429
          la=0 lb=0:    528 shell pairs
          la=1 lb=0:    602 shell pairs
          la=1 lb=1:    171 shell pairs
          la=2 lb=0:    328 shell pairs
          la=2 lb=1:    162 shell pairs
          la=2 lb=2:     45 shell pairs
          la=3 lb=0:    214 shell pairs
          la=3 lb=1:    108 shell pairs
          la=3 lb=2:     54 shell pairs
          la=3 lb=3:     21 shell pairs

Checking whether 4 symmetric matrices of dimension 179 fit in memory
:Max Core in MB      =   4096.00
 MB in use           =      4.38
 MB left             =   4091.62
 MB needed           =      0.49
 Data fit in memory  = YES
Calculating Nuclear repulsion               ... done (  0.0 sec) ENN=     99.086296046297 Eh

Diagonalization of the overlap matrix:
Smallest eigenvalue                        ... 2.902e-04
Time for diagonalization                   ...    0.001 sec
Threshold for overlap eigenvalues          ... 1.000e-07
Number of eigenvalues below threshold      ... 0
Time for construction of square roots      ...    0.002 sec
Total time needed                          ...    0.005 sec

-------------------
DFT GRID GENERATION
-------------------

General Integration Accuracy     IntAcc      ... 4.388
Radial Grid Type                 RadialGrid  ... OptM3 with GC (2021)
Angular Grid (max. ang.)         AngularGrid ... 4 (Lebedev-302)
Angular grid pruning method      GridPruning ... 4 (adaptive)
Weight generation scheme         WeightScheme... mBecke (2022)
Basis function cutoff            BFCut       ... 1.0000e-11
Integration weight cutoff        WCut        ... 1.0000e-14
Partially contracted basis set               ... off
Rotationally invariant grid construction     ... off
Angular grids for H and He will be reduced by one unit
Diffuse basis detected: some atoms will have their outermost
                        angular grid increased by 1.

Total number of grid points                  ...    20582
Total number of batches                      ...      323
Average number of points per batch           ...       63
Average number of grid points per atom       ...     6861

---------------------
SHARK GRID GENERATION
---------------------

General Integration Accuracy     IntAcc      ... 4.388
Radial Grid Type                 RadialGrid  ... OptM3 with GC (2021)
Angular Grid (max. ang.)         AngularGrid ... 4 (Lebedev-302)
Angular grid pruning method      GridPruning ... 4 (adaptive)
Weight generation scheme         WeightScheme... mBecke (2022)
Basis function cutoff            BFCut       ... 1.0000e-11
Integration weight cutoff        WCut        ... 1.0000e-14
Partially contracted basis set               ... off
Rotationally invariant grid construction     ... off
Angular grids for H and He will be reduced by one unit
Diffuse basis detected: some atoms will have their outermost
                        angular grid increased by 1.
Core-polarized basis detected: some atoms will have their core
                               angular grid increased.
Steep s-basis detected: some atoms will have their radial
                        grid points doubled.

Total number of grid points                  ...    46090
Total number of batches                      ...      722
Average number of points per batch           ...       63
Average number of grid points per atom       ...    15363
Grids setup in   0.6 sec
Initializing property integral containers    ... done (  0.0 sec)

SHARK setup successfully completed in   0.7 seconds

Maximum memory used throughout the entire STARTUP-calculation: 49.2 MB


           ************************************************************
           *        Program running with 8 parallel MPI-processes     *
           *              working on a common directory               *
           ************************************************************
-------------------------------------------------------------------------------
                                 ORCA GUESS
                   Start orbitals & Density for SCF / CASSCF
-------------------------------------------------------------------------------

------------
SCF SETTINGS
------------
Hamiltonian:
 Density Functional     Method          .... DFT(GTOs)
  Functional kind                       .... Exchange
  Functional name                       .... Perdew & Wang 91
  Functional family                     .... GGA
  Functional refs                              
    [ 0] J. P. Perdew. In P. Ziesche and H. Eschrig, editors, Proceedings of the 75. WE-Heraeus-Seminar and 21st Annual International Symposium on Electronic Structure of Solids, 11. Berlin, 1991. Akademie Verlag.
    [ 1] J. P. Perdew, J. A. Chevary, S. H. Vosko, K. A. Jackson, M. R. Pederson, D. J. Singh, and C. Fiolhais.,  Phys. Rev. B 46, 6671 (1992), doi: 10.1103/PhysRevB.46.6671
    [ 2] J. P. Perdew, J. A. Chevary, S. H. Vosko, K. A. Jackson, M. R. Pederson, D. J. Singh, and C. Fiolhais.,  Phys. Rev. B 48, 4978 (1993), doi: 10.1103/PhysRevB.48.4978.2
  Functional external parameters        .... 7
    Parameter  0 _a         =  1.964500e-01 : a parameter         
    Parameter  1 _b         =  7.795600e+00 : b parameter         
    Parameter  2 _c         =  2.743000e-01 : c parameter         
    Parameter  3 _d         = -1.508000e-01 : d parameter         
    Parameter  4 _f         =  4.000000e-03 : f parameter         
    Parameter  5 _alpha     =  1.000000e+02 : alpha parameter     
    Parameter  6 _expo      =  4.000000e+00 : exponent            
 Correlation Functional Correlation     .... No Correlation
 Gradients option       PostSCFGGA      .... off


General Settings:
 Integral files         IntName         .... /cluster/projects/nn14654k/ylvaos/basis_set_n_funcs/functionals/gga_x_pw91/PO2/inp/PO2_gga_x_pw91_augccpvtz
 Hartree-Fock type      HFTyp           .... UHF
 Total Charge           Charge          ....    0
 Multiplicity           Mult            ....    2
 Number of Electrons    NEL             ....   31
 Basis Dimension        Dim             ....  142
 Nuclear Repulsion      ENuc            ....     99.0862960463 Eh

Convergence Acceleration:
 AO-DIIS                CNVDIIS         .... on
   Start iteration      DIISMaxIt       ....    12
   Startup error        DIISStart       ....  0.200000
   # of expansion vecs  DIISMaxEq       ....     5
   Bias factor          DIISBfac        ....   1.050
   Max. coefficient     DIISMaxC        ....  10.000
 MO-DIIS                CNVKDIIS        .... off
 Trust-Rad. Augm. Hess. CNVTRAH         .... auto
   Auto Start mean grad. ratio tolernc. ....  1.125000
   Auto Start start iteration           ....    50
   Auto Start num. interpolation iter.  ....    10
   Max. Number of Micro iterations      ....    24
   Max. Number of Macro iterations      .... Maxiter - #DIIS iter
   Number of Davidson start vectors     ....     2
   Converg. threshold    (grad. norm)   ....   1.000e-05
   Grad. Scal. Fac. for Micro threshold ....   0.100
   Minimum threshold for Micro iter.    ....   1.000e-02
   NR start threshold (gradient norm)   ....   1.000e-04
   Initial trust radius                 ....   0.400
   Minimum AH scaling param. (alpha)    ....   1.000
   Maximum AH scaling param. (alpha)    .... 1000.000
   Quad. conv. algorithm                .... NR
   White noise on init. David. guess    .... on
   Maximum white noise                  ....   0.010
   Pseudo random numbers                .... off
   Inactive MOs                         .... canonical
   Orbital update algorithm             .... Taylor
   Preconditioner                       .... Diag
   Full preconditioner red. dimension   ....   250
 SOSCF                 CNVSOSCF           .... on
   Start iteration     SOSCFMaxIt         ....   150
   Startup grad/error  SOSCFStart         ....  0.003300
   Hessian update      SOSCFHessUp        .... L-BFGS
   Autom. constraints  SOSCFAutoConstrain .... off
 Level Shifting         CNVShift        .... on
   Level shift para.    LevelShift      ....    0.2500
   Turn off err/grad.   ShiftErr        ....    0.0010
 Zerner damping         CNVZerner       .... off
 Static damping         CNVDamp         .... on
   Fraction old density DampFac         ....    0.7000
   Max. Damping (<1)    DampMax         ....    0.9800
   Min. Damping (>=0)   DampMin         ....    0.0000
   Turn off err/grad.   DampErr         ....    0.1000

SCF Procedure:
 Maximum # iterations   MaxIter         ....   125
 SCF integral mode      SCFMode         .... Direct
   Integral package                     .... SHARK and LIBINT hybrid scheme
 Reset frequency        DirectResetFreq ....    20
 Integral Threshold     Thresh          ....  2.500e-11 Eh
 Primitive CutOff       TCut            ....  2.500e-12 Eh

Convergence Tolerance:
 Convergence Check Mode ConvCheckMode   .... Total+1el-Energy
 Convergence forced     ConvForced      .... 0
 Energy Change          TolE            ....  1.000e-08 Eh
 1-El. energy change                    ....  1.000e-05 Eh
 Orbital Gradient       TolG            ....  1.000e-05
 Orbital Rotation angle TolX            ....  1.000e-05
 DIIS Error             TolErr          ....  5.000e-07

------------------------------
INITIAL GUESS: MODEL POTENTIAL
------------------------------
Loading Hartree-Fock densities                     ... done
Calculating cut-offs                               ... done
Initializing the effective Hamiltonian             ... done
Setting up the integral package (SHARK)            ... done
Starting the Coulomb interaction                   ... done (   0.0 sec)
Making the grid                                    ... done (   0.0 sec)
Mapping shells                                     ... done
Starting the XC term evaluation                    ... done (   0.0 sec)
  promolecular density results
     # of electrons  =     31.000240993
     EX              =    -38.955345224
     EC              =      0.000000000
     EX+EC           =    -38.955345224
Transforming the Hamiltonian                       ... done (   0.0 sec)
Diagonalizing the Hamiltonian                      ... done (   0.0 sec)
Back transforming the eigenvectors                 ... done (   0.0 sec)
Now organizing SCF variables                       ... done
                      ------------------
                      INITIAL GUESS DONE (   0.1 sec)
                      ------------------
             **** ENERGY FILE WAS UPDATED (/cluster/projects/nn14654k/ylvaos/basis_set_n_funcs/functionals/gga_x_pw91/PO2/inp/PO2_gga_x_pw91_augccpvtz.en.tmp) ****
Finished Guess after   0.1 sec
Maximum memory used throughout the entire GUESS-calculation: 8.6 MB


           ************************************************************
           *        Program running with 8 parallel MPI-processes     *
           *              working on a common directory               *
           ************************************************************

-------------------------------------------------------------------------------------------
                                      ORCA LEAN-SCF
                              memory conserving SCF solver
-------------------------------------------------------------------------------------------

----------------------------------------D-I-I-S--------------------------------------------
Iteration    Energy (Eh)           Delta-E    RMSDP     MaxDP     DIISErr   Damp  Time(sec)
-------------------------------------------------------------------------------------------
               ***  Starting incremental Fock matrix formation  ***
    1    -490.3490367938650820     0.00e+00  4.45e-03  4.62e-02  1.75e-01  0.700   0.3
Warning: op=1 Small HOMO/LUMO gap (   0.060) - skipping pre-diagonalization
         Will do a full diagonalization
    2    -490.5005358214504554    -1.51e-01  1.77e-03  1.91e-02  3.62e-02  0.700   0.3
                               ***Turning on AO-DIIS***
    3    -490.5296039662130738    -2.91e-02  6.61e-04  9.25e-03  1.87e-02  0.700   0.3
    4    -490.5516323906783214    -2.20e-02  1.18e-03  1.45e-02  2.46e-02  0.000   0.3
    5    -490.6143239030142809    -6.27e-02  4.32e-04  5.50e-03  1.51e-02  0.000   0.3
    6    -490.6166636894509452    -2.34e-03  2.26e-04  2.58e-03  6.08e-03  0.000   0.3
                              *** Initializing SOSCF ***
---------------------------------------S-O-S-C-F--------------------------------------
Iteration    Energy (Eh)           Delta-E    RMSDP     MaxDP     MaxGrad    Time(sec)
--------------------------------------------------------------------------------------
    7    -490.6170299096912117    -3.66e-04  1.23e-04  1.50e-03  2.49e-03     0.4
               *** Restarting incremental Fock matrix formation ***
    8    -490.6170954863779912    -6.56e-05  1.71e-04  1.83e-03  1.68e-03     0.3
    9    -490.6170363580696971     5.91e-05  1.03e-04  1.14e-03  3.50e-03     0.3
   10    -490.6171130481574778    -7.67e-05  2.08e-05  3.53e-04  1.54e-04     0.3
   11    -490.6171133979934780    -3.50e-07  6.56e-06  9.14e-05  7.92e-05     0.3
   12    -490.6171135258475147    -1.28e-07  3.07e-06  4.52e-05  1.38e-05     0.3
   13    -490.6171135324092916    -6.56e-09  6.99e-07  5.57e-06  9.12e-06     0.4
                 **** Energy Check signals convergence ****

               *****************************************************
               *                     SUCCESS                       *
               *           SCF CONVERGED AFTER  13 CYCLES          *
               *****************************************************

             **** ENERGY FILE WAS UPDATED (/cluster/projects/nn14654k/ylvaos/basis_set_n_funcs/functionals/gga_x_pw91/PO2/inp/PO2_gga_x_pw91_augccpvtz.en.tmp) ****

----------------
TOTAL SCF ENERGY
----------------

Total Energy       :       -490.61711353389541 Eh          -13350.37038 eV

Components:
Nuclear Repulsion  :         99.08629604629714 Eh            2696.27519 eV
Electronic Energy  :       -589.70340958019256 Eh          -16046.64557 eV
One Electron Energy:       -874.71107456065306 Eh          -23802.09841 eV
Two Electron Energy:        285.00766498046056 Eh            7755.45284 eV

Virial components:
Potential Energy   :       -980.39135155469262 Eh          -26677.80495 eV
Kinetic Energy     :        489.77423802079716 Eh           13327.43457 eV
Virial Ratio       :          2.00172094701531

DFT components:
N(Alpha)           :       16.000018673010 electrons
N(Beta)            :       15.000019220602 electrons
N(Total)           :       31.000037893612 electrons
E(X)               :      -39.117522409415 Eh       
E(C)               :        0.000000000000 Eh       
E(XC)              :      -39.117522409415 Eh       

---------------
SCF CONVERGENCE
---------------

  Last Energy change         ...    6.5618e-09  Tolerance :   1.0000e-08
  Last MAX-Density change    ...    5.5651e-06  Tolerance :   1.0000e-07
  Last RMS-Density change    ...    6.9850e-07  Tolerance :   5.0000e-09
  Last DIIS Error            ...    2.4870e-03  Tolerance :   5.0000e-07
  Last Orbital Gradient      ...    9.1170e-06  Tolerance :   1.0000e-05
  Last Orbital Rotation      ...    1.8673e-05  Tolerance :   1.0000e-05


----------------------
UHF SPIN CONTAMINATION
----------------------

Warning: in a DFT calculation there is little theoretical justification to 
         calculate <S**2> as in Hartree-Fock theory. We will do it anyways
         but you should keep in mind that the values have only limited relevance

Expectation value of <S**2>     :     0.754343
Ideal value S*(S+1) for S=0.5   :     0.750000
Deviation                       :     0.004343

----------------
ORBITAL ENERGIES
----------------
                 SPIN UP ORBITALS
  NO   OCC          E(Eh)            E(eV) 
   0   1.0000     -76.474770     -2080.9843 
   1   1.0000     -18.801705      -511.6204 
   2   1.0000     -18.801703      -511.6203 
   3   1.0000      -6.387329      -173.8081 
   4   1.0000      -4.615329      -125.5895 
   5   1.0000      -4.612625      -125.5159 
   6   1.0000      -4.609313      -125.4258 
   7   1.0000      -0.957332       -26.0503 
   8   1.0000      -0.912406       -24.8278 
   9   1.0000      -0.482756       -13.1364 
  10   1.0000      -0.386265       -10.5108 
  11   1.0000      -0.371889       -10.1196 
  12   1.0000      -0.371748       -10.1158 
  13   1.0000      -0.302900        -8.2423 
  14   1.0000      -0.295331        -8.0364 
  15   1.0000      -0.244388        -6.6501 
  16   0.0000      -0.097864        -2.6630 
  17   0.0000      -0.020994        -0.5713 
  18   0.0000       0.002989         0.0813 
  19   0.0000       0.013421         0.3652 
  20   0.0000       0.022575         0.6143 
  21   0.0000       0.047155         1.2832 
  22   0.0000       0.088261         2.4017 
  23   0.0000       0.092024         2.5041 
  24   0.0000       0.099704         2.7131 
  25   0.0000       0.103954         2.8287 
  26   0.0000       0.121350         3.3021 

                 SPIN DOWN ORBITALS
  NO   OCC          E(Eh)            E(eV) 
   0   1.0000     -76.473008     -2080.9363 
   1   1.0000     -18.794930      -511.4360 
   2   1.0000     -18.794928      -511.4360 
   3   1.0000      -6.384744      -173.7377 
   4   1.0000      -4.612821      -125.5212 
   5   1.0000      -4.607942      -125.3885 
   6   1.0000      -4.607553      -125.3779 
   7   1.0000      -0.941495       -25.6194 
   8   1.0000      -0.895783       -24.3755 
   9   1.0000      -0.456539       -12.4231 
  10   1.0000      -0.364514        -9.9189 
  11   1.0000      -0.362503        -9.8642 
  12   1.0000      -0.353510        -9.6195 
  13   1.0000      -0.297958        -8.1078 
  14   1.0000      -0.284075        -7.7301 
  15   0.0000      -0.188922        -5.1408 
  16   0.0000      -0.071065        -1.9338 
  17   0.0000      -0.006039        -0.1643 
  18   0.0000       0.018473         0.5027 
  19   0.0000       0.019095         0.5196 
  20   0.0000       0.032418         0.8821 
  21   0.0000       0.063539         1.7290 
  22   0.0000       0.096547         2.6272 
  23   0.0000       0.098375         2.6769 
  24   0.0000       0.104104         2.8328 
  25   0.0000       0.112956         3.0737 
*Only the first 10 virtual orbitals were printed.

                    ********************************
                    * MULLIKEN POPULATION ANALYSIS *
                    ********************************

--------------------------------------------
MULLIKEN ATOMIC CHARGES AND SPIN POPULATIONS
--------------------------------------------
   0 P :    1.138817    0.486966
   1 O :   -0.569409    0.256517
   2 O :   -0.569409    0.256517
Sum of atomic charges         :   -0.0000000
Sum of atomic spin populations:    1.0000000

-----------------------------------------------------
MULLIKEN REDUCED ORBITAL CHARGES AND SPIN POPULATIONS
-----------------------------------------------------
CHARGE
  0 P s       :     5.450408  s :     5.450408
      pz      :     2.773591  p :     7.904503
      px      :     2.649786
      py      :     2.481126
      dz2     :     0.060138  d :     0.480149
      dxz     :     0.006171
      dyz     :     0.159817
      dx2y2   :     0.112297
      dxy     :     0.141727
      f0      :     0.003807  f :     0.026123
      f+1     :     0.000138
      f-1     :     0.009514
      f+2     :     0.007052
      f-2     :     0.004610
      f+3     :    -0.000611
      f-3     :     0.001612

  1 O s       :     3.945602  s :     3.945602
      pz      :     1.589306  p :     4.565899
      px      :     1.578188
      py      :     1.398405
      dz2     :     0.007603  d :     0.053644
      dxz     :     0.002750
      dyz     :     0.017022
      dx2y2   :     0.009774
      dxy     :     0.016494
      f0      :     0.000198  f :     0.004264
      f+1     :     0.000060
      f-1     :     0.001306
      f+2     :     0.000399
      f-2     :     0.000393
      f+3     :     0.001205
      f-3     :     0.000703

  2 O s       :     3.945602  s :     3.945602
      pz      :     1.589306  p :     4.565899
      px      :     1.578188
      py      :     1.398405
      dz2     :     0.007603  d :     0.053644
      dxz     :     0.002750
      dyz     :     0.017022
      dx2y2   :     0.009774
      dxy     :     0.016494
      f0      :     0.000198  f :     0.004264
      f+1     :     0.000060
      f-1     :     0.001306
      f+2     :     0.000399
      f-2     :     0.000393
      f+3     :     0.001205
      f-3     :     0.000703


SPIN
  0 P s       :     0.205500  s :     0.205500
      pz      :     0.196190  p :     0.180397
      px      :     0.024744
      py      :    -0.040537
      dz2     :     0.039687  d :     0.112757
      dxz     :    -0.004908
      dyz     :     0.000229
      dx2y2   :     0.074751
      dxy     :     0.002998
      f0      :     0.000062  f :    -0.011689
      f+1     :    -0.000154
      f-1     :    -0.005300
      f+2     :    -0.000156
      f-2     :    -0.000563
      f+3     :    -0.004288
      f-3     :    -0.001289

  1 O s       :     0.035623  s :     0.035623
      pz      :     0.175720  p :     0.217039
      px      :    -0.010121
      py      :     0.051440
      dz2     :     0.000089  d :     0.003386
      dxz     :     0.000071
      dyz     :     0.001891
      dx2y2   :     0.000398
      dxy     :     0.000938
      f0      :    -0.000000  f :     0.000469
      f+1     :    -0.000014
      f-1     :     0.000128
      f+2     :     0.000105
      f-2     :     0.000089
      f+3     :     0.000123
      f-3     :     0.000039

  2 O s       :     0.035623  s :     0.035623
      pz      :     0.175720  p :     0.217039
      px      :    -0.010121
      py      :     0.051440
      dz2     :     0.000089  d :     0.003386
      dxz     :     0.000071
      dyz     :     0.001891
      dx2y2   :     0.000398
      dxy     :     0.000938
      f0      :    -0.000000  f :     0.000469
      f+1     :    -0.000014
      f-1     :     0.000128
      f+2     :     0.000105
      f-2     :     0.000089
      f+3     :     0.000123
      f-3     :     0.000039



                     *******************************
                     * LOEWDIN POPULATION ANALYSIS *
                     *******************************

-------------------------------------------
LOEWDIN ATOMIC CHARGES AND SPIN POPULATIONS
-------------------------------------------
   0 P :    0.291911    0.484877
   1 O :   -0.145956    0.257562
   2 O :   -0.145956    0.257562

----------------------------------------------------
LOEWDIN REDUCED ORBITAL CHARGES AND SPIN POPULATIONS
----------------------------------------------------
CHARGE
  0 P s       :     4.805952  s :     4.805952
      pz      :     2.720951  p :     8.030963
      px      :     2.567073
      py      :     2.742939
      dz2     :     0.169169  d :     1.322834
      dxz     :     0.015374
      dyz     :     0.426166
      dx2y2   :     0.366222
      dxy     :     0.345904
      f0      :     0.050793  f :     0.548339
      f+1     :     0.000814
      f-1     :     0.150940
      f+2     :     0.109738
      f-2     :     0.064754
      f+3     :     0.062789
      f-3     :     0.108510

  1 O s       :     3.466154  s :     3.466154
      pz      :     1.457483  p :     4.410283
      px      :     1.406627
      py      :     1.546173
      dz2     :     0.023162  d :     0.206454
      dxz     :     0.005327
      dyz     :     0.078777
      dx2y2   :     0.054589
      dxy     :     0.044600
      f0      :     0.007218  f :     0.063064
      f+1     :     0.000479
      f-1     :     0.011287
      f+2     :     0.015821
      f-2     :     0.004262
      f+3     :     0.010350
      f-3     :     0.013646

  2 O s       :     3.466154  s :     3.466154
      pz      :     1.457483  p :     4.410283
      px      :     1.406627
      py      :     1.546173
      dz2     :     0.023162  d :     0.206454
      dxz     :     0.005327
      dyz     :     0.078777
      dx2y2   :     0.054589
      dxy     :     0.044600
      f0      :     0.007218  f :     0.063064
      f+1     :     0.000479
      f-1     :     0.011287
      f+2     :     0.015821
      f-2     :     0.004262
      f+3     :     0.010350
      f-3     :     0.013646


SPIN
  0 P s       :     0.161616  s :     0.161616
      pz      :     0.154777  p :     0.164258
      px      :     0.021986
      py      :    -0.012504
      dz2     :     0.070075  d :     0.156615
      dxz     :    -0.004017
      dyz     :    -0.004237
      dx2y2   :     0.095863
      dxy     :    -0.001069
      f0      :     0.001807  f :     0.002387
      f+1     :    -0.000202
      f-1     :    -0.001681
      f+2     :     0.007030
      f-2     :    -0.000672
      f+3     :    -0.004509
      f-3     :     0.000615

  1 O s       :     0.038279  s :     0.038279
      pz      :     0.154322  p :     0.198605
      px      :    -0.007988
      py      :     0.052271
      dz2     :     0.002217  d :     0.018264
      dxz     :     0.000331
      dyz     :     0.013890
      dx2y2   :     0.000384
      dxy     :     0.001441
      f0      :    -0.000006  f :     0.002413
      f+1     :    -0.000021
      f-1     :     0.001404
      f+2     :     0.000389
      f-2     :     0.000249
      f+3     :     0.000230
      f-3     :     0.000169

  2 O s       :     0.038279  s :     0.038279
      pz      :     0.154322  p :     0.198605
      px      :    -0.007988
      py      :     0.052271
      dz2     :     0.002217  d :     0.018264
      dxz     :     0.000331
      dyz     :     0.013890
      dx2y2   :     0.000384
      dxy     :     0.001441
      f0      :    -0.000006  f :     0.002413
      f+1     :    -0.000021
      f-1     :     0.001404
      f+2     :     0.000389
      f-2     :     0.000249
      f+3     :     0.000230
      f-3     :     0.000169



                      *****************************
                      * MAYER POPULATION ANALYSIS *
                      *****************************

  NA   - Mulliken gross atomic population
  ZA   - Total nuclear charge
  QA   - Mulliken gross atomic charge
  VA   - Mayer's total valence
  BVA  - Mayer's bonded valence
  FA   - Mayer's free valence

  ATOM       NA         ZA         QA         VA         BVA        FA
  0 P     13.8612    15.0000     1.1388     3.8866     3.5619     0.3247
  1 O      8.5694     8.0000    -0.5694     2.0118     1.9686     0.0432
  2 O      8.5694     8.0000    -0.5694     2.0118     1.9686     0.0432

  Mayer bond orders larger than 0.100000
B(  0-P ,  1-O ) :   1.7809 B(  0-P ,  2-O ) :   1.7809 B(  1-O ,  2-O ) :   0.1876 


-------
TIMINGS
-------

Total SCF time: 0 days 0 hours 0 min 4 sec 

Total time                  ....       4.561 sec
Sum of individual times     ....       4.221 sec  ( 92.5%)

SCF preparation             ....       0.093 sec  (  2.0%)
Fock matrix formation       ....       3.245 sec  ( 71.1%)
  Startup                   ....       0.057 sec  (  1.7% of F)
  Coulomb formation         ....       1.916 sec  ( 59.1% of F)
  XC integration            ....       0.809 sec  ( 24.9% of F)
    XC Preparation          ....       0.000 sec  (  0.0% of XC)
    Basis function eval.    ....       0.053 sec  (  6.6% of XC)
    Density eval.           ....       0.063 sec  (  7.7% of XC)
    XC-Functional eval.     ....       0.015 sec  (  1.8% of XC)
    XC-Potential eval.      ....       0.168 sec  ( 20.8% of XC)
Diagonalization             ....       0.000 sec  (  0.0%)
Density matrix formation    ....       0.272 sec  (  6.0%)
Total Energy calculation    ....       0.032 sec  (  0.7%)
Population analysis         ....       0.044 sec  (  1.0%)
Orbital Transformation      ....       0.048 sec  (  1.0%)
Orbital Orthonormalization  ....       0.000 sec  (  0.0%)
DIIS solution               ....       0.339 sec  (  7.4%)
SOSCF solution              ....       0.150 sec  (  3.3%)
Finished LeanSCF after   4.6 sec

Maximum memory used throughout the entire LEANSCF-calculation: 13.1 MB


           ************************************************************
           *        Program running with 8 parallel MPI-processes     *
           *              working on a common directory               *
           ************************************************************

------------------------------------------------------------------------------
                         ORCA PROPERTY INTEGRAL CALCULATIONS
------------------------------------------------------------------------------

GBWName                                   ... /cluster/projects/nn14654k/ylvaos/basis_set_n_funcs/functionals/gga_x_pw91/PO2/inp/PO2_gga_x_pw91_augccpvtz.gbw
Number of atoms                           ...      3
Number of basis functions                 ...    179
Max core memory                           ...   4096 MB

Dipole integrals                          ... YES
Quadrupole integrals                      ... YES
Linear momentum integrals                 ...  NO
Angular momentum integrals                ...  NO
Higher moments length integrals           ...  NO
Higher moments velocity integrals         ...  NO
Kinetic energy integrals                  ...  NO
GIAO right hand sides                     ...  NO
GIAO dipole derivative integrals          ...  NO
SOC integrals                             ...  NO
EPR diamagnetic integrals (GIAO)          ...  NO
EPR gauge integrals                       ...  NO
Field gradient integrals                  ...  NO (   0 nuclei)
Spin-dipole/Fermi contact integrals       ...  NO (   0 nuclei)
Contact density integrals                 ...  NO (   0 nuclei)
Nucleus-orbit integrals                   ...  NO (   0 nuclei)
Geometric perturbations                   ...  NO (   3 nuclei)

Choice of electric origin   ... Center of mass
Position of electric origin ... (  0.0000,  0.0000,  0.0084) 
Choice of magnetic origin   ... GIAO
Position of magnetic origin ... (  0.0000,  0.0000,  0.0000) 

Calculating integrals                     ... Electric Dipole (Length)     done (  0.0 sec)
Calculating integrals                     ... Electric Quadrupole (Length) done (  0.0 sec)

Property integrals calculated in   0.0 sec

Maximum memory used throughout the entire PROPINT-calculation: 9.3 MB
------------------------------------------------------------------------------
                           ORCA ORBITAL LOCALIZATION
------------------------------------------------------------------------------

Input orbitals are from                  ... /cluster/projects/nn14654k/ylvaos/basis_set_n_funcs/functionals/gga_x_pw91/PO2/inp/PO2_gga_x_pw91_augccpvtz.gbw
Output orbitals are to                   ... /cluster/projects/nn14654k/ylvaos/basis_set_n_funcs/functionals/gga_x_pw91/PO2/inp/PO2_gga_x_pw91_augccpvtz.loc
Max. number of iterations                ... 128
Localizations seeded randomly            ... on
Convergence tolerance                    ... 1.000e-06
Threshold for strong local MOs           ... 9.500e-01
Threshold for bond MOs                   ... 8.500e-01
Operator                                 ... 0
Orbital range for localization           ... 4 to 15
Localization criterion                   ... NEW-BOYS
Doing the dipole integrals               ... o.k.
Initial value of the localization sum :    34.265204
ITERATION   0 : L=   47.4608892512 DL=  1.32e+01 (AVERGE_DL)=    0.4471405053 
ITERATION   1 : L=   49.8772144732 DL=  2.42e+00 (AVERGE_DL)=    0.1913399807 
ITERATION   2 : L=   50.1441418431 DL=  2.67e-01 (AVERGE_DL)=    0.0635952364 
ITERATION   3 : L=   50.2349960807 DL=  9.09e-02 (AVERGE_DL)=    0.0371022824 
ITERATION   4 : L=   50.3077696297 DL=  7.28e-02 (AVERGE_DL)=    0.0332058659 
ITERATION   5 : L=   50.3633208332 DL=  5.56e-02 (AVERGE_DL)=    0.0290118063 
ITERATION   6 : L=   50.3903134451 DL=  2.70e-02 (AVERGE_DL)=    0.0202232284 
ITERATION   7 : L=   50.3997487168 DL=  9.44e-03 (AVERGE_DL)=    0.0119565322 
ITERATION   8 : L=   50.4026233588 DL=  2.87e-03 (AVERGE_DL)=    0.0065996349 
ITERATION   9 : L=   50.4034727604 DL=  8.49e-04 (AVERGE_DL)=    0.0035874394 
ITERATION  10 : L=   50.4037253872 DL=  2.53e-04 (AVERGE_DL)=    0.0019564455 
ITERATION  11 : L=   50.4038015016 DL=  7.61e-05 (AVERGE_DL)=    0.0010738940 
ITERATION  12 : L=   50.4038245255 DL=  2.30e-05 (AVERGE_DL)=    0.0005906325 
ITERATION  13 : L=   50.4038314244 DL=  6.90e-06 (AVERGE_DL)=    0.0003233110 
ITERATION  14 : L=   50.4038334493 DL=  2.02e-06 (AVERGE_DL)=    0.0001751564 
ITERATION  15 : L=   50.4038340270 DL=  5.78e-07 (AVERGE_DL)=    0.0000935554 
LOCALIZATION SUM CONVERGED


--------------------------------------------------------------------------------
                    LOCALIZED MOLECULAR ORBITAL COMPOSITIONS
--------------------------------------------------------------------------------

The Mulliken populations for each LMO on each atom are computed
The LMO`s will be ordered according to atom index and type
  (A) Strongly localized MO`s have populations of >=0.950 on one atom
  (B) Two center bond orbitals have populations of >=0.850 on two atoms
  (C) Other MO`s are considered to be `delocalized`

FOUND  -   6 strongly local MO`s
       -   6 two center bond MO`s
       -   0 significantly delocalized MO`s

Rather strongly localized orbitals:
MO   9:   2O  -   0.998769
MO   8:   1O  -   0.998772
MO   7:   0P  -   0.981357
MO   6:   0P  -   1.002023
MO   5:   0P  -   1.002023
MO   4:   0P  -   1.007334
Bond-like localized orbitals:
MO  15:   2O  -   0.735843  and   0P  -   0.264910
MO  14:   2O  -   0.735834  and   0P  -   0.264920
MO  13:   2O  -   0.931406  and   0P  -   0.064075
MO  12:   1O  -   0.735831  and   0P  -   0.264923
MO  11:   1O  -   0.931432  and   0P  -   0.064047
MO  10:   1O  -   0.735816  and   0P  -   0.264939
Localized MO's were stored in: /cluster/projects/nn14654k/ylvaos/basis_set_n_funcs/functionals/gga_x_pw91/PO2/inp/PO2_gga_x_pw91_augccpvtz.loc
------------------------------------------------------------------------------
                           ORCA ORBITAL LOCALIZATION
------------------------------------------------------------------------------

Input orbitals are from                  ... /cluster/projects/nn14654k/ylvaos/basis_set_n_funcs/functionals/gga_x_pw91/PO2/inp/PO2_gga_x_pw91_augccpvtz.loc
Output orbitals are to                   ... /cluster/projects/nn14654k/ylvaos/basis_set_n_funcs/functionals/gga_x_pw91/PO2/inp/PO2_gga_x_pw91_augccpvtz.loc
Max. number of iterations                ... 128
Localizations seeded randomly            ... on
Convergence tolerance                    ... 1.000e-06
Threshold for strong local MOs           ... 9.500e-01
Threshold for bond MOs                   ... 8.500e-01
Operator                                 ... 1
Orbital range for localization           ... 4 to 14
Localization criterion                   ... NEW-BOYS
Doing the dipole integrals               ... o.k.
Initial value of the localization sum :    28.871484
ITERATION   0 : L=   41.2397236569 DL=  1.24e+01 (AVERGE_DL)=    0.4742120703 
ITERATION   1 : L=   42.7549696628 DL=  1.52e+00 (AVERGE_DL)=    0.1659817080 
ITERATION   2 : L=   43.1717184246 DL=  4.17e-01 (AVERGE_DL)=    0.0870474021 
ITERATION   3 : L=   43.2108222789 DL=  3.91e-02 (AVERGE_DL)=    0.0266641926 
ITERATION   4 : L=   43.2152211383 DL=  4.40e-03 (AVERGE_DL)=    0.0089431125 
ITERATION   5 : L=   43.2155165870 DL=  2.95e-04 (AVERGE_DL)=    0.0023177133 
ITERATION   6 : L=   43.2155424087 DL=  2.58e-05 (AVERGE_DL)=    0.0006851902 
ITERATION   7 : L=   43.2155515490 DL=  9.14e-06 (AVERGE_DL)=    0.0004076607 
ITERATION   8 : L=   43.2155581127 DL=  6.56e-06 (AVERGE_DL)=    0.0003454565 
ITERATION   9 : L=   43.2155629983 DL=  4.89e-06 (AVERGE_DL)=    0.0002980406 
ITERATION  10 : L=   43.2155666216 DL=  3.62e-06 (AVERGE_DL)=    0.0002566664 
ITERATION  11 : L=   43.2155693073 DL=  2.69e-06 (AVERGE_DL)=    0.0002209784 
ITERATION  12 : L=   43.2155712990 DL=  1.99e-06 (AVERGE_DL)=    0.0001902967 
ITERATION  13 : L=   43.2155727760 DL=  1.48e-06 (AVERGE_DL)=    0.0001638753 
ITERATION  14 : L=   43.2155738716 DL=  1.10e-06 (AVERGE_DL)=    0.0001411392 
ITERATION  15 : L=   43.2155746841 DL=  8.12e-07 (AVERGE_DL)=    0.0001215395 
LOCALIZATION SUM CONVERGED


--------------------------------------------------------------------------------
                    LOCALIZED MOLECULAR ORBITAL COMPOSITIONS
--------------------------------------------------------------------------------

The Mulliken populations for each LMO on each atom are computed
The LMO`s will be ordered according to atom index and type
  (A) Strongly localized MO`s have populations of >=0.950 on one atom
  (B) Two center bond orbitals have populations of >=0.850 on two atoms
  (C) Other MO`s are considered to be `delocalized`

FOUND  -   5 strongly local MO`s
       -   6 two center bond MO`s
       -   0 significantly delocalized MO`s

Rather strongly localized orbitals:
MO   8:   2O  -   1.009596
MO   7:   1O  -   1.009593
MO   6:   0P  -   1.001640
MO   5:   0P  -   1.007016
MO   4:   0P  -   1.001640
Bond-like localized orbitals:
MO  14:   2O  -   0.571913  and   0P  -   0.426116
MO  13:   2O  -   0.785559  and   0P  -   0.214524
MO  12:   2O  -   0.785870  and   0P  -   0.214185
MO  11:   1O  -   0.571951  and   0P  -   0.426076
MO  10:   1O  -   0.785855  and   0P  -   0.214202
MO   9:   1O  -   0.785538  and   0P  -   0.214546
Localized MO's were stored in: /cluster/projects/nn14654k/ylvaos/basis_set_n_funcs/functionals/gga_x_pw91/PO2/inp/PO2_gga_x_pw91_augccpvtz.loc

-------------------------   --------------------
FINAL SINGLE POINT ENERGY      -490.617113533895
-------------------------   --------------------



           ************************************************************
           *        Program running with 8 parallel MPI-processes     *
           *              working on a common directory               *
           ************************************************************

------------------------------------------------------------------------------
                              ORCA PROPERTY CALCULATIONS
------------------------------------------------------------------------------

GBWName                                 ... /cluster/projects/nn14654k/ylvaos/basis_set_n_funcs/functionals/gga_x_pw91/PO2/inp/PO2_gga_x_pw91_augccpvtz.gbw
Number of atoms                         ...      3
Number of basis functions               ...    179
Max core memory                         ...   4096 MB

Electric properties:
Dipole moment                           ... YES
Quadrupole moment                       ... YES
Static polarizability (Dipole/Dipole)   ...  NO
Static polarizability (Dipole/Quad.)    ...  NO
Static polarizability (Quad./Quad.)     ...  NO
Static polarizability (Velocity)        ...  NO
Static hyperpolarizability              ...  NO

Atomic electric properties:
Dipole moment                           ...  NO
Quadrupole moment                       ...  NO
Static polarizability                   ...  NO

Choice of electric origin               ... Center of mass
Position of electric origin             ...     0.000000     0.000000     0.008437

General magnetic properties:
Magnetizability                         ...  NO

EPR properties:
g-Tensor (aka g-matrix)                 ...  NO
Zero-Field splitting spin-orbit         ...  NO
Zero-field splitting spin-spin          ...  NO
Hyperfine couplings                     ...  NO (   0 nuclei)
Quadrupole couplings                    ...  NO (   0 nuclei)
Contact density                         ...  NO (   0 nuclei)

NMR properties:
Chemical shifts                         ...  NO (   0 nuclei)
Spin-rotation constants                 ...  NO (   0 nuclei)
Spin-spin couplings                     ...  NO (   0 nuclei,    0 pairs)

Choice of magnetic origin               ... GIAO
Position of magnetic origin             ...     0.000000     0.000000     0.000000

Properties with geometric perturbations:
SCF Hessian                             ...  NO
IR spectrum                             ...  NO
VCD spectrum                            ...  NO
X-ray spectroscopy properties:
SCF XES/XAS/RIXS spectra                ...  NO

SCF SOC stabilization energy            ...  NO
Diagonal Born-Oppenheimer correction    ...  NO

-------------
DIPOLE MOMENT
-------------

Method             : SCF
Type of density    : Electron Density
Multiplicity       :   2
Irrep              :   0
Energy             :  -490.6171135338954059 Eh
Basis              : AO
                                X                 Y                 Z
Electronic contribution:      0.000000000       0.000000002       0.757842796
Nuclear contribution   :      0.000000000       0.000000000      -0.261362976
                        -----------------------------------------
Total Dipole Moment    :      0.000000000       0.000000002       0.496479820
                        -----------------------------------------
Magnitude (a.u.)       :      0.496479820
Magnitude (Debye)      :      1.261951413



--------------------
Rotational spectrum 
--------------------
 
Rotational constants in cm-1:             3.442444             0.286393             0.264396 
Rotational constants in MHz :        103201.869580          8585.841533          7926.407020 

Dipole components along the rotational axes: 
x,y,z [a.u.] :     0.000000     0.496480     0.000000 
x,y,z [Debye]:     0.000000     1.261951     0.000000 

 

Dipole moment calculation done in   0.0 sec 

-----------------
QUADRUPOLE MOMENT
-----------------

Method             : SCF
Type of density    : Electron Density
Multiplicity       :   2
Irrep              :   0
Energy             :  -490.6171135338954059 Eh
Basis              : AO

                XX              YY              ZZ              XY              XZ              YZ
  NUC        0.000000000   105.106420135     8.604299986     0.000000000     0.000000000     0.000000000
  EL       -16.030407415  -126.653074600   -25.413788662     0.000000000     0.000000000     0.000000003
  TOT      -16.030407415   -21.546654465   -16.809488676     0.000000000     0.000000000     0.000000003 (a.u.)
           -21.561446213   -28.980987152   -22.609337154     0.000000000     0.000000000     0.000000004 (Buckingham)

diagonalized tensor:
           -21.546654465   -16.809488676   -16.030407415 (a.u.)
           -28.980987152   -22.609337154   -21.561446213 (Buckingham)
           -13.791190936     5.323759057     8.467431879 (traceless form in Buckingham)

            -0.000000000     0.000000000     1.000000000
             1.000000000    -0.000000001     0.000000000
            -0.000000001    -1.000000000     0.000000000
        
Isotropic quadrupole :   -18.128850185

Quadrupole moment calculation done in   0.0 sec (  0.0 sec for integrals)

Maximum memory used throughout the entire PROP-calculation: 5.7 MB

--------------------------------
SUGGESTED CITATIONS FOR THIS RUN
--------------------------------

Below you find a list of papers that are relevant to this ORCA run
We neither can nor want to force you to cite these papers, but we appreciate if you do
You receive ORCA, which is the product of decades of hard work by many enthusiastic individuals, for free
The only thing we kindly ask in return is that you cite our papers,
We deeply appreciate it, if you show your appreciation for ORCA by not just citing the generic ORCA reference.

Please note that relegating all ORCA citations to the supporting information does *not* help us.
SI sections are not indexed - citations you put there will not count into any citation statistics
But we need these citations in order to attract the funding resources that allow us to do what we are doing

Therefore, if you are a happy ORCA user, please consider citing a few of the papers listed below in the main body of your paper

In addition to the list printed below, the program has created the file /cluster/projects/nn14654k/ylvaos/basis_set_n_funcs/functionals/gga_x_pw91/PO2/inp/PO2_gga_x_pw91_augccpvtz.bibtex that contains the list in bibtex format
You can import this file easily into all common literature databanks and citation aid programs

It goes without saying that in many instances, there are alternative algorithms to achieve similar
results as the ones you have gotten from ORCA. It is, of course, also the case that in some instances
ORCA just re-implements algorithms worked out by others. We are fully aware of that and we are also
fully appreciative of our colleagues work. Hence this citation list should not be read as indicating
that the listed papers, which are focused on our own work, are the only ones worth citing. It simply
meant to make it easier for users to cite ORCA specific papers. It is not a substitute for doing your
own literature research and citing the relevant literature in a scientifically appropriate manner.

List of essential papers. We consider these as the minimum necessary citations

  1. Neese, F.
     Software update: the ORCA program system, version 6.0
     WIRES Comput. Molec. Sci. 2025 15(1), e70019
     doi.org/10.1002/wcms.70019

List of papers to cite with high priority. The work reported in these papers was absolutely
necessary for this run to complete.
Our perspective: the developers of density functionals and basis sets usually get cited in chemistry papers
Good! But without the algorithms to do something with them, the functionals or basis sets would not do anything.
Hence, in our opinion, the algorithm design and method developments papers are equally worthy of getting cited

  1. Lehtola, S.; Steigemann, C.; Oliveira, M.; Marques, M.
     Recent developments in Libxc - A comprehensive library of functionals for density functional theory
     Software X 2018 7 , 
     doi.org/10.1016/j.softx.2017.11.002
  2. Neese, F.
     The SHARK Integral Generation and Digestion System
     J. Comp. Chem. 2022 44(3), 381
     doi.org/10.1002/jcc.26942

List of suggested additional citations. These are papers that are important in the 'surrounding' of 
of this run, or papers that preceded the highly important papers. If you like your results we are grateful for a citation.

  1. Neese, F.
     The ORCA program system
     WIRES Comput. Molec. Sci. 2012 2(1), 73-78
     doi.org/10.1002/wcms.81
  2. Neese, F.
     Software update: the ORCA program system, version 4.0
     WIRES Comput. Molec. Sci. 2018 8(1), 1-6
     doi.org/10.1002/wcms.1327
  3. Neese, F.; Wennmohs, F.; Becker, U.; Riplinger, C.
     The ORCA quantum chemistry program package
     J. Chem. Phys. 2020 152(22), 224108
     doi.org/10.1063/5.0004608
  4. Neese, F.
     Software update: The ORCA program system—Version 5.0
     WIRES Comput. Molec. Sci. 2022 12(1), e1606
     doi.org/10.1002/wcms.1606

List of optional additional citations

  1. Neese, F.
     Approximate second-order SCF convergence for spin unrestricted wavefunctions
     Chem. Phys. Lett. 2000 325(1-3), 93-98
     doi.org/10.1016/s0009-2614(00)00662-x

Timings for individual modules:

Sum of individual times          ...        6.646 sec (=   0.111 min)
Startup calculation              ...        0.958 sec (=   0.016 min)  14.4 %
SCF iterations                   ...        5.139 sec (=   0.086 min)  77.3 %
Property integrals               ...        0.267 sec (=   0.004 min)   4.0 %
Property calculations            ...        0.263 sec (=   0.004 min)   4.0 %
Orbital localization             ...        0.019 sec (=   0.000 min)   0.3 %
                             ****ORCA TERMINATED NORMALLY****
TOTAL RUN TIME: 0 days 0 hours 0 minutes 8 seconds 339 msec
