
                                 *****************
                                 * O   R   C   A *
                                 *****************

                                            #,                                       
                                            ###                                      
                                            ####                                     
                                            #####                                    
                                            ######                                   
                                           ########,                                 
                                     ,,################,,,,,                         
                               ,,#################################,,                 
                          ,,##########################################,,             
                       ,#########################################, ''#####,          
                    ,#############################################,,   '####,        
                  ,##################################################,,,,####,       
                ,###########''''           ''''###############################       
              ,#####''   ,,,,##########,,,,          '''####'''          '####       
            ,##' ,,,,###########################,,,                        '##       
           ' ,,###''''                  '''############,,,                           
         ,,##''                                '''############,,,,        ,,,,,,###''
      ,#''                                            '''#######################'''  
     '                                                          ''''####''''         
             ,#######,   #######,   ,#######,      ##                                
            ,#'     '#,  ##    ##  ,#'     '#,    #''#        ,####,    ,#,          
            ##       ##  ##   ,#'  ##            #'  '#       #'       ,# #          
            ##       ##  #######   ##           ,######,      #####,      #          
            '#,     ,#'  ##    ##  '#,     ,#' ,#      #,     #,   #      #          
             '#######'   ##     ##  '#######'  #'      '#     '####' #    #          



                #########################################################
                #                        -***-                          #
                #          Department of theory and spectroscopy        #
                #                                                       #
                #                      Frank Neese                      #
                #                                                       #
                #     Directorship, Architecture, Infrastructure        #
                #                    SHARK, DRIVERS                     #
                #        Core code/Algorithms in most modules           #
                #                                                       #
                #        Max Planck Institute fuer Kohlenforschung      #
                #                Kaiser Wilhelm Platz 1                 #
                #                 D-45470 Muelheim/Ruhr                 #
                #                      Germany                          #
                #                                                       #
                #                  All rights reserved                  #
                #                        -***-                          #
                #########################################################


                         Program Version 6.1.1  -  RELEASE   -
                                (GIT: $487d211c$)
                          ($2025-11-21 10:33:24 +0100$)


 With contributions from (in alphabetic order):
[Max-Planck-Institut fuer Kohlenforschung]                               
  Daniel Aravena         : Magnetic Suceptibility                        
  Michael Atanasov       : Ab Initio Ligand Field Theory (pilot matlab implementation)
  Alexander A. Auer      : GIAO ZORA, VPT2 properties, NMR spectrum      
  Ute Becker             : All parallelization in ORCA, NUMFREQ, NUMCALC 
  Giovanni Bistoni       : ED, misc. LED, open-shell LED, HFLD           
  Dmytro Bykov           : pre 5.0 version of the SCF Hessian            
  Marcos Casanova-Páez   : Triplet and SCS-CIS(D). UHF-(DLPNO)-IP/EA/STEOM-CCSD. UHF-CVS-IP/STEOM-CCSD   
  Vijay G. Chilkuri      : MRCI spin determinant printing, contributions to CSF-ICE 
  Pauline Colinet        : FMM embedding                                 
  Dipayan Datta          : RHF DLPNO-CCSD density                        
  Achintya Kumar Dutta   : EOM-CC, STEOM-CC                              
  Nicolas Foglia         : Exact transition moments, OPA infrastructure, MCD improvements    
  Dmitry Ganyushin       : Spin-Orbit,Spin-Spin,Magnetic field MRCI      
  Miquel Garcia-Rates    : C-PCM and meta-GGA Hessian, CCSD/C-PCM, Gaussian charge scheme 
  Tiago L. C. Gouveia    : GS-ROHF, GS-ROCIS                             
  Yang Guo               : DLPNO-NEVPT2, F12-NEVPT2, CIM, IAO-localization        
  Andreas Hansen         : Spin unrestricted coupled pair/coupled cluster methods 
  Ingolf Harden          : AUTO-CI MPn and infrastructure                
  Benjamin Helmich-Paris : MC-RPA, TRAH-(SCF,CASSCF), AVAS, COSX integrals, SCF dyn. polar., MC-PDFT, srDFT 
  Lee Huntington         : MR-EOM, pCC                                   
  Robert Izsak           : Overlap fitted RIJCOSX, COSX-SCS-MP3, EOM     
  Riya Kayal             : Wick's Theorem for AUTO-CI, AUTO-CI UHF-CCSDT 
  Emily Kempfer          : AUTO-CI RHF CISDT and CCSDT, approximate NEVPT4
  Christian Kollmar      : KDIIS, OOCD, Brueckner-CCSD(T), CCSD density, CASPT2, CASPT2-K, improved NEVPT2 
  Axel Koslowski         : Symmetry handling                             
  Simone Kossmann        : meta-GGA functionals, TD-DFT gradient, OOMP2, (MP2 Hessian; deprecated post 5.0) 
  Lucas Lang             : DCDCAS, Hyperfine gauge corrections, ICE-SOC+SSC
  Marvin Lechner         : AUTO-CI (C++ implementation), FIC-MRCC        
  Spencer Leger          : CASSCF response                               
  Dagmar Lenk            : GEPOL surface, SMD, ORCA-2-JSON               
  Dimitrios Liakos       : Extrapolation schemes; Compound Job, Property file
  Dimitrios Manganas     : Further ROCIS development; embedding schemes. LFT, Crystal Embedding 
  Dimitrios Pantazis     : SARC Basis sets                               
  Anastasios Papadopoulos: AUTO-CI, single reference methods and gradients 
  Taras Petrenko         : pre 6.0 DFT Hessian and TD-DFT gradient,  ECA, NRVS 
  Petra Pikulova         : Analytic Raman intensities                    
  Peter Pinski           : DLPNO-MP2, DLPNO-MP2 Gradient                 
  Shashank Vittal Rao    : ES-AILFT, MagRelax                            
  Christoph Reimann      : Effective Core Potentials                     
  Marius Retegan         : Local ZFS, SOC                                
  Christoph Riplinger    : Optimizer, TS searches, QM/MM, DLPNO-CCSD(T), (RO)-DLPNO pert. Triples 
  Michael Roemelt        : Original ROCIS implementation, recursive CI coupling coefficients
  Masaaki Saitow         : Open-shell DLPNO-CCSD energy and density      
  Barbara Sandhoefer     : DKH picture change effects                    
  Yorick L. A. Schmerwitz: GMF and freeze-and-release deltaSCF, NEB S-IDPP initial path                    
  Kantharuban Sivalingam : CASSCF convergence/infrastructure, NEVPT2, NEVPT3, NEVPT4(SD), FIC-MRCI and CEPA variants
  Bernardo de Souza      : ESD, SOC TD-DFT                               
  Georgi L. Stoychev     : AutoAux, RI-MP2 NMR, DLPNO-MP2 response, X2C  
  Van Anh Tran           : RI-MP2 g-tensors                              
  Willem Van den Heuvel  : Paramagnetic NMR                              
  Zikuan Wang            : NOTCH, Electric field optimization            
  Frank Wennmohs         : Technical directorship and infrastructure     
  Hang Xu                : AUTO-CI-Response properties                   
                                                                         
[FACCTs GmbH]                                                            
  Markus Bursch, Nicolas Foglia, Miquel Garcia-Rates, Ingolf Harden, Hagen Neugebauer, Anastasios Papadopoulos, 
  Christoph Riplinger, Bernardo de Souza, Georgi L. Stoychev                                                    
                                                                 
  APM, various basis sets, CI-OPT, improved COSX, DLPNO-Multilevel,           
  DOCKER, DRACO, updates on ESD, Fragmentator, GOAT, IRC, LR-CPCM, L-BFGS, MBIS, meta-GGA TD-DFT gradient, ML-optimized integration grids, 
  MM, NACMEs, nearIR, NEB, NEB-TS, NL-DFT gradient (VV10), 2- and 3-layer-ONIOM, interface openCOSMO-RS, QMMM,   
  Crystal-QMMM, RESP, rigid body optimization, SF, symmetry and pop. for TD-DFT, various functionals, SOLVATOR                                   
                                                                         
[Other institutions]                                                     
  V. Asgeirsson          : NEB                                           
  Christoph Bannwarth    : sTDA-DFT, sTD-DFT, PBEh-3c, B97-3c, D3        
  Giovanni Bistoni       : ETS/NOCV, ADLD/ADEX, COVALED                  
  Martin Brehm           : Molecular dynamics                            
  Ronald Cardenas        : ETS/NOCV                                      
  Martina Colucci        : COVALED                                       
  Sebastian Ehlert       : rSCAN, r2SCAN, r2SCAN-3c, D4, dhf basis sets  
  Marvin Friede          : D4 for Fr, Ra, Ac-Lr                          
  Lars Goerigk           : TD-DFT with DH, B97 family of functionals     
  Stefan Grimme          : VdW corrections, initial TS optimization, DFT functionals, gCP, sTDA/sTD-DF 
  Waldemar Hujo          : DFT-NL                                        
  H. Jonsson             : NEB                                           
  Holger Kruse           : gCP                                           
  Marcel Mueller         : wB97X-3c, vDZP basis set                      
  Hagen Neugebauer       : wr2SCAN, Native XTB                           
  Gianluca Regni         : ADLD/ADEX                                     
  Tobias Risthaus        : pre 6.0 range-separated hybrid DFT and stability analysis
  Lukas Wittmann         : regularized MP2, r2SCAN double-hybrids, wr2SCAN        
                                                                         
We gratefully acknowledge several colleagues who have allowed us to      
interface, adapt or use parts of their codes:                            
  Ed Valeev, F. Pavosevic, A. Kumar             : LibInt (2-el integral package), F12 methods 
  Garnet Chan, S. Sharma, J. Yang, R. Olivares  : DMRG                   
  Ulf Ekstrom                                   : XCFun DFT Library      
  Mihaly Kallay                                 : mrcc  (arbitrary order and MRCC methods)
  Frank Weinhold                                : gennbo (NPA and NBO analysis)           
  Simon Mueller                                 : openCOSMO-RS                            
  Christopher J. Cramer and Donald G. Truhlar   : smd solvation model                     
  S Lehtola, MJT Oliveira, MAL Marques          : LibXC Library                           
  Liviu Ungur et al                             : ANISO software                          


 Your calculation uses the libint2 library for the computation of 2-el integrals
 For citations please refer to: http://libint.valeyev.net

 Your ORCA version has been built with support for libXC version: 7.0.0
 For citations please refer to: https://libxc.gitlab.io

 This ORCA versions uses:
   CBLAS   interface :  Fast vector & matrix operations
   LAPACKE interface :  Fast linear algebra routines
   SCALAPACK package :  Parallel linear algebra routines
   Shared memory     :  Shared parallel matrices
   BLAS/LAPACK       :  OpenBLAS 0.3.29  USE64BITINT DYNAMIC_ARCH NO_AFFINITY Cooperlake SINGLE_THREADED
        Core in use  :  Cooperlake
   Copyright (c) 2011-2014, The OpenBLAS Project


  ***********************************
  * Starting time: Wed May 20 12:39:34 2026
  * Host name:     c1-37
  * Process ID:    671261
  * Working dir.:  /cluster/projects/nn14654k/ylvaos/basis_set_n_funcs/functionals/gga_x_pw91/PO2/out
  ***********************************

Using LibXC functional ID 109 : Perdew & Wang 91
[ 1]  J. P. Perdew. In P. Ziesche and H. Eschrig, editors, Proceedings of the 75. WE-Heraeus-Seminar and 21st Annual International Symposium on Electronic Structure of Solids, 11. Berlin, 1991. Akademie Verlag.
[ 2]  J. P. Perdew, J. A. Chevary, S. H. Vosko, K. A. Jackson, M. R. Pederson, D. J. Singh, and C. Fiolhais.,  Phys. Rev. B 46, 6671 (1992)
[ 3]  J. P. Perdew, J. A. Chevary, S. H. Vosko, K. A. Jackson, M. R. Pederson, D. J. Singh, and C. Fiolhais.,  Phys. Rev. B 48, 4978 (1993)
Using LibXC functional ID 109 : Perdew & Wang 91
[ 1]  J. P. Perdew. In P. Ziesche and H. Eschrig, editors, Proceedings of the 75. WE-Heraeus-Seminar and 21st Annual International Symposium on Electronic Structure of Solids, 11. Berlin, 1991. Akademie Verlag.
[ 2]  J. P. Perdew, J. A. Chevary, S. H. Vosko, K. A. Jackson, M. R. Pederson, D. J. Singh, and C. Fiolhais.,  Phys. Rev. B 46, 6671 (1992)
[ 3]  J. P. Perdew, J. A. Chevary, S. H. Vosko, K. A. Jackson, M. R. Pederson, D. J. Singh, and C. Fiolhais.,  Phys. Rev. B 48, 4978 (1993)
Your calculation utilizes LibXC
by S. Lehtola, C. Steigemann, M. J. T. Oliveira & M. A. L. Marques
Please cite in your paper:
Lehtola, S.; Steigemann, C.; Oliveira, M.J.T.; Marques, M. A. L. Software X, 7, (2018), 1.
   

================================================================================

----- Orbital basis set information -----
Your calculation utilizes the basis: def2-SVP
   F. Weigend and R. Ahlrichs, Phys. Chem. Chem. Phys. 7, 3297 (2005).

================================================================================
                                        WARNINGS
                       Please study these warnings very carefully!
================================================================================


WARNING: your system is open-shell and RHF/RKS was chosen
  ===> : WILL SWITCH to UHF/UKS


================================================================================
                                       INPUT FILE
================================================================================
NAME = /cluster/projects/nn14654k/ylvaos/basis_set_n_funcs/functionals/gga_x_pw91/PO2/inp/PO2_gga_x_pw91_def2svp.inp
|  1> ! dft def2-SVP TightSCF
|  2> %pal nprocs 8 end
|  3> 
|  4> %loc
|  5>   LocMet NewBoys
|  6>   Occ true
|  7> end
|  8> 
|  9> %method
| 10>   exchange gga_x_pw91
| 11>   correlation None
| 12> end
| 13> 
| 14> %elprop
| 15>   Dipole true
| 16>   Quadrupole true
| 17> end
| 18> 
| 19> * xyz 0 2
| 20> P    0.000000000000   0.000000000000   0.287900000000
| 21> O    0.000000000000   1.356300000000  -0.269900000000
| 22> O    0.000000000000  -1.356300000000  -0.269900000000
| 23> *
| 24> 
| 25> 
| 26>                          ****END OF INPUT****
================================================================================

                       ****************************
                       * Single Point Calculation *
                       ****************************

---------------------------------
CARTESIAN COORDINATES (ANGSTROEM)
---------------------------------
  P      0.000000    0.000000    0.287900
  O      0.000000    1.356300   -0.269900
  O      0.000000   -1.356300   -0.269900

----------------------------
CARTESIAN COORDINATES (A.U.)
----------------------------
  NO LB      ZA    FRAG     MASS         X           Y           Z
   0 P    15.0000    0    30.974    0.000000    0.000000    0.544052
   1 O     8.0000    0    15.999    0.000000    2.563036   -0.510037
   2 O     8.0000    0    15.999    0.000000   -2.563036   -0.510037

--------------------------------
INTERNAL COORDINATES (ANGSTROEM)
--------------------------------
 P      0   0   0     0.000000000000     0.00000000     0.00000000
 O      1   0   0     1.466523279733     0.00000000     0.00000000
 O      1   2   0     1.466523279733   135.28860674     0.00000000

---------------------------
INTERNAL COORDINATES (A.U.)
---------------------------
 P      0   0   0     0.000000000000     0.00000000     0.00000000
 O      1   0   0     2.771327367716     0.00000000     0.00000000
 O      1   2   0     2.771327367716   135.28860674     0.00000000

---------------------
BASIS SET INFORMATION
---------------------
There are 2 groups of distinct atoms

 Group   1 Type P   : 10s7p1d contracted to 4s3p1d pattern {5311/511/1}
 Group   2 Type O   : 7s4p1d contracted to 3s2p1d pattern {511/31/1}

Atom   0P    basis set group =>   1
Atom   1O    basis set group =>   2
Atom   2O    basis set group =>   2


           ************************************************************
           *        Program running with 8 parallel MPI-processes     *
           *              working on a common directory               *
           ************************************************************
------------------------------------------------------------------------------
                             ORCA STARTUP CALCULATIONS
------------------------------------------------------------------------------
------------------------------------------------------------------------------
                   ___                                                        
                  /   \      - P O W E R E D   B Y -                         
                 /     \                                                     
                 |  |  |   _    _      __       _____    __    __             
                 |  |  |  | |  | |    /  \     |  _  \  |  |  /  |          
                  \  \/   | |  | |   /    \    | | | |  |  | /  /          
                 / \  \   | |__| |  /  /\  \   | |_| |  |  |/  /          
                |  |  |   |  __  | /  /__\  \  |    /   |      \           
                |  |  |   | |  | | |   __   |  |    \   |  |\   \          
                \     /   | |  | | |  |  |  |  | |\  \  |  | \   \       
                 \___/    |_|  |_| |__|  |__|  |_| \__\ |__|  \__/        
                                                                              
                      - O R C A' S   B I G   F R I E N D -                    
                                      &                                       
                       - I N T E G R A L  F E E D E R -                       
                                                                              
 v1 FN, 2020, v2 2021, v3 2022-2024                                           
------------------------------------------------------------------------------


----------------------
SHARK INTEGRAL PACKAGE
----------------------

Number of atoms                             ...      3
Number of basis functions                   ...     46
Number of shells                            ...     20
Maximum angular momentum                    ...      2
Integral batch strategy                     ... SHARK/LIBINT Hybrid
RI-J (if used) integral strategy            ... SPLIT-RIJ (Revised 2003 algorithm where possible)
Printlevel                                  ...      1
Contraction scheme used                     ... SEGMENTED contraction
Prescreening option                         ... SCHWARTZ
   Thresh                                   ... 2.500e-11
   Tcut                                     ... 2.500e-12
   Tpresel                                  ... 2.500e-12 
Coulomb Range Separation                    ... NOT USED
Exchange Range Separation                   ... NOT USED
Multipole approximations                    ... NOT USED
Finite Nucleus Model                        ... NOT USED
CABS basis                                  ... NOT available
Auxiliary Coulomb fitting basis             ... NOT available
Auxiliary J/K fitting basis                 ... NOT available
Auxiliary Correlation fitting basis         ... NOT available
Auxiliary 'external' fitting basis          ... NOT available

Checking pre-screening integrals            ... done (  0.0 sec) Dimension = 20
   => SHARK Basis and OBASIS are compatible. Storing Pre-screening
Shell pair information
Shell pair cut-off parameter TPreSel        ...   2.5e-12
Total number of shell pairs                 ...       210
Shell pairs after pre-screening             ...       207
Total number of primitive shell pairs       ...       952
Primitive shell pairs kept                  ...       775
          la=0 lb=0:     52 shell pairs
          la=1 lb=0:     70 shell pairs
          la=1 lb=1:     28 shell pairs
          la=2 lb=0:     30 shell pairs
          la=2 lb=1:     21 shell pairs
          la=2 lb=2:      6 shell pairs

Checking whether 4 symmetric matrices of dimension 46 fit in memory
:Max Core in MB      =   4096.00
 MB in use           =      1.46
 MB left             =   4094.54
 MB needed           =      0.03
 Data fit in memory  = YES
Calculating Nuclear repulsion               ... done (  0.0 sec) ENN=     99.086296046297 Eh

Diagonalization of the overlap matrix:
Smallest eigenvalue                        ... 2.387e-02
Time for diagonalization                   ...    0.000 sec
Threshold for overlap eigenvalues          ... 1.000e-07
Number of eigenvalues below threshold      ... 0
Time for construction of square roots      ...    0.001 sec
Total time needed                          ...    0.199 sec

-------------------
DFT GRID GENERATION
-------------------

General Integration Accuracy     IntAcc      ... 4.388
Radial Grid Type                 RadialGrid  ... OptM3 with GC (2021)
Angular Grid (max. ang.)         AngularGrid ... 4 (Lebedev-302)
Angular grid pruning method      GridPruning ... 4 (adaptive)
Weight generation scheme         WeightScheme... mBecke (2022)
Basis function cutoff            BFCut       ... 1.0000e-11
Integration weight cutoff        WCut        ... 1.0000e-14
Partially contracted basis set               ... off
Rotationally invariant grid construction     ... off
Angular grids for H and He will be reduced by one unit

Total number of grid points                  ...    19622
Total number of batches                      ...      309
Average number of points per batch           ...       63
Average number of grid points per atom       ...     6541
Grids setup in   0.0 sec
Initializing property integral containers    ... done (  0.0 sec)

SHARK setup successfully completed in   0.3 seconds

Maximum memory used throughout the entire STARTUP-calculation: 6.8 MB


           ************************************************************
           *        Program running with 8 parallel MPI-processes     *
           *              working on a common directory               *
           ************************************************************
-------------------------------------------------------------------------------
                                 ORCA GUESS
                   Start orbitals & Density for SCF / CASSCF
-------------------------------------------------------------------------------

------------
SCF SETTINGS
------------
Hamiltonian:
 Density Functional     Method          .... DFT(GTOs)
  Functional kind                       .... Exchange
  Functional name                       .... Perdew & Wang 91
  Functional family                     .... GGA
  Functional refs                              
    [ 0] J. P. Perdew. In P. Ziesche and H. Eschrig, editors, Proceedings of the 75. WE-Heraeus-Seminar and 21st Annual International Symposium on Electronic Structure of Solids, 11. Berlin, 1991. Akademie Verlag.
    [ 1] J. P. Perdew, J. A. Chevary, S. H. Vosko, K. A. Jackson, M. R. Pederson, D. J. Singh, and C. Fiolhais.,  Phys. Rev. B 46, 6671 (1992), doi: 10.1103/PhysRevB.46.6671
    [ 2] J. P. Perdew, J. A. Chevary, S. H. Vosko, K. A. Jackson, M. R. Pederson, D. J. Singh, and C. Fiolhais.,  Phys. Rev. B 48, 4978 (1993), doi: 10.1103/PhysRevB.48.4978.2
  Functional external parameters        .... 7
    Parameter  0 _a         =  1.964500e-01 : a parameter         
    Parameter  1 _b         =  7.795600e+00 : b parameter         
    Parameter  2 _c         =  2.743000e-01 : c parameter         
    Parameter  3 _d         = -1.508000e-01 : d parameter         
    Parameter  4 _f         =  4.000000e-03 : f parameter         
    Parameter  5 _alpha     =  1.000000e+02 : alpha parameter     
    Parameter  6 _expo      =  4.000000e+00 : exponent            
 Correlation Functional Correlation     .... No Correlation
 Gradients option       PostSCFGGA      .... off


General Settings:
 Integral files         IntName         .... /cluster/projects/nn14654k/ylvaos/basis_set_n_funcs/functionals/gga_x_pw91/PO2/inp/PO2_gga_x_pw91_def2svp
 Hartree-Fock type      HFTyp           .... UHF
 Total Charge           Charge          ....    0
 Multiplicity           Mult            ....    2
 Number of Electrons    NEL             ....   31
 Basis Dimension        Dim             ....   46
 Nuclear Repulsion      ENuc            ....     99.0862960463 Eh

Convergence Acceleration:
 AO-DIIS                CNVDIIS         .... on
   Start iteration      DIISMaxIt       ....    12
   Startup error        DIISStart       ....  0.200000
   # of expansion vecs  DIISMaxEq       ....     5
   Bias factor          DIISBfac        ....   1.050
   Max. coefficient     DIISMaxC        ....  10.000
 MO-DIIS                CNVKDIIS        .... off
 Trust-Rad. Augm. Hess. CNVTRAH         .... auto
   Auto Start mean grad. ratio tolernc. ....  1.125000
   Auto Start start iteration           ....    50
   Auto Start num. interpolation iter.  ....    10
   Max. Number of Micro iterations      ....    24
   Max. Number of Macro iterations      .... Maxiter - #DIIS iter
   Number of Davidson start vectors     ....     2
   Converg. threshold    (grad. norm)   ....   1.000e-05
   Grad. Scal. Fac. for Micro threshold ....   0.100
   Minimum threshold for Micro iter.    ....   1.000e-02
   NR start threshold (gradient norm)   ....   1.000e-04
   Initial trust radius                 ....   0.400
   Minimum AH scaling param. (alpha)    ....   1.000
   Maximum AH scaling param. (alpha)    .... 1000.000
   Quad. conv. algorithm                .... NR
   White noise on init. David. guess    .... on
   Maximum white noise                  ....   0.010
   Pseudo random numbers                .... off
   Inactive MOs                         .... canonical
   Orbital update algorithm             .... Taylor
   Preconditioner                       .... Diag
   Full preconditioner red. dimension   ....   250
 SOSCF                 CNVSOSCF           .... on
   Start iteration     SOSCFMaxIt         ....   150
   Startup grad/error  SOSCFStart         ....  0.003300
   Hessian update      SOSCFHessUp        .... L-BFGS
   Autom. constraints  SOSCFAutoConstrain .... off
 Level Shifting         CNVShift        .... on
   Level shift para.    LevelShift      ....    0.2500
   Turn off err/grad.   ShiftErr        ....    0.0010
 Zerner damping         CNVZerner       .... off
 Static damping         CNVDamp         .... on
   Fraction old density DampFac         ....    0.7000
   Max. Damping (<1)    DampMax         ....    0.9800
   Min. Damping (>=0)   DampMin         ....    0.0000
   Turn off err/grad.   DampErr         ....    0.1000

SCF Procedure:
 Maximum # iterations   MaxIter         ....   125
 SCF integral mode      SCFMode         .... Direct
   Integral package                     .... SHARK and LIBINT hybrid scheme
 Reset frequency        DirectResetFreq ....    20
 Integral Threshold     Thresh          ....  2.500e-11 Eh
 Primitive CutOff       TCut            ....  2.500e-12 Eh

Convergence Tolerance:
 Convergence Check Mode ConvCheckMode   .... Total+1el-Energy
 Convergence forced     ConvForced      .... 0
 Energy Change          TolE            ....  1.000e-08 Eh
 1-El. energy change                    ....  1.000e-05 Eh
 Orbital Gradient       TolG            ....  1.000e-05
 Orbital Rotation angle TolX            ....  1.000e-05
 DIIS Error             TolErr          ....  5.000e-07

------------------------------
INITIAL GUESS: MODEL POTENTIAL
------------------------------
Loading Hartree-Fock densities                     ... done
Calculating cut-offs                               ... done
Initializing the effective Hamiltonian             ... done
Setting up the integral package (SHARK)            ... done
Starting the Coulomb interaction                   ... done (   0.0 sec)
Making the grid                                    ... done (   0.0 sec)
Mapping shells                                     ... done
Starting the XC term evaluation                    ... done (   0.0 sec)
  promolecular density results
     # of electrons  =     31.000340385
     EX              =    -38.955341637
     EC              =      0.000000000
     EX+EC           =    -38.955341637
Transforming the Hamiltonian                       ... done (   0.0 sec)
Diagonalizing the Hamiltonian                      ... done (   0.0 sec)
Back transforming the eigenvectors                 ... done (   0.0 sec)
Now organizing SCF variables                       ... done
                      ------------------
                      INITIAL GUESS DONE (   0.0 sec)
                      ------------------
             **** ENERGY FILE WAS UPDATED (/cluster/projects/nn14654k/ylvaos/basis_set_n_funcs/functionals/gga_x_pw91/PO2/inp/PO2_gga_x_pw91_def2svp.en.tmp) ****
Finished Guess after   0.2 sec
Maximum memory used throughout the entire GUESS-calculation: 3.7 MB


           ************************************************************
           *        Program running with 8 parallel MPI-processes     *
           *              working on a common directory               *
           ************************************************************

-------------------------------------------------------------------------------------------
                                      ORCA LEAN-SCF
                              memory conserving SCF solver
-------------------------------------------------------------------------------------------

----------------------------------------D-I-I-S--------------------------------------------
Iteration    Energy (Eh)           Delta-E    RMSDP     MaxDP     DIISErr   Damp  Time(sec)
-------------------------------------------------------------------------------------------
               ***  Starting incremental Fock matrix formation  ***
    1    -490.0229333529327391     0.00e+00  2.37e-02  1.27e-01  1.51e-01  0.700   0.1
Warning: op=1 Small HOMO/LUMO gap (   0.060) - skipping pre-diagonalization
         Will do a full diagonalization
    2    -490.1725565261505722    -1.50e-01  9.35e-03  4.16e-02  3.89e-02  0.700   0.1
                               ***Turning on AO-DIIS***
    3    -490.2021502138459823    -2.96e-02  3.29e-03  1.14e-02  1.46e-02  0.700   0.1
    4    -490.2234867102681051    -2.13e-02  5.96e-03  3.28e-02  2.07e-02  0.000   0.1
    5    -490.2844727429007321    -6.10e-02  2.33e-03  8.42e-03  1.70e-02  0.000   0.1
    6    -490.2871051193278049    -2.63e-03  9.49e-04  3.61e-03  6.71e-03  0.000   0.1
                              *** Initializing SOSCF ***
---------------------------------------S-O-S-C-F--------------------------------------
Iteration    Energy (Eh)           Delta-E    RMSDP     MaxDP     MaxGrad    Time(sec)
--------------------------------------------------------------------------------------
    7    -490.2875027091908464    -3.98e-04  4.07e-04  1.60e-03  2.71e-03     0.1
               *** Restarting incremental Fock matrix formation ***
    8    -490.2875675892268532    -6.49e-05  7.42e-04  2.58e-03  1.77e-03     0.1
    9    -490.2875131734107867     5.44e-05  5.05e-04  2.72e-03  3.54e-03     0.1
   10    -490.2875830594896911    -6.99e-05  7.31e-05  3.93e-04  1.29e-04     0.1
   11    -490.2875832856514648    -2.26e-07  2.39e-05  1.47e-04  6.66e-05     0.1
   12    -490.2875833460671515    -6.04e-08  7.55e-06  4.80e-05  1.09e-05     0.1
   13    -490.2875833484352484    -2.37e-09  1.70e-06  9.98e-06  5.34e-06     0.1
                 **** Energy Check signals convergence ****

               *****************************************************
               *                     SUCCESS                       *
               *           SCF CONVERGED AFTER  13 CYCLES          *
               *****************************************************

             **** ENERGY FILE WAS UPDATED (/cluster/projects/nn14654k/ylvaos/basis_set_n_funcs/functionals/gga_x_pw91/PO2/inp/PO2_gga_x_pw91_def2svp.en.tmp) ****

----------------
TOTAL SCF ENERGY
----------------

Total Energy       :       -490.28758334884373 Eh          -13341.40341 eV

Components:
Nuclear Repulsion  :         99.08629604629714 Eh            2696.27519 eV
Electronic Energy  :       -589.37387939514088 Eh          -16037.67860 eV
One Electron Energy:       -874.67578642569401 Eh          -23801.13818 eV
Two Electron Energy:        285.30190703055320 Eh            7763.45958 eV

Virial components:
Potential Energy   :       -979.93792941917877 Eh          -26665.46671 eV
Kinetic Energy     :        489.65034607033499 Eh           13324.06330 eV
Virial Ratio       :          2.00130141290336

DFT components:
N(Alpha)           :       15.999999345766 electrons
N(Beta)            :       15.000000311358 electrons
N(Total)           :       30.999999657124 electrons
E(X)               :      -39.148373225910 Eh       
E(C)               :        0.000000000000 Eh       
E(XC)              :      -39.148373225910 Eh       

---------------
SCF CONVERGENCE
---------------

  Last Energy change         ...    2.3681e-09  Tolerance :   1.0000e-08
  Last MAX-Density change    ...    9.9756e-06  Tolerance :   1.0000e-07
  Last RMS-Density change    ...    1.7021e-06  Tolerance :   5.0000e-09
  Last DIIS Error            ...    2.7106e-03  Tolerance :   5.0000e-07
  Last Orbital Gradient      ...    5.3369e-06  Tolerance :   1.0000e-05
  Last Orbital Rotation      ...    1.2373e-05  Tolerance :   1.0000e-05


----------------------
UHF SPIN CONTAMINATION
----------------------

Warning: in a DFT calculation there is little theoretical justification to 
         calculate <S**2> as in Hartree-Fock theory. We will do it anyways
         but you should keep in mind that the values have only limited relevance

Expectation value of <S**2>     :     0.753099
Ideal value S*(S+1) for S=0.5   :     0.750000
Deviation                       :     0.003099

----------------
ORBITAL ENERGIES
----------------
                 SPIN UP ORBITALS
  NO   OCC          E(Eh)            E(eV) 
   0   1.0000     -76.424194     -2079.6080 
   1   1.0000     -18.787383      -511.2307 
   2   1.0000     -18.787371      -511.2303 
   3   1.0000      -6.374078      -173.4475 
   4   1.0000      -4.604734      -125.3012 
   5   1.0000      -4.602579      -125.2425 
   6   1.0000      -4.601647      -125.2172 
   7   1.0000      -0.929774       -25.3004 
   8   1.0000      -0.882435       -24.0123 
   9   1.0000      -0.456584       -12.4243 
  10   1.0000      -0.363004        -9.8779 
  11   1.0000      -0.355167        -9.6646 
  12   1.0000      -0.354285        -9.6406 
  13   1.0000      -0.280679        -7.6377 
  14   1.0000      -0.273216        -7.4346 
  15   1.0000      -0.220609        -6.0031 
  16   0.0000      -0.072717        -1.9787 
  17   0.0000       0.041004         1.1158 
  18   0.0000       0.145825         3.9681 
  19   0.0000       0.239314         6.5121 
  20   0.0000       0.465082        12.6555 
  21   0.0000       0.476990        12.9795 
  22   0.0000       0.502405        13.6711 
  23   0.0000       0.506826        13.7914 
  24   0.0000       0.543659        14.7937 
  25   0.0000       0.590948        16.0805 
  26   0.0000       0.779803        21.2195 

                 SPIN DOWN ORBITALS
  NO   OCC          E(Eh)            E(eV) 
   0   1.0000     -76.422497     -2079.5619 
   1   1.0000     -18.780308      -511.0382 
   2   1.0000     -18.780295      -511.0378 
   3   1.0000      -6.371786      -173.3851 
   4   1.0000      -4.602441      -125.2388 
   5   1.0000      -4.600418      -125.1837 
   6   1.0000      -4.597938      -125.1163 
   7   1.0000      -0.913465       -24.8567 
   8   1.0000      -0.864947       -23.5364 
   9   1.0000      -0.430661       -11.7189 
  10   1.0000      -0.344864        -9.3842 
  11   1.0000      -0.340170        -9.2565 
  12   1.0000      -0.335667        -9.1340 
  13   1.0000      -0.274655        -7.4737 
  14   1.0000      -0.260461        -7.0875 
  15   0.0000      -0.166072        -4.5191 
  16   0.0000      -0.048458        -1.3186 
  17   0.0000       0.056654         1.5416 
  18   0.0000       0.167946         4.5700 
  19   0.0000       0.258799         7.0423 
  20   0.0000       0.478750        13.0274 
  21   0.0000       0.492543        13.4028 
  22   0.0000       0.543361        14.7856 
  23   0.0000       0.549634        14.9563 
  24   0.0000       0.559224        15.2173 
  25   0.0000       0.599291        16.3075 
*Only the first 10 virtual orbitals were printed.

                    ********************************
                    * MULLIKEN POPULATION ANALYSIS *
                    ********************************

--------------------------------------------
MULLIKEN ATOMIC CHARGES AND SPIN POPULATIONS
--------------------------------------------
   0 P :    0.597872    0.576040
   1 O :   -0.298936    0.211980
   2 O :   -0.298936    0.211980
Sum of atomic charges         :   -0.0000000
Sum of atomic spin populations:    1.0000000

-----------------------------------------------------
MULLIKEN REDUCED ORBITAL CHARGES AND SPIN POPULATIONS
-----------------------------------------------------
CHARGE
  0 P s       :     5.575877  s :     5.575877
      pz      :     2.897726  p :     8.360307
      px      :     2.802735
      py      :     2.659846
      dz2     :     0.066775  d :     0.465945
      dxz     :     0.011076
      dyz     :     0.144296
      dx2y2   :     0.112329
      dxy     :     0.131469

  1 O s       :     3.819707  s :     3.819707
      pz      :     1.531034  p :     4.465670
      px      :     1.523117
      py      :     1.411518
      dz2     :     0.001955  d :     0.013559
      dxz     :     0.000579
      dyz     :     0.003853
      dx2y2   :     0.003507
      dxy     :     0.003664

  2 O s       :     3.819707  s :     3.819707
      pz      :     1.531034  p :     4.465670
      px      :     1.523117
      py      :     1.411518
      dz2     :     0.001955  d :     0.013559
      dxz     :     0.000579
      dyz     :     0.003853
      dx2y2   :     0.003507
      dxy     :     0.003664


SPIN
  0 P s       :     0.307457  s :     0.307457
      pz      :     0.170946  p :     0.187570
      px      :     0.032517
      py      :    -0.015893
      dz2     :     0.026453  d :     0.081013
      dxz     :    -0.003032
      dyz     :    -0.000273
      dx2y2   :     0.057568
      dxy     :     0.000297

  1 O s       :    -0.007465  s :    -0.007465
      pz      :     0.189792  p :     0.219086
      px      :    -0.014962
      py      :     0.044256
      dz2     :     0.000033  d :     0.000359
      dxz     :     0.000037
      dyz     :     0.000125
      dx2y2   :     0.000129
      dxy     :     0.000035

  2 O s       :    -0.007465  s :    -0.007465
      pz      :     0.189792  p :     0.219086
      px      :    -0.014962
      py      :     0.044256
      dz2     :     0.000033  d :     0.000359
      dxz     :     0.000037
      dyz     :     0.000125
      dx2y2   :     0.000129
      dxy     :     0.000035



                     *******************************
                     * LOEWDIN POPULATION ANALYSIS *
                     *******************************

-------------------------------------------
LOEWDIN ATOMIC CHARGES AND SPIN POPULATIONS
-------------------------------------------
   0 P :    0.592599    0.576914
   1 O :   -0.296299    0.211543
   2 O :   -0.296299    0.211543

----------------------------------------------------
LOEWDIN REDUCED ORBITAL CHARGES AND SPIN POPULATIONS
----------------------------------------------------
CHARGE
  0 P s       :     5.259130  s :     5.259130
      pz      :     2.938542  p :     8.481596
      px      :     2.783360
      py      :     2.759695
      dz2     :     0.089543  d :     0.666675
      dxz     :     0.012105
      dyz     :     0.210196
      dx2y2   :     0.188856
      dxy     :     0.165974

  1 O s       :     3.663358  s :     3.663358
      pz      :     1.557120  p :     4.612376
      px      :     1.514706
      py      :     1.540550
      dz2     :     0.002429  d :     0.020565
      dxz     :     0.000613
      dyz     :     0.006831
      dx2y2   :     0.006732
      dxy     :     0.003961

  2 O s       :     3.663358  s :     3.663358
      pz      :     1.557120  p :     4.612376
      px      :     1.514706
      py      :     1.540550
      dz2     :     0.002429  d :     0.020565
      dxz     :     0.000613
      dyz     :     0.006831
      dx2y2   :     0.006732
      dxy     :     0.003961


SPIN
  0 P s       :     0.242332  s :     0.242332
      pz      :     0.187324  p :     0.203631
      px      :     0.028857
      py      :    -0.012551
      dz2     :     0.042110  d :     0.130950
      dxz     :    -0.002829
      dyz     :    -0.001074
      dx2y2   :     0.092691
      dxy     :     0.000052

  1 O s       :     0.006980  s :     0.006980
      pz      :     0.178460  p :     0.204488
      px      :    -0.013142
      py      :     0.039170
      dz2     :     0.000075  d :     0.000076
      dxz     :     0.000043
      dyz     :    -0.000085
      dx2y2   :    -0.000016
      dxy     :     0.000059

  2 O s       :     0.006980  s :     0.006980
      pz      :     0.178460  p :     0.204488
      px      :    -0.013142
      py      :     0.039170
      dz2     :     0.000075  d :     0.000076
      dxz     :     0.000043
      dyz     :    -0.000085
      dx2y2   :    -0.000016
      dxy     :     0.000059



                      *****************************
                      * MAYER POPULATION ANALYSIS *
                      *****************************

  NA   - Mulliken gross atomic population
  ZA   - Total nuclear charge
  QA   - Mulliken gross atomic charge
  VA   - Mayer's total valence
  BVA  - Mayer's bonded valence
  FA   - Mayer's free valence

  ATOM       NA         ZA         QA         VA         BVA        FA
  0 P     14.4021    15.0000     0.5979     4.3187     3.9802     0.3385
  1 O      8.2989     8.0000    -0.2989     2.2611     2.2070     0.0541
  2 O      8.2989     8.0000    -0.2989     2.2611     2.2070     0.0541

  Mayer bond orders larger than 0.100000
B(  0-P ,  1-O ) :   1.9901 B(  0-P ,  2-O ) :   1.9901 B(  1-O ,  2-O ) :   0.2169 


-------
TIMINGS
-------

Total SCF time: 0 days 0 hours 0 min 1 sec 

Total time                  ....       1.262 sec
Sum of individual times     ....       1.188 sec  ( 94.1%)

SCF preparation             ....       0.053 sec  (  4.2%)
Fock matrix formation       ....       0.662 sec  ( 52.5%)
  Startup                   ....       0.016 sec  (  2.4% of F)
  Coulomb formation         ....       0.074 sec  ( 11.2% of F)
  XC integration            ....       0.338 sec  ( 51.0% of F)
    XC Preparation          ....       0.000 sec  (  0.0% of XC)
    Basis function eval.    ....       0.016 sec  (  4.9% of XC)
    Density eval.           ....       0.010 sec  (  3.0% of XC)
    XC-Functional eval.     ....       0.014 sec  (  4.2% of XC)
    XC-Potential eval.      ....       0.017 sec  (  4.9% of XC)
Diagonalization             ....       0.000 sec  (  0.0%)
Density matrix formation    ....       0.105 sec  (  8.3%)
Total Energy calculation    ....       0.023 sec  (  1.8%)
Population analysis         ....       0.010 sec  (  0.8%)
Orbital Transformation      ....       0.022 sec  (  1.7%)
Orbital Orthonormalization  ....       0.000 sec  (  0.0%)
DIIS solution               ....       0.208 sec  ( 16.5%)
SOSCF solution              ....       0.107 sec  (  8.5%)
Finished LeanSCF after   1.3 sec

Maximum memory used throughout the entire LEANSCF-calculation: 6.3 MB


           ************************************************************
           *        Program running with 8 parallel MPI-processes     *
           *              working on a common directory               *
           ************************************************************

------------------------------------------------------------------------------
                         ORCA PROPERTY INTEGRAL CALCULATIONS
------------------------------------------------------------------------------

GBWName                                   ... /cluster/projects/nn14654k/ylvaos/basis_set_n_funcs/functionals/gga_x_pw91/PO2/inp/PO2_gga_x_pw91_def2svp.gbw
Number of atoms                           ...      3
Number of basis functions                 ...     46
Max core memory                           ...   4096 MB

Dipole integrals                          ... YES
Quadrupole integrals                      ... YES
Linear momentum integrals                 ...  NO
Angular momentum integrals                ...  NO
Higher moments length integrals           ...  NO
Higher moments velocity integrals         ...  NO
Kinetic energy integrals                  ...  NO
GIAO right hand sides                     ...  NO
GIAO dipole derivative integrals          ...  NO
SOC integrals                             ...  NO
EPR diamagnetic integrals (GIAO)          ...  NO
EPR gauge integrals                       ...  NO
Field gradient integrals                  ...  NO (   0 nuclei)
Spin-dipole/Fermi contact integrals       ...  NO (   0 nuclei)
Contact density integrals                 ...  NO (   0 nuclei)
Nucleus-orbit integrals                   ...  NO (   0 nuclei)
Geometric perturbations                   ...  NO (   3 nuclei)

Choice of electric origin   ... Center of mass
Position of electric origin ... (  0.0000,  0.0000,  0.0084) 
Choice of magnetic origin   ... GIAO
Position of magnetic origin ... (  0.0000,  0.0000,  0.0000) 

Calculating integrals                     ... Electric Dipole (Length)     done (  0.0 sec)
Calculating integrals                     ... Electric Quadrupole (Length) done (  0.0 sec)

Property integrals calculated in   0.0 sec

Maximum memory used throughout the entire PROPINT-calculation: 3.9 MB
------------------------------------------------------------------------------
                           ORCA ORBITAL LOCALIZATION
------------------------------------------------------------------------------

Input orbitals are from                  ... /cluster/projects/nn14654k/ylvaos/basis_set_n_funcs/functionals/gga_x_pw91/PO2/inp/PO2_gga_x_pw91_def2svp.gbw
Output orbitals are to                   ... /cluster/projects/nn14654k/ylvaos/basis_set_n_funcs/functionals/gga_x_pw91/PO2/inp/PO2_gga_x_pw91_def2svp.loc
Max. number of iterations                ... 128
Localizations seeded randomly            ... on
Convergence tolerance                    ... 1.000e-06
Threshold for strong local MOs           ... 9.500e-01
Threshold for bond MOs                   ... 8.500e-01
Operator                                 ... 0
Orbital range for localization           ... 4 to 15
Localization criterion                   ... NEW-BOYS
Doing the dipole integrals               ... o.k.
Initial value of the localization sum :    38.157922
ITERATION   0 : L=   47.6921865420 DL=  9.53e+00 (AVERGE_DL)=    0.3800770414 
ITERATION   1 : L=   49.6466332812 DL=  1.95e+00 (AVERGE_DL)=    0.1720837859 
ITERATION   2 : L=   49.6949932638 DL=  4.84e-02 (AVERGE_DL)=    0.0270689307 
ITERATION   3 : L=   49.7514656737 DL=  5.65e-02 (AVERGE_DL)=    0.0292513687 
ITERATION   4 : L=   49.8504607067 DL=  9.90e-02 (AVERGE_DL)=    0.0387288619 
ITERATION   5 : L=   49.9325076986 DL=  8.20e-02 (AVERGE_DL)=    0.0352581372 
ITERATION   6 : L=   49.9659388414 DL=  3.34e-02 (AVERGE_DL)=    0.0225062761 
ITERATION   7 : L=   49.9753759532 DL=  9.44e-03 (AVERGE_DL)=    0.0119576980 
ITERATION   8 : L=   49.9778086979 DL=  2.43e-03 (AVERGE_DL)=    0.0060712247 
ITERATION   9 : L=   49.9784449137 DL=  6.36e-04 (AVERGE_DL)=    0.0031047760 
ITERATION  10 : L=   49.9786171391 DL=  1.72e-04 (AVERGE_DL)=    0.0016153870 
ITERATION  11 : L=   49.9786647757 DL=  4.76e-05 (AVERGE_DL)=    0.0008495688 
ITERATION  12 : L=   49.9786779117 DL=  1.31e-05 (AVERGE_DL)=    0.0004461269 
ITERATION  13 : L=   49.9786814463 DL=  3.53e-06 (AVERGE_DL)=    0.0002314186 
ITERATION  14 : L=   49.9786823628 DL=  9.16e-07 (AVERGE_DL)=    0.0001178399 
LOCALIZATION SUM CONVERGED


--------------------------------------------------------------------------------
                    LOCALIZED MOLECULAR ORBITAL COMPOSITIONS
--------------------------------------------------------------------------------

The Mulliken populations for each LMO on each atom are computed
The LMO`s will be ordered according to atom index and type
  (A) Strongly localized MO`s have populations of >=0.950 on one atom
  (B) Two center bond orbitals have populations of >=0.850 on two atoms
  (C) Other MO`s are considered to be `delocalized`

FOUND  -   6 strongly local MO`s
       -   6 two center bond MO`s
       -   0 significantly delocalized MO`s

Rather strongly localized orbitals:
MO   9:   2O  -   0.966342
MO   8:   1O  -   0.966340
MO   7:   0P  -   1.034667
MO   6:   0P  -   1.000528
MO   5:   0P  -   1.002580
MO   4:   0P  -   1.000528
Bond-like localized orbitals:
MO  15:   2O  -   0.715626  and   0P  -   0.281771
MO  14:   2O  -   0.876505  and   0P  -   0.125356
MO  13:   2O  -   0.715600  and   0P  -   0.281794
MO  12:   1O  -   0.715630  and   0P  -   0.281767
MO  11:   1O  -   0.876491  and   0P  -   0.125369
MO  10:   1O  -   0.715612  and   0P  -   0.281783
Localized MO's were stored in: /cluster/projects/nn14654k/ylvaos/basis_set_n_funcs/functionals/gga_x_pw91/PO2/inp/PO2_gga_x_pw91_def2svp.loc
------------------------------------------------------------------------------
                           ORCA ORBITAL LOCALIZATION
------------------------------------------------------------------------------

Input orbitals are from                  ... /cluster/projects/nn14654k/ylvaos/basis_set_n_funcs/functionals/gga_x_pw91/PO2/inp/PO2_gga_x_pw91_def2svp.loc
Output orbitals are to                   ... /cluster/projects/nn14654k/ylvaos/basis_set_n_funcs/functionals/gga_x_pw91/PO2/inp/PO2_gga_x_pw91_def2svp.loc
Max. number of iterations                ... 128
Localizations seeded randomly            ... on
Convergence tolerance                    ... 1.000e-06
Threshold for strong local MOs           ... 9.500e-01
Threshold for bond MOs                   ... 8.500e-01
Operator                                 ... 1
Orbital range for localization           ... 4 to 14
Localization criterion                   ... NEW-BOYS
Doing the dipole integrals               ... o.k.
Initial value of the localization sum :    27.609633
ITERATION   0 : L=   38.2580951202 DL=  1.06e+01 (AVERGE_DL)=    0.4400095376 
ITERATION   1 : L=   42.2442505489 DL=  3.99e+00 (AVERGE_DL)=    0.2692128401 
ITERATION   2 : L=   42.5542091828 DL=  3.10e-01 (AVERGE_DL)=    0.0750707102 
ITERATION   3 : L=   42.6006454018 DL=  4.64e-02 (AVERGE_DL)=    0.0290567529 
ITERATION   4 : L=   42.6055929046 DL=  4.95e-03 (AVERGE_DL)=    0.0094844398 
ITERATION   5 : L=   42.6078200101 DL=  2.23e-03 (AVERGE_DL)=    0.0063633973 
ITERATION   6 : L=   42.6093057753 DL=  1.49e-03 (AVERGE_DL)=    0.0051974911 
ITERATION   7 : L=   42.6103404017 DL=  1.03e-03 (AVERGE_DL)=    0.0043372097 
ITERATION   8 : L=   42.6110622111 DL=  7.22e-04 (AVERGE_DL)=    0.0036226797 
ITERATION   9 : L=   42.6115633465 DL=  5.01e-04 (AVERGE_DL)=    0.0030185347 
ITERATION  10 : L=   42.6119100016 DL=  3.47e-04 (AVERGE_DL)=    0.0025105417 
ITERATION  11 : L=   42.6121492977 DL=  2.39e-04 (AVERGE_DL)=    0.0020858664 
ITERATION  12 : L=   42.6123143409 DL=  1.65e-04 (AVERGE_DL)=    0.0017322775 
ITERATION  13 : L=   42.6124281514 DL=  1.14e-04 (AVERGE_DL)=    0.0014384999 
ITERATION  14 : L=   42.6125066650 DL=  7.85e-05 (AVERGE_DL)=    0.0011947891 
ITERATION  15 : L=   42.6125608652 DL=  5.42e-05 (AVERGE_DL)=    0.0009927024 
ITERATION  16 : L=   42.6125983125 DL=  3.74e-05 (AVERGE_DL)=    0.0008251420 
ITERATION  17 : L=   42.6126242128 DL=  2.59e-05 (AVERGE_DL)=    0.0006862314 
ITERATION  18 : L=   42.6126421428 DL=  1.79e-05 (AVERGE_DL)=    0.0005709644 
ITERATION  19 : L=   42.6126545688 DL=  1.24e-05 (AVERGE_DL)=    0.0004753178 
ITERATION  20 : L=   42.6126631906 DL=  8.62e-06 (AVERGE_DL)=    0.0003959303 
ITERATION  21 : L=   42.6126691778 DL=  5.99e-06 (AVERGE_DL)=    0.0003299370 
ITERATION  22 : L=   42.6126733410 DL=  4.16e-06 (AVERGE_DL)=    0.0002751267 
ITERATION  23 : L=   42.6126762375 DL=  2.90e-06 (AVERGE_DL)=    0.0002294845 
ITERATION  24 : L=   42.6126782557 DL=  2.02e-06 (AVERGE_DL)=    0.0001915605 
ITERATION  25 : L=   42.6126796629 DL=  1.41e-06 (AVERGE_DL)=    0.0001599512 
ITERATION  26 : L=   42.6126806451 DL=  9.82e-07 (AVERGE_DL)=    0.0001336328 
LOCALIZATION SUM CONVERGED


--------------------------------------------------------------------------------
                    LOCALIZED MOLECULAR ORBITAL COMPOSITIONS
--------------------------------------------------------------------------------

The Mulliken populations for each LMO on each atom are computed
The LMO`s will be ordered according to atom index and type
  (A) Strongly localized MO`s have populations of >=0.950 on one atom
  (B) Two center bond orbitals have populations of >=0.850 on two atoms
  (C) Other MO`s are considered to be `delocalized`

FOUND  -   5 strongly local MO`s
       -   6 two center bond MO`s
       -   0 significantly delocalized MO`s

Rather strongly localized orbitals:
MO   8:   2O  -   0.959346
MO   7:   1O  -   0.959354
MO   6:   0P  -   1.002258
MO   5:   0P  -   1.000287
MO   4:   0P  -   1.000287
Bond-like localized orbitals:
MO  14:   2O  -   0.537508  and   0P  -   0.450932
MO  13:   2O  -   0.766441  and   0P  -   0.231256
MO  12:   2O  -   0.766622  and   0P  -   0.231067
MO  11:   1O  -   0.537513  and   0P  -   0.450928
MO  10:   1O  -   0.766252  and   0P  -   0.231440
MO   9:   1O  -   0.766798  and   0P  -   0.230898
Localized MO's were stored in: /cluster/projects/nn14654k/ylvaos/basis_set_n_funcs/functionals/gga_x_pw91/PO2/inp/PO2_gga_x_pw91_def2svp.loc

-------------------------   --------------------
FINAL SINGLE POINT ENERGY      -490.287583348844
-------------------------   --------------------



           ************************************************************
           *        Program running with 8 parallel MPI-processes     *
           *              working on a common directory               *
           ************************************************************

------------------------------------------------------------------------------
                              ORCA PROPERTY CALCULATIONS
------------------------------------------------------------------------------

GBWName                                 ... /cluster/projects/nn14654k/ylvaos/basis_set_n_funcs/functionals/gga_x_pw91/PO2/inp/PO2_gga_x_pw91_def2svp.gbw
Number of atoms                         ...      3
Number of basis functions               ...     46
Max core memory                         ...   4096 MB

Electric properties:
Dipole moment                           ... YES
Quadrupole moment                       ... YES
Static polarizability (Dipole/Dipole)   ...  NO
Static polarizability (Dipole/Quad.)    ...  NO
Static polarizability (Quad./Quad.)     ...  NO
Static polarizability (Velocity)        ...  NO
Static hyperpolarizability              ...  NO

Atomic electric properties:
Dipole moment                           ...  NO
Quadrupole moment                       ...  NO
Static polarizability                   ...  NO

Choice of electric origin               ... Center of mass
Position of electric origin             ...     0.000000     0.000000     0.008437

General magnetic properties:
Magnetizability                         ...  NO

EPR properties:
g-Tensor (aka g-matrix)                 ...  NO
Zero-Field splitting spin-orbit         ...  NO
Zero-field splitting spin-spin          ...  NO
Hyperfine couplings                     ...  NO (   0 nuclei)
Quadrupole couplings                    ...  NO (   0 nuclei)
Contact density                         ...  NO (   0 nuclei)

NMR properties:
Chemical shifts                         ...  NO (   0 nuclei)
Spin-rotation constants                 ...  NO (   0 nuclei)
Spin-spin couplings                     ...  NO (   0 nuclei,    0 pairs)

Choice of magnetic origin               ... GIAO
Position of magnetic origin             ...     0.000000     0.000000     0.000000

Properties with geometric perturbations:
SCF Hessian                             ...  NO
IR spectrum                             ...  NO
VCD spectrum                            ...  NO
X-ray spectroscopy properties:
SCF XES/XAS/RIXS spectra                ...  NO

SCF SOC stabilization energy            ...  NO
Diagonal Born-Oppenheimer correction    ...  NO

-------------
DIPOLE MOMENT
-------------

Method             : SCF
Type of density    : Electron Density
Multiplicity       :   2
Irrep              :   0
Energy             :  -490.2875833488437252 Eh
Basis              : AO
                                X                 Y                 Z
Electronic contribution:      0.000000000       0.000000000       0.699784038
Nuclear contribution   :      0.000000000       0.000000000      -0.261362976
                        -----------------------------------------
Total Dipole Moment    :      0.000000000       0.000000000       0.438421061
                        -----------------------------------------
Magnitude (a.u.)       :      0.438421061
Magnitude (Debye)      :      1.114377777



--------------------
Rotational spectrum 
--------------------
 
Rotational constants in cm-1:             3.442444             0.286393             0.264396 
Rotational constants in MHz :        103201.869580          8585.841533          7926.407020 

Dipole components along the rotational axes: 
x,y,z [a.u.] :     0.000000     0.438421     0.000000 
x,y,z [Debye]:     0.000000     1.114378     0.000000 

 

Dipole moment calculation done in   0.0 sec 

-----------------
QUADRUPOLE MOMENT
-----------------

Method             : SCF
Type of density    : Electron Density
Multiplicity       :   2
Irrep              :   0
Energy             :  -490.2875833488437252 Eh
Basis              : AO

                XX              YY              ZZ              XY              XZ              YZ
  NUC        0.000000000   105.106420135     8.604299986     0.000000000     0.000000000     0.000000000
  EL       -15.377880197  -125.752076649   -24.715337104     0.000000000     0.000000000    -0.000000000
  TOT      -15.377880197   -20.645656514   -16.111037118     0.000000000     0.000000000    -0.000000000 (a.u.)
           -20.683774789   -27.769114093   -21.669895921     0.000000000     0.000000000    -0.000000000 (Buckingham)

diagonalized tensor:
           -20.645656514   -16.111037118   -15.377880197 (a.u.)
           -27.769114093   -21.669895921   -20.683774789 (Buckingham)
           -13.184557477     5.113097039     8.071460437 (traceless form in Buckingham)

             0.000000000    -0.000000000    -1.000000000
            -1.000000000    -0.000000000    -0.000000000
            -0.000000000     1.000000000    -0.000000000
        
Isotropic quadrupole :   -17.378191277

Quadrupole moment calculation done in   0.0 sec (  0.0 sec for integrals)

Maximum memory used throughout the entire PROP-calculation: 1.6 MB

--------------------------------
SUGGESTED CITATIONS FOR THIS RUN
--------------------------------

Below you find a list of papers that are relevant to this ORCA run
We neither can nor want to force you to cite these papers, but we appreciate if you do
You receive ORCA, which is the product of decades of hard work by many enthusiastic individuals, for free
The only thing we kindly ask in return is that you cite our papers,
We deeply appreciate it, if you show your appreciation for ORCA by not just citing the generic ORCA reference.

Please note that relegating all ORCA citations to the supporting information does *not* help us.
SI sections are not indexed - citations you put there will not count into any citation statistics
But we need these citations in order to attract the funding resources that allow us to do what we are doing

Therefore, if you are a happy ORCA user, please consider citing a few of the papers listed below in the main body of your paper

In addition to the list printed below, the program has created the file /cluster/projects/nn14654k/ylvaos/basis_set_n_funcs/functionals/gga_x_pw91/PO2/inp/PO2_gga_x_pw91_def2svp.bibtex that contains the list in bibtex format
You can import this file easily into all common literature databanks and citation aid programs

It goes without saying that in many instances, there are alternative algorithms to achieve similar
results as the ones you have gotten from ORCA. It is, of course, also the case that in some instances
ORCA just re-implements algorithms worked out by others. We are fully aware of that and we are also
fully appreciative of our colleagues work. Hence this citation list should not be read as indicating
that the listed papers, which are focused on our own work, are the only ones worth citing. It simply
meant to make it easier for users to cite ORCA specific papers. It is not a substitute for doing your
own literature research and citing the relevant literature in a scientifically appropriate manner.

List of essential papers. We consider these as the minimum necessary citations

  1. Neese, F.
     Software update: the ORCA program system, version 6.0
     WIRES Comput. Molec. Sci. 2025 15(1), e70019
     doi.org/10.1002/wcms.70019

List of papers to cite with high priority. The work reported in these papers was absolutely
necessary for this run to complete.
Our perspective: the developers of density functionals and basis sets usually get cited in chemistry papers
Good! But without the algorithms to do something with them, the functionals or basis sets would not do anything.
Hence, in our opinion, the algorithm design and method developments papers are equally worthy of getting cited

  1. Lehtola, S.; Steigemann, C.; Oliveira, M.; Marques, M.
     Recent developments in Libxc - A comprehensive library of functionals for density functional theory
     Software X 2018 7 , 
     doi.org/10.1016/j.softx.2017.11.002
  2. Neese, F.
     The SHARK Integral Generation and Digestion System
     J. Comp. Chem. 2022 44(3), 381
     doi.org/10.1002/jcc.26942

List of suggested additional citations. These are papers that are important in the 'surrounding' of 
of this run, or papers that preceded the highly important papers. If you like your results we are grateful for a citation.

  1. Neese, F.
     The ORCA program system
     WIRES Comput. Molec. Sci. 2012 2(1), 73-78
     doi.org/10.1002/wcms.81
  2. Neese, F.
     Software update: the ORCA program system, version 4.0
     WIRES Comput. Molec. Sci. 2018 8(1), 1-6
     doi.org/10.1002/wcms.1327
  3. Neese, F.; Wennmohs, F.; Becker, U.; Riplinger, C.
     The ORCA quantum chemistry program package
     J. Chem. Phys. 2020 152(22), 224108
     doi.org/10.1063/5.0004608
  4. Neese, F.
     Software update: The ORCA program system—Version 5.0
     WIRES Comput. Molec. Sci. 2022 12(1), e1606
     doi.org/10.1002/wcms.1606

List of optional additional citations

  1. Neese, F.
     Approximate second-order SCF convergence for spin unrestricted wavefunctions
     Chem. Phys. Lett. 2000 325(1-3), 93-98
     doi.org/10.1016/s0009-2614(00)00662-x

Timings for individual modules:

Sum of individual times          ...        2.915 sec (=   0.049 min)
Startup calculation              ...        0.565 sec (=   0.009 min)  19.4 %
SCF iterations                   ...        1.839 sec (=   0.031 min)  63.1 %
Property integrals               ...        0.236 sec (=   0.004 min)   8.1 %
Property calculations            ...        0.268 sec (=   0.004 min)   9.2 %
Orbital localization             ...        0.007 sec (=   0.000 min)   0.2 %
                             ****ORCA TERMINATED NORMALLY****
TOTAL RUN TIME: 0 days 0 hours 0 minutes 3 seconds 632 msec
