
                                 *****************
                                 * O   R   C   A *
                                 *****************

                                            #,                                       
                                            ###                                      
                                            ####                                     
                                            #####                                    
                                            ######                                   
                                           ########,                                 
                                     ,,################,,,,,                         
                               ,,#################################,,                 
                          ,,##########################################,,             
                       ,#########################################, ''#####,          
                    ,#############################################,,   '####,        
                  ,##################################################,,,,####,       
                ,###########''''           ''''###############################       
              ,#####''   ,,,,##########,,,,          '''####'''          '####       
            ,##' ,,,,###########################,,,                        '##       
           ' ,,###''''                  '''############,,,                           
         ,,##''                                '''############,,,,        ,,,,,,###''
      ,#''                                            '''#######################'''  
     '                                                          ''''####''''         
             ,#######,   #######,   ,#######,      ##                                
            ,#'     '#,  ##    ##  ,#'     '#,    #''#        ,####,    ,#,          
            ##       ##  ##   ,#'  ##            #'  '#       #'       ,# #          
            ##       ##  #######   ##           ,######,      #####,      #          
            '#,     ,#'  ##    ##  '#,     ,#' ,#      #,     #,   #      #          
             '#######'   ##     ##  '#######'  #'      '#     '####' #    #          



                #########################################################
                #                        -***-                          #
                #          Department of theory and spectroscopy        #
                #                                                       #
                #                      Frank Neese                      #
                #                                                       #
                #     Directorship, Architecture, Infrastructure        #
                #                    SHARK, DRIVERS                     #
                #        Core code/Algorithms in most modules           #
                #                                                       #
                #        Max Planck Institute fuer Kohlenforschung      #
                #                Kaiser Wilhelm Platz 1                 #
                #                 D-45470 Muelheim/Ruhr                 #
                #                      Germany                          #
                #                                                       #
                #                  All rights reserved                  #
                #                        -***-                          #
                #########################################################


                         Program Version 6.1.1  -  RELEASE   -
                                (GIT: $487d211c$)
                          ($2025-11-21 10:33:24 +0100$)


 With contributions from (in alphabetic order):
[Max-Planck-Institut fuer Kohlenforschung]                               
  Daniel Aravena         : Magnetic Suceptibility                        
  Michael Atanasov       : Ab Initio Ligand Field Theory (pilot matlab implementation)
  Alexander A. Auer      : GIAO ZORA, VPT2 properties, NMR spectrum      
  Ute Becker             : All parallelization in ORCA, NUMFREQ, NUMCALC 
  Giovanni Bistoni       : ED, misc. LED, open-shell LED, HFLD           
  Dmytro Bykov           : pre 5.0 version of the SCF Hessian            
  Marcos Casanova-Páez   : Triplet and SCS-CIS(D). UHF-(DLPNO)-IP/EA/STEOM-CCSD. UHF-CVS-IP/STEOM-CCSD   
  Vijay G. Chilkuri      : MRCI spin determinant printing, contributions to CSF-ICE 
  Pauline Colinet        : FMM embedding                                 
  Dipayan Datta          : RHF DLPNO-CCSD density                        
  Achintya Kumar Dutta   : EOM-CC, STEOM-CC                              
  Nicolas Foglia         : Exact transition moments, OPA infrastructure, MCD improvements    
  Dmitry Ganyushin       : Spin-Orbit,Spin-Spin,Magnetic field MRCI      
  Miquel Garcia-Rates    : C-PCM and meta-GGA Hessian, CCSD/C-PCM, Gaussian charge scheme 
  Tiago L. C. Gouveia    : GS-ROHF, GS-ROCIS                             
  Yang Guo               : DLPNO-NEVPT2, F12-NEVPT2, CIM, IAO-localization        
  Andreas Hansen         : Spin unrestricted coupled pair/coupled cluster methods 
  Ingolf Harden          : AUTO-CI MPn and infrastructure                
  Benjamin Helmich-Paris : MC-RPA, TRAH-(SCF,CASSCF), AVAS, COSX integrals, SCF dyn. polar., MC-PDFT, srDFT 
  Lee Huntington         : MR-EOM, pCC                                   
  Robert Izsak           : Overlap fitted RIJCOSX, COSX-SCS-MP3, EOM     
  Riya Kayal             : Wick's Theorem for AUTO-CI, AUTO-CI UHF-CCSDT 
  Emily Kempfer          : AUTO-CI RHF CISDT and CCSDT, approximate NEVPT4
  Christian Kollmar      : KDIIS, OOCD, Brueckner-CCSD(T), CCSD density, CASPT2, CASPT2-K, improved NEVPT2 
  Axel Koslowski         : Symmetry handling                             
  Simone Kossmann        : meta-GGA functionals, TD-DFT gradient, OOMP2, (MP2 Hessian; deprecated post 5.0) 
  Lucas Lang             : DCDCAS, Hyperfine gauge corrections, ICE-SOC+SSC
  Marvin Lechner         : AUTO-CI (C++ implementation), FIC-MRCC        
  Spencer Leger          : CASSCF response                               
  Dagmar Lenk            : GEPOL surface, SMD, ORCA-2-JSON               
  Dimitrios Liakos       : Extrapolation schemes; Compound Job, Property file
  Dimitrios Manganas     : Further ROCIS development; embedding schemes. LFT, Crystal Embedding 
  Dimitrios Pantazis     : SARC Basis sets                               
  Anastasios Papadopoulos: AUTO-CI, single reference methods and gradients 
  Taras Petrenko         : pre 6.0 DFT Hessian and TD-DFT gradient,  ECA, NRVS 
  Petra Pikulova         : Analytic Raman intensities                    
  Peter Pinski           : DLPNO-MP2, DLPNO-MP2 Gradient                 
  Shashank Vittal Rao    : ES-AILFT, MagRelax                            
  Christoph Reimann      : Effective Core Potentials                     
  Marius Retegan         : Local ZFS, SOC                                
  Christoph Riplinger    : Optimizer, TS searches, QM/MM, DLPNO-CCSD(T), (RO)-DLPNO pert. Triples 
  Michael Roemelt        : Original ROCIS implementation, recursive CI coupling coefficients
  Masaaki Saitow         : Open-shell DLPNO-CCSD energy and density      
  Barbara Sandhoefer     : DKH picture change effects                    
  Yorick L. A. Schmerwitz: GMF and freeze-and-release deltaSCF, NEB S-IDPP initial path                    
  Kantharuban Sivalingam : CASSCF convergence/infrastructure, NEVPT2, NEVPT3, NEVPT4(SD), FIC-MRCI and CEPA variants
  Bernardo de Souza      : ESD, SOC TD-DFT                               
  Georgi L. Stoychev     : AutoAux, RI-MP2 NMR, DLPNO-MP2 response, X2C  
  Van Anh Tran           : RI-MP2 g-tensors                              
  Willem Van den Heuvel  : Paramagnetic NMR                              
  Zikuan Wang            : NOTCH, Electric field optimization            
  Frank Wennmohs         : Technical directorship and infrastructure     
  Hang Xu                : AUTO-CI-Response properties                   
                                                                         
[FACCTs GmbH]                                                            
  Markus Bursch, Nicolas Foglia, Miquel Garcia-Rates, Ingolf Harden, Hagen Neugebauer, Anastasios Papadopoulos, 
  Christoph Riplinger, Bernardo de Souza, Georgi L. Stoychev                                                    
                                                                 
  APM, various basis sets, CI-OPT, improved COSX, DLPNO-Multilevel,           
  DOCKER, DRACO, updates on ESD, Fragmentator, GOAT, IRC, LR-CPCM, L-BFGS, MBIS, meta-GGA TD-DFT gradient, ML-optimized integration grids, 
  MM, NACMEs, nearIR, NEB, NEB-TS, NL-DFT gradient (VV10), 2- and 3-layer-ONIOM, interface openCOSMO-RS, QMMM,   
  Crystal-QMMM, RESP, rigid body optimization, SF, symmetry and pop. for TD-DFT, various functionals, SOLVATOR                                   
                                                                         
[Other institutions]                                                     
  V. Asgeirsson          : NEB                                           
  Christoph Bannwarth    : sTDA-DFT, sTD-DFT, PBEh-3c, B97-3c, D3        
  Giovanni Bistoni       : ETS/NOCV, ADLD/ADEX, COVALED                  
  Martin Brehm           : Molecular dynamics                            
  Ronald Cardenas        : ETS/NOCV                                      
  Martina Colucci        : COVALED                                       
  Sebastian Ehlert       : rSCAN, r2SCAN, r2SCAN-3c, D4, dhf basis sets  
  Marvin Friede          : D4 for Fr, Ra, Ac-Lr                          
  Lars Goerigk           : TD-DFT with DH, B97 family of functionals     
  Stefan Grimme          : VdW corrections, initial TS optimization, DFT functionals, gCP, sTDA/sTD-DF 
  Waldemar Hujo          : DFT-NL                                        
  H. Jonsson             : NEB                                           
  Holger Kruse           : gCP                                           
  Marcel Mueller         : wB97X-3c, vDZP basis set                      
  Hagen Neugebauer       : wr2SCAN, Native XTB                           
  Gianluca Regni         : ADLD/ADEX                                     
  Tobias Risthaus        : pre 6.0 range-separated hybrid DFT and stability analysis
  Lukas Wittmann         : regularized MP2, r2SCAN double-hybrids, wr2SCAN        
                                                                         
We gratefully acknowledge several colleagues who have allowed us to      
interface, adapt or use parts of their codes:                            
  Ed Valeev, F. Pavosevic, A. Kumar             : LibInt (2-el integral package), F12 methods 
  Garnet Chan, S. Sharma, J. Yang, R. Olivares  : DMRG                   
  Ulf Ekstrom                                   : XCFun DFT Library      
  Mihaly Kallay                                 : mrcc  (arbitrary order and MRCC methods)
  Frank Weinhold                                : gennbo (NPA and NBO analysis)           
  Simon Mueller                                 : openCOSMO-RS                            
  Christopher J. Cramer and Donald G. Truhlar   : smd solvation model                     
  S Lehtola, MJT Oliveira, MAL Marques          : LibXC Library                           
  Liviu Ungur et al                             : ANISO software                          


 Your calculation uses the libint2 library for the computation of 2-el integrals
 For citations please refer to: http://libint.valeyev.net

 Your ORCA version has been built with support for libXC version: 7.0.0
 For citations please refer to: https://libxc.gitlab.io

 This ORCA versions uses:
   CBLAS   interface :  Fast vector & matrix operations
   LAPACKE interface :  Fast linear algebra routines
   SCALAPACK package :  Parallel linear algebra routines
   Shared memory     :  Shared parallel matrices
   BLAS/LAPACK       :  OpenBLAS 0.3.29  USE64BITINT DYNAMIC_ARCH NO_AFFINITY Cooperlake SINGLE_THREADED
        Core in use  :  Cooperlake
   Copyright (c) 2011-2014, The OpenBLAS Project


  ***********************************
  * Starting time: Wed May 20 12:39:34 2026
  * Host name:     c1-39
  * Process ID:    2107323
  * Working dir.:  /cluster/projects/nn14654k/ylvaos/basis_set_n_funcs/functionals/gga_x_pw91/PO2/out
  ***********************************

Using LibXC functional ID 109 : Perdew & Wang 91
[ 1]  J. P. Perdew. In P. Ziesche and H. Eschrig, editors, Proceedings of the 75. WE-Heraeus-Seminar and 21st Annual International Symposium on Electronic Structure of Solids, 11. Berlin, 1991. Akademie Verlag.
[ 2]  J. P. Perdew, J. A. Chevary, S. H. Vosko, K. A. Jackson, M. R. Pederson, D. J. Singh, and C. Fiolhais.,  Phys. Rev. B 46, 6671 (1992)
[ 3]  J. P. Perdew, J. A. Chevary, S. H. Vosko, K. A. Jackson, M. R. Pederson, D. J. Singh, and C. Fiolhais.,  Phys. Rev. B 48, 4978 (1993)
Using LibXC functional ID 109 : Perdew & Wang 91
[ 1]  J. P. Perdew. In P. Ziesche and H. Eschrig, editors, Proceedings of the 75. WE-Heraeus-Seminar and 21st Annual International Symposium on Electronic Structure of Solids, 11. Berlin, 1991. Akademie Verlag.
[ 2]  J. P. Perdew, J. A. Chevary, S. H. Vosko, K. A. Jackson, M. R. Pederson, D. J. Singh, and C. Fiolhais.,  Phys. Rev. B 46, 6671 (1992)
[ 3]  J. P. Perdew, J. A. Chevary, S. H. Vosko, K. A. Jackson, M. R. Pederson, D. J. Singh, and C. Fiolhais.,  Phys. Rev. B 48, 4978 (1993)
Your calculation utilizes LibXC
by S. Lehtola, C. Steigemann, M. J. T. Oliveira & M. A. L. Marques
Please cite in your paper:
Lehtola, S.; Steigemann, C.; Oliveira, M.J.T.; Marques, M. A. L. Software X, 7, (2018), 1.
   

================================================================================

----- Orbital basis set information -----
Your calculation utilizes the basis: aug-cc-pVQZ 
    H, B-Ne : Obtained from the ccRepo (grant-hill.group.shef.ac.uk/ccrepo) Feb. 2017
              R. A. Kendall, T. H. Dunning, Jr., R. J. Harrison, J. Chem. Phys. 96, 6796 (1992)
         He : Obtained from the ccRepo (grant-hill.group.shef.ac.uk/ccrepo) Feb. 2017
              D. E. Woon, T. H. Dunning, Jr., J. Chem. Phys. 100, 2975 (1994)
  Li-Be, Na : Obtained from the ccRepo (grant-hill.group.shef.ac.uk/ccrepo) Feb. 2017
              B. P. Prascher, D. E. Woon, K. A. Peterson, T. H. Dunning, Jr., A. K. Wilson, Theor. Chem. Acc. 128, 69 (2011)
         Mg : Obtained from the Peterson Research Group Website (tyr0.chem.wsu.edu/~kipeters) Feb. 2017
              B. P. Prascher, D. E. Woon, K. A. Peterson, T. H. Dunning, Jr., A. K. Wilson, Theor. Chem. Acc. 128, 69 (2011)
      Al-Ar : Obtained from the ccRepo (grant-hill.group.shef.ac.uk/ccrepo) Feb. 2017
              D. E. Woon, T. H. Dunning, Jr., J. Chem. Phys. 98, 1358 (1993)
      Sc-Zn : Obtained from the ccRepo (grant-hill.group.shef.ac.uk/ccrepo) Feb. 2017
              N. B. Balabanov, K. A. Peterson, J. Chem. Phys. 123, 064107 (2005)
              N. B. Balabanov, K. A. Peterson, J. Chem. Phys. 125, 074110 (2006)
      Ga-Kr : Obtained from the ccRepo (grant-hill.group.shef.ac.uk/ccrepo) Feb. 2017
              A. K. Wilson, D. E. Woon, K. A. Peterson, T. H. Dunning, Jr., J. Chem. Phys. 110, 7667 (1999)

================================================================================
                                        WARNINGS
                       Please study these warnings very carefully!
================================================================================


WARNING: your system is open-shell and RHF/RKS was chosen
  ===> : WILL SWITCH to UHF/UKS


================================================================================
                                       INPUT FILE
================================================================================
NAME = /cluster/projects/nn14654k/ylvaos/basis_set_n_funcs/functionals/gga_x_pw91/PO2/inp/PO2_gga_x_pw91_augccpvqz.inp
|  1> ! dft aug-cc-pVQZ TightSCF
|  2> %pal nprocs 8 end
|  3> 
|  4> %loc
|  5>   LocMet NewBoys
|  6>   Occ true
|  7> end
|  8> 
|  9> %method
| 10>   exchange gga_x_pw91
| 11>   correlation None
| 12> end
| 13> 
| 14> %elprop
| 15>   Dipole true
| 16>   Quadrupole true
| 17> end
| 18> 
| 19> * xyz 0 2
| 20> P    0.000000000000   0.000000000000   0.287900000000
| 21> O    0.000000000000   1.356300000000  -0.269900000000
| 22> O    0.000000000000  -1.356300000000  -0.269900000000
| 23> *
| 24> 
| 25> 
| 26>                          ****END OF INPUT****
================================================================================

                       ****************************
                       * Single Point Calculation *
                       ****************************

---------------------------------
CARTESIAN COORDINATES (ANGSTROEM)
---------------------------------
  P      0.000000    0.000000    0.287900
  O      0.000000    1.356300   -0.269900
  O      0.000000   -1.356300   -0.269900

----------------------------
CARTESIAN COORDINATES (A.U.)
----------------------------
  NO LB      ZA    FRAG     MASS         X           Y           Z
   0 P    15.0000    0    30.974    0.000000    0.000000    0.544052
   1 O     8.0000    0    15.999    0.000000    2.563036   -0.510037
   2 O     8.0000    0    15.999    0.000000   -2.563036   -0.510037

--------------------------------
INTERNAL COORDINATES (ANGSTROEM)
--------------------------------
 P      0   0   0     0.000000000000     0.00000000     0.00000000
 O      1   0   0     1.466523279733     0.00000000     0.00000000
 O      1   2   0     1.466523279733   135.28860674     0.00000000

---------------------------
INTERNAL COORDINATES (A.U.)
---------------------------
 P      0   0   0     0.000000000000     0.00000000     0.00000000
 O      1   0   0     2.771327367716     0.00000000     0.00000000
 O      1   2   0     2.771327367716   135.28860674     0.00000000

---------------------
BASIS SET INFORMATION
---------------------
There are 2 groups of distinct atoms

 Group   1 Type P   : 43s20p4d3f2g contracted to 7s6p4d3f2g pattern {1313131111/881111/1111/111/11}
 Group   2 Type O   : 22s7p4d3f2g contracted to 6s5p4d3f2g pattern {991111/31111/1111/111/11}

Atom   0P    basis set group =>   1
Atom   1O    basis set group =>   2
Atom   2O    basis set group =>   2


           ************************************************************
           *        Program running with 8 parallel MPI-processes     *
           *              working on a common directory               *
           ************************************************************
------------------------------------------------------------------------------
                             ORCA STARTUP CALCULATIONS
------------------------------------------------------------------------------
------------------------------------------------------------------------------
                   ___                                                        
                  /   \      - P O W E R E D   B Y -                         
                 /     \                                                     
                 |  |  |   _    _      __       _____    __    __             
                 |  |  |  | |  | |    /  \     |  _  \  |  |  /  |          
                  \  \/   | |  | |   /    \    | | | |  |  | /  /          
                 / \  \   | |__| |  /  /\  \   | |_| |  |  |/  /          
                |  |  |   |  __  | /  /__\  \  |    /   |      \           
                |  |  |   | |  | | |   __   |  |    \   |  |\   \          
                \     /   | |  | | |  |  |  |  | |\  \  |  | \   \       
                 \___/    |_|  |_| |__|  |__|  |_| \__\ |__|  \__/        
                                                                              
                      - O R C A' S   B I G   F R I E N D -                    
                                      &                                       
                       - I N T E G R A L  F E E D E R -                       
                                                                              
 v1 FN, 2020, v2 2021, v3 2022-2024                                           
------------------------------------------------------------------------------


----------------------
SHARK INTEGRAL PACKAGE
----------------------

Number of atoms                             ...      3
Number of basis functions                   ...    286
Number of shells                            ...     92
Maximum angular momentum                    ...      4
Integral batch strategy                     ... SHARK/LIBINT Hybrid
RI-J (if used) integral strategy            ... SPLIT-RIJ (Revised 2003 algorithm where possible)
Printlevel                                  ...      1
Contraction scheme used                     ... PARTIAL GENERAL contraction
Prescreening option                         ... SCHWARTZ
   Thresh                                   ... 2.500e-11
   Tcut                                     ... 2.500e-12
   Tpresel                                  ... 2.500e-12 
Coulomb Range Separation                    ... NOT USED
Exchange Range Separation                   ... NOT USED
Multipole approximations                    ... NOT USED
Finite Nucleus Model                        ... NOT USED
CABS basis                                  ... NOT available
Auxiliary Coulomb fitting basis             ... NOT available
Auxiliary J/K fitting basis                 ... NOT available
Auxiliary Correlation fitting basis         ... NOT available
Auxiliary 'external' fitting basis          ... NOT available

Checking pre-screening integrals            ... done (  0.0 sec) Dimension = 92
Save PGC pre-screening integrals            ... done (  0.0 sec) Dimension = 92
Calculate PGC overlap integrals             ... done (  0.0 sec) Dimension = 62
Calculating pre-screening integrals (ORCA)  ... done (  0.2 sec) Dimension = 62
Shell pair information
Shell pair cut-off parameter TPreSel        ...   2.5e-12
Total number of shell pairs                 ...      4278
Shell pairs after pre-screening             ...      3704
Total number of primitive shell pairs       ...      4662
Primitive shell pairs kept                  ...      3954
          la=0 lb=0:    641 shell pairs
          la=1 lb=0:    786 shell pairs
          la=1 lb=1:    244 shell pairs
          la=2 lb=0:    472 shell pairs
          la=2 lb=1:    260 shell pairs
          la=2 lb=2:     77 shell pairs
          la=3 lb=0:    365 shell pairs
          la=3 lb=1:    196 shell pairs
          la=3 lb=2:    106 shell pairs
          la=3 lb=3:     45 shell pairs
          la=4 lb=0:    233 shell pairs
          la=4 lb=1:    132 shell pairs
          la=4 lb=2:     72 shell pairs
          la=4 lb=3:     54 shell pairs
          la=4 lb=4:     21 shell pairs

Checking whether 4 symmetric matrices of dimension 286 fit in memory
:Max Core in MB      =   4096.00
 MB in use           =      7.66
 MB left             =   4088.34
 MB needed           =      1.25
 Data fit in memory  = YES
Calculating Nuclear repulsion               ... done (  0.0 sec) ENN=     99.086296046297 Eh

Diagonalization of the overlap matrix:
Smallest eigenvalue                        ... 8.157e-05
Time for diagonalization                   ...    0.003 sec
Threshold for overlap eigenvalues          ... 1.000e-07
Number of eigenvalues below threshold      ... 0
Time for construction of square roots      ...    0.003 sec
Total time needed                          ...    0.017 sec

-------------------
DFT GRID GENERATION
-------------------

General Integration Accuracy     IntAcc      ... 4.388
Radial Grid Type                 RadialGrid  ... OptM3 with GC (2021)
Angular Grid (max. ang.)         AngularGrid ... 4 (Lebedev-302)
Angular grid pruning method      GridPruning ... 4 (adaptive)
Weight generation scheme         WeightScheme... mBecke (2022)
Basis function cutoff            BFCut       ... 1.0000e-11
Integration weight cutoff        WCut        ... 1.0000e-14
Partially contracted basis set               ... off
Rotationally invariant grid construction     ... off
Angular grids for H and He will be reduced by one unit
Diffuse basis detected: some atoms will have their outermost
                        angular grid increased by 1.

Total number of grid points                  ...    20582
Total number of batches                      ...      323
Average number of points per batch           ...       63
Average number of grid points per atom       ...     6861

---------------------
SHARK GRID GENERATION
---------------------

General Integration Accuracy     IntAcc      ... 4.388
Radial Grid Type                 RadialGrid  ... OptM3 with GC (2021)
Angular Grid (max. ang.)         AngularGrid ... 4 (Lebedev-302)
Angular grid pruning method      GridPruning ... 4 (adaptive)
Weight generation scheme         WeightScheme... mBecke (2022)
Basis function cutoff            BFCut       ... 1.0000e-11
Integration weight cutoff        WCut        ... 1.0000e-14
Partially contracted basis set               ... off
Rotationally invariant grid construction     ... off
Angular grids for H and He will be reduced by one unit
Diffuse basis detected: some atoms will have their outermost
                        angular grid increased by 1.
Core-polarized basis detected: some atoms will have their core
                               angular grid increased.
Steep s-basis detected: some atoms will have their radial
                        grid points doubled.

Total number of grid points                  ...    46090
Total number of batches                      ...      722
Average number of points per batch           ...       63
Average number of grid points per atom       ...    15363
Grids setup in   0.5 sec
Initializing property integral containers    ... done (  0.0 sec)

SHARK setup successfully completed in   1.0 seconds

Maximum memory used throughout the entire STARTUP-calculation: 61.2 MB


           ************************************************************
           *        Program running with 8 parallel MPI-processes     *
           *              working on a common directory               *
           ************************************************************
-------------------------------------------------------------------------------
                                 ORCA GUESS
                   Start orbitals & Density for SCF / CASSCF
-------------------------------------------------------------------------------

------------
SCF SETTINGS
------------
Hamiltonian:
 Density Functional     Method          .... DFT(GTOs)
  Functional kind                       .... Exchange
  Functional name                       .... Perdew & Wang 91
  Functional family                     .... GGA
  Functional refs                              
    [ 0] J. P. Perdew. In P. Ziesche and H. Eschrig, editors, Proceedings of the 75. WE-Heraeus-Seminar and 21st Annual International Symposium on Electronic Structure of Solids, 11. Berlin, 1991. Akademie Verlag.
    [ 1] J. P. Perdew, J. A. Chevary, S. H. Vosko, K. A. Jackson, M. R. Pederson, D. J. Singh, and C. Fiolhais.,  Phys. Rev. B 46, 6671 (1992), doi: 10.1103/PhysRevB.46.6671
    [ 2] J. P. Perdew, J. A. Chevary, S. H. Vosko, K. A. Jackson, M. R. Pederson, D. J. Singh, and C. Fiolhais.,  Phys. Rev. B 48, 4978 (1993), doi: 10.1103/PhysRevB.48.4978.2
  Functional external parameters        .... 7
    Parameter  0 _a         =  1.964500e-01 : a parameter         
    Parameter  1 _b         =  7.795600e+00 : b parameter         
    Parameter  2 _c         =  2.743000e-01 : c parameter         
    Parameter  3 _d         = -1.508000e-01 : d parameter         
    Parameter  4 _f         =  4.000000e-03 : f parameter         
    Parameter  5 _alpha     =  1.000000e+02 : alpha parameter     
    Parameter  6 _expo      =  4.000000e+00 : exponent            
 Correlation Functional Correlation     .... No Correlation
 Gradients option       PostSCFGGA      .... off


General Settings:
 Integral files         IntName         .... /cluster/projects/nn14654k/ylvaos/basis_set_n_funcs/functionals/gga_x_pw91/PO2/inp/PO2_gga_x_pw91_augccpvqz
 Hartree-Fock type      HFTyp           .... UHF
 Total Charge           Charge          ....    0
 Multiplicity           Mult            ....    2
 Number of Electrons    NEL             ....   31
 Basis Dimension        Dim             ....  244
 Nuclear Repulsion      ENuc            ....     99.0862960463 Eh

Convergence Acceleration:
 AO-DIIS                CNVDIIS         .... on
   Start iteration      DIISMaxIt       ....    12
   Startup error        DIISStart       ....  0.200000
   # of expansion vecs  DIISMaxEq       ....     5
   Bias factor          DIISBfac        ....   1.050
   Max. coefficient     DIISMaxC        ....  10.000
 MO-DIIS                CNVKDIIS        .... off
 Trust-Rad. Augm. Hess. CNVTRAH         .... auto
   Auto Start mean grad. ratio tolernc. ....  1.125000
   Auto Start start iteration           ....    50
   Auto Start num. interpolation iter.  ....    10
   Max. Number of Micro iterations      ....    24
   Max. Number of Macro iterations      .... Maxiter - #DIIS iter
   Number of Davidson start vectors     ....     2
   Converg. threshold    (grad. norm)   ....   1.000e-05
   Grad. Scal. Fac. for Micro threshold ....   0.100
   Minimum threshold for Micro iter.    ....   1.000e-02
   NR start threshold (gradient norm)   ....   1.000e-04
   Initial trust radius                 ....   0.400
   Minimum AH scaling param. (alpha)    ....   1.000
   Maximum AH scaling param. (alpha)    .... 1000.000
   Quad. conv. algorithm                .... NR
   White noise on init. David. guess    .... on
   Maximum white noise                  ....   0.010
   Pseudo random numbers                .... off
   Inactive MOs                         .... canonical
   Orbital update algorithm             .... Taylor
   Preconditioner                       .... Diag
   Full preconditioner red. dimension   ....   250
 SOSCF                 CNVSOSCF           .... on
   Start iteration     SOSCFMaxIt         ....   150
   Startup grad/error  SOSCFStart         ....  0.003300
   Hessian update      SOSCFHessUp        .... L-BFGS
   Autom. constraints  SOSCFAutoConstrain .... off
 Level Shifting         CNVShift        .... on
   Level shift para.    LevelShift      ....    0.2500
   Turn off err/grad.   ShiftErr        ....    0.0010
 Zerner damping         CNVZerner       .... off
 Static damping         CNVDamp         .... on
   Fraction old density DampFac         ....    0.7000
   Max. Damping (<1)    DampMax         ....    0.9800
   Min. Damping (>=0)   DampMin         ....    0.0000
   Turn off err/grad.   DampErr         ....    0.1000

SCF Procedure:
 Maximum # iterations   MaxIter         ....   125
 SCF integral mode      SCFMode         .... Direct
   Integral package                     .... SHARK and LIBINT hybrid scheme
 Reset frequency        DirectResetFreq ....    20
 Integral Threshold     Thresh          ....  2.500e-11 Eh
 Primitive CutOff       TCut            ....  2.500e-12 Eh

Convergence Tolerance:
 Convergence Check Mode ConvCheckMode   .... Total+1el-Energy
 Convergence forced     ConvForced      .... 0
 Energy Change          TolE            ....  1.000e-08 Eh
 1-El. energy change                    ....  1.000e-05 Eh
 Orbital Gradient       TolG            ....  1.000e-05
 Orbital Rotation angle TolX            ....  1.000e-05
 DIIS Error             TolErr          ....  5.000e-07

------------------------------
INITIAL GUESS: MODEL POTENTIAL
------------------------------
Loading Hartree-Fock densities                     ... done
Calculating cut-offs                               ... done
Initializing the effective Hamiltonian             ... done
Setting up the integral package (SHARK)            ... done
Starting the Coulomb interaction                   ... done (   0.0 sec)
Making the grid                                    ... done (   0.0 sec)
Mapping shells                                     ... done
Starting the XC term evaluation                    ... done (   0.0 sec)
  promolecular density results
     # of electrons  =     31.000240993
     EX              =    -38.955345224
     EC              =      0.000000000
     EX+EC           =    -38.955345224
Transforming the Hamiltonian                       ... done (   0.0 sec)
Diagonalizing the Hamiltonian                      ... done (   0.0 sec)
Back transforming the eigenvectors                 ... done (   0.0 sec)
Now organizing SCF variables                       ... done
                      ------------------
                      INITIAL GUESS DONE (   0.1 sec)
                      ------------------
             **** ENERGY FILE WAS UPDATED (/cluster/projects/nn14654k/ylvaos/basis_set_n_funcs/functionals/gga_x_pw91/PO2/inp/PO2_gga_x_pw91_augccpvqz.en.tmp) ****
Finished Guess after   0.2 sec
Maximum memory used throughout the entire GUESS-calculation: 15.6 MB


           ************************************************************
           *        Program running with 8 parallel MPI-processes     *
           *              working on a common directory               *
           ************************************************************

-------------------------------------------------------------------------------------------
                                      ORCA LEAN-SCF
                              memory conserving SCF solver
-------------------------------------------------------------------------------------------

----------------------------------------D-I-I-S--------------------------------------------
Iteration    Energy (Eh)           Delta-E    RMSDP     MaxDP     DIISErr   Damp  Time(sec)
-------------------------------------------------------------------------------------------
               ***  Starting incremental Fock matrix formation  ***
    1    -490.3685058913416128     0.00e+00  2.91e-03  5.04e-02  1.61e-01  0.700   1.2
Warning: op=1 Small HOMO/LUMO gap (   0.059) - skipping pre-diagonalization
         Will do a full diagonalization
    2    -490.5210889381718857    -1.53e-01  1.12e-03  2.35e-02  3.61e-02  0.700   1.2
                               ***Turning on AO-DIIS***
    3    -490.5504445979168509    -2.94e-02  4.65e-04  7.53e-03  1.70e-02  0.700   1.4
    4    -490.5728309157610170    -2.24e-02  9.13e-04  1.25e-02  2.16e-02  0.000   1.3
    5    -490.6362554635100537    -6.34e-02  2.49e-04  3.95e-03  1.53e-02  0.000   1.2
    6    -490.6384421484864902    -2.19e-03  1.21e-04  1.61e-03  6.10e-03  0.000   1.2
                              *** Initializing SOSCF ***
---------------------------------------S-O-S-C-F--------------------------------------
Iteration    Energy (Eh)           Delta-E    RMSDP     MaxDP     MaxGrad    Time(sec)
--------------------------------------------------------------------------------------
    7    -490.6387861717603869    -3.44e-04  6.15e-05  1.04e-03  2.52e-03     1.4
               *** Restarting incremental Fock matrix formation ***
    8    -490.6388476394769782    -6.15e-05  1.02e-04  1.47e-03  1.63e-03     1.2
    9    -490.6387920597721291     5.56e-05  6.14e-05  1.21e-03  3.40e-03     1.1
   10    -490.6388646893927330    -7.26e-05  1.22e-05  1.52e-04  1.22e-04     1.1
   11    -490.6388650431924248    -3.54e-07  4.36e-06  7.26e-05  7.98e-05     1.0
   12    -490.6388651748631560    -1.32e-07  2.11e-06  3.22e-05  1.21e-05     1.0
   13    -490.6388651816046718    -6.74e-09  4.90e-07  8.13e-06  9.12e-06     0.9
                 **** Energy Check signals convergence ****

               *****************************************************
               *                     SUCCESS                       *
               *           SCF CONVERGED AFTER  13 CYCLES          *
               *****************************************************

             **** ENERGY FILE WAS UPDATED (/cluster/projects/nn14654k/ylvaos/basis_set_n_funcs/functionals/gga_x_pw91/PO2/inp/PO2_gga_x_pw91_augccpvqz.en.tmp) ****

----------------
TOTAL SCF ENERGY
----------------

Total Energy       :       -490.63886518333680 Eh          -13350.96227 eV

Components:
Nuclear Repulsion  :         99.08629604629714 Eh            2696.27519 eV
Electronic Energy  :       -589.72516122963395 Eh          -16047.23746 eV
One Electron Energy:       -874.76914545772752 Eh          -23803.67860 eV
Two Electron Energy:        285.04398422809356 Eh            7756.44114 eV

Virial components:
Potential Energy   :       -980.75021471590117 Eh          -26687.57011 eV
Kinetic Energy     :        490.11134953256430 Eh           13336.60784 eV
Virial Ratio       :          2.00107631796586

DFT components:
N(Alpha)           :       15.999937560697 electrons
N(Beta)            :       14.999979327802 electrons
N(Total)           :       30.999916888500 electrons
E(X)               :      -39.126823335668 Eh       
E(C)               :        0.000000000000 Eh       
E(XC)              :      -39.126823335668 Eh       

---------------
SCF CONVERGENCE
---------------

  Last Energy change         ...    6.7415e-09  Tolerance :   1.0000e-08
  Last MAX-Density change    ...    8.1310e-06  Tolerance :   1.0000e-07
  Last RMS-Density change    ...    4.9040e-07  Tolerance :   5.0000e-09
  Last DIIS Error            ...    2.5233e-03  Tolerance :   5.0000e-07
  Last Orbital Gradient      ...    9.1213e-06  Tolerance :   1.0000e-05
  Last Orbital Rotation      ...    1.8739e-05  Tolerance :   1.0000e-05


----------------------
UHF SPIN CONTAMINATION
----------------------

Warning: in a DFT calculation there is little theoretical justification to 
         calculate <S**2> as in Hartree-Fock theory. We will do it anyways
         but you should keep in mind that the values have only limited relevance

Expectation value of <S**2>     :     0.754442
Ideal value S*(S+1) for S=0.5   :     0.750000
Deviation                       :     0.004442

----------------
ORBITAL ENERGIES
----------------
                 SPIN UP ORBITALS
  NO   OCC          E(Eh)            E(eV) 
   0   1.0000     -76.480065     -2081.1284 
   1   1.0000     -18.793479      -511.3966 
   2   1.0000     -18.793472      -511.3964 
   3   1.0000      -6.387714      -173.8185 
   4   1.0000      -4.616959      -125.6339 
   5   1.0000      -4.614182      -125.5583 
   6   1.0000      -4.610466      -125.4572 
   7   1.0000      -0.955680       -26.0054 
   8   1.0000      -0.910699       -24.7814 
   9   1.0000      -0.482025       -13.1166 
  10   1.0000      -0.385675       -10.4947 
  11   1.0000      -0.371267       -10.1027 
  12   1.0000      -0.371108       -10.0984 
  13   1.0000      -0.303203        -8.2506 
  14   1.0000      -0.295648        -8.0450 
  15   1.0000      -0.245654        -6.6846 
  16   0.0000      -0.097994        -2.6666 
  17   0.0000      -0.021581        -0.5872 
  18   0.0000       0.000321         0.0087 
  19   0.0000       0.013426         0.3653 
  20   0.0000       0.020412         0.5554 
  21   0.0000       0.042446         1.1550 
  22   0.0000       0.074961         2.0398 
  23   0.0000       0.080500         2.1905 
  24   0.0000       0.081821         2.2265 
  25   0.0000       0.088530         2.4090 
  26   0.0000       0.097916         2.6644 

                 SPIN DOWN ORBITALS
  NO   OCC          E(Eh)            E(eV) 
   0   1.0000     -76.478302     -2081.0804 
   1   1.0000     -18.786756      -511.2136 
   2   1.0000     -18.786750      -511.2135 
   3   1.0000      -6.385009      -173.7449 
   4   1.0000      -4.614349      -125.5628 
   5   1.0000      -4.609011      -125.4176 
   6   1.0000      -4.608952      -125.4159 
   7   1.0000      -0.939845       -25.5745 
   8   1.0000      -0.894157       -24.3312 
   9   1.0000      -0.455691       -12.4000 
  10   1.0000      -0.363924        -9.9029 
  11   1.0000      -0.361923        -9.8484 
  12   1.0000      -0.353110        -9.6086 
  13   1.0000      -0.298456        -8.1214 
  14   1.0000      -0.284656        -7.7459 
  15   0.0000      -0.190039        -5.1712 
  16   0.0000      -0.070774        -1.9258 
  17   0.0000      -0.006687        -0.1820 
  18   0.0000       0.015357         0.4179 
  19   0.0000       0.019028         0.5178 
  20   0.0000       0.029913         0.8140 
  21   0.0000       0.056903         1.5484 
  22   0.0000       0.084803         2.3076 
  23   0.0000       0.086863         2.3637 
  24   0.0000       0.090810         2.4711 
  25   0.0000       0.093182         2.5356 
*Only the first 10 virtual orbitals were printed.

                    ********************************
                    * MULLIKEN POPULATION ANALYSIS *
                    ********************************

--------------------------------------------
MULLIKEN ATOMIC CHARGES AND SPIN POPULATIONS
--------------------------------------------
   0 P :    1.466813    0.521314
   1 O :   -0.733407    0.239343
   2 O :   -0.733407    0.239343
Sum of atomic charges         :   -0.0000000
Sum of atomic spin populations:    1.0000000

-----------------------------------------------------
MULLIKEN REDUCED ORBITAL CHARGES AND SPIN POPULATIONS
-----------------------------------------------------
CHARGE
  0 P s       :     5.181657  s :     5.181657
      pz      :     2.812681  p :     7.972849
      px      :     2.657673
      py      :     2.502496
      dz2     :     0.050490  d :     0.329567
      dxz     :     0.008570
      dyz     :     0.077958
      dx2y2   :     0.070480
      dxy     :     0.122067
      f0      :     0.004352  f :     0.042126
      f+1     :     0.000141
      f-1     :     0.006675
      f+2     :     0.011523
      f-2     :     0.001665
      f+3     :     0.002429
      f-3     :     0.015340
      g0      :     0.001283  g :     0.006988
      g+1     :     0.000082
      g-1     :     0.003949
      g+2     :     0.000989
      g-2     :     0.000001
      g+3     :     0.000465
      g-3     :     0.002387
      g+4     :    -0.000105
      g-4     :    -0.002063

  1 O s       :     4.020570  s :     4.020570
      pz      :     1.587936  p :     4.650431
      px      :     1.582379
      py      :     1.480117
      dz2     :     0.004936  d :     0.053832
      dxz     :     0.003149
      dyz     :     0.018126
      dx2y2   :     0.011786
      dxy     :     0.015835
      f0      :     0.000629  f :     0.006709
      f+1     :     0.000025
      f-1     :     0.000818
      f+2     :     0.001293
      f-2     :     0.000992
      f+3     :     0.001618
      f-3     :     0.001334
      g0      :     0.000141  g :     0.001864
      g+1     :     0.000015
      g-1     :     0.000326
      g+2     :     0.000254
      g-2     :     0.000005
      g+3     :     0.000203
      g-3     :     0.000382
      g+4     :     0.000275
      g-4     :     0.000264

  2 O s       :     4.020570  s :     4.020570
      pz      :     1.587936  p :     4.650431
      px      :     1.582379
      py      :     1.480117
      dz2     :     0.004936  d :     0.053832
      dxz     :     0.003149
      dyz     :     0.018126
      dx2y2   :     0.011786
      dxy     :     0.015835
      f0      :     0.000629  f :     0.006709
      f+1     :     0.000025
      f-1     :     0.000818
      f+2     :     0.001293
      f-2     :     0.000992
      f+3     :     0.001618
      f-3     :     0.001334
      g0      :     0.000141  g :     0.001864
      g+1     :     0.000015
      g-1     :     0.000326
      g+2     :     0.000254
      g-2     :     0.000005
      g+3     :     0.000203
      g-3     :     0.000382
      g+4     :     0.000275
      g-4     :     0.000264


SPIN
  0 P s       :     0.316224  s :     0.316224
      pz      :     0.185056  p :     0.183000
      px      :     0.026041
      py      :    -0.028097
      dz2     :     0.020373  d :     0.035628
      dxz     :    -0.004874
      dyz     :    -0.008690
      dx2y2   :     0.037159
      dxy     :    -0.008341
      f0      :    -0.000133  f :    -0.011184
      f+1     :    -0.000165
      f-1     :    -0.004875
      f+2     :     0.000928
      f-2     :    -0.001599
      f+3     :    -0.004173
      f-3     :    -0.001167
      g0      :     0.000114  g :    -0.002354
      g+1     :     0.000004
      g-1     :     0.000146
      g+2     :    -0.000352
      g-2     :     0.000002
      g+3     :     0.000156
      g-3     :    -0.000254
      g+4     :    -0.000855
      g-4     :    -0.001316

  1 O s       :     0.020039  s :     0.020039
      pz      :     0.179681  p :     0.222116
      px      :    -0.003963
      py      :     0.046397
      dz2     :    -0.000609  d :    -0.001690
      dxz     :     0.000232
      dyz     :    -0.002425
      dx2y2   :     0.000471
      dxy     :     0.000641
      f0      :    -0.000005  f :    -0.001006
      f+1     :    -0.000012
      f-1     :    -0.000906
      f+2     :    -0.000112
      f-2     :     0.000145
      f+3     :     0.000071
      f-3     :    -0.000186
      g0      :    -0.000019  g :    -0.000116
      g+1     :     0.000001
      g-1     :    -0.000028
      g+2     :    -0.000047
      g-2     :    -0.000000
      g+3     :     0.000012
      g-3     :     0.000006
      g+4     :    -0.000046
      g-4     :     0.000006

  2 O s       :     0.020039  s :     0.020039
      pz      :     0.179681  p :     0.222116
      px      :    -0.003963
      py      :     0.046397
      dz2     :    -0.000609  d :    -0.001690
      dxz     :     0.000232
      dyz     :    -0.002425
      dx2y2   :     0.000471
      dxy     :     0.000641
      f0      :    -0.000005  f :    -0.001006
      f+1     :    -0.000012
      f-1     :    -0.000906
      f+2     :    -0.000112
      f-2     :     0.000145
      f+3     :     0.000071
      f-3     :    -0.000186
      g0      :    -0.000019  g :    -0.000116
      g+1     :     0.000001
      g-1     :    -0.000028
      g+2     :    -0.000047
      g-2     :    -0.000000
      g+3     :     0.000012
      g-3     :     0.000006
      g+4     :    -0.000046
      g-4     :     0.000006



                     *******************************
                     * LOEWDIN POPULATION ANALYSIS *
                     *******************************

-------------------------------------------
LOEWDIN ATOMIC CHARGES AND SPIN POPULATIONS
-------------------------------------------
   0 P :   -0.078871    0.487265
   1 O :    0.039436    0.256368
   2 O :    0.039436    0.256368

----------------------------------------------------
LOEWDIN REDUCED ORBITAL CHARGES AND SPIN POPULATIONS
----------------------------------------------------
CHARGE
  0 P s       :     4.724254  s :     4.724254
      pz      :     2.673876  p :     7.956259
      px      :     2.530271
      py      :     2.752112
      dz2     :     0.179590  d :     1.437329
      dxz     :     0.018807
      dyz     :     0.458528
      dx2y2   :     0.405739
      dxy     :     0.374665
      f0      :     0.055345  f :     0.614751
      f+1     :     0.000892
      f-1     :     0.163206
      f+2     :     0.125908
      f-2     :     0.069354
      f+3     :     0.079361
      f-3     :     0.120685
      g0      :     0.032891  g :     0.346278
      g+1     :     0.003555
      g-1     :     0.040939
      g+2     :     0.056458
      g-2     :     0.000044
      g+3     :     0.036813
      g-3     :     0.058681
      g+4     :     0.046397
      g-4     :     0.070500

  1 O s       :     3.356979  s :     3.356979
      pz      :     1.386329  p :     4.229012
      px      :     1.317751
      py      :     1.524932
      dz2     :     0.026647  d :     0.239516
      dxz     :     0.006896
      dyz     :     0.092084
      dx2y2   :     0.062252
      dxy     :     0.051637
      f0      :     0.009330  f :     0.102301
      f+1     :     0.000105
      f-1     :     0.022308
      f+2     :     0.023550
      f-2     :     0.006991
      f+3     :     0.019165
      f-3     :     0.020853
      g0      :     0.001753  g :     0.032755
      g+1     :     0.000182
      g-1     :     0.006740
      g+2     :     0.003044
      g-2     :     0.000008
      g+3     :     0.002085
      g-3     :     0.008855
      g+4     :     0.007039
      g-4     :     0.003048

  2 O s       :     3.356979  s :     3.356979
      pz      :     1.386329  p :     4.229012
      px      :     1.317751
      py      :     1.524932
      dz2     :     0.026647  d :     0.239516
      dxz     :     0.006896
      dyz     :     0.092084
      dx2y2   :     0.062252
      dxy     :     0.051637
      f0      :     0.009330  f :     0.102301
      f+1     :     0.000105
      f-1     :     0.022308
      f+2     :     0.023550
      f-2     :     0.006991
      f+3     :     0.019165
      f-3     :     0.020853
      g0      :     0.001753  g :     0.032755
      g+1     :     0.000182
      g-1     :     0.006740
      g+2     :     0.003044
      g-2     :     0.000008
      g+3     :     0.002085
      g-3     :     0.008855
      g+4     :     0.007039
      g-4     :     0.003048


SPIN
  0 P s       :     0.150584  s :     0.150584
      pz      :     0.137676  p :     0.146581
      px      :     0.019951
      py      :    -0.011046
      dz2     :     0.073575  d :     0.169380
      dxz     :    -0.004313
      dyz     :    -0.004705
      dx2y2   :     0.106376
      dxy     :    -0.001553
      f0      :     0.002053  f :     0.002998
      f+1     :    -0.000226
      f-1     :    -0.001520
      f+2     :     0.007630
      f-2     :    -0.000648
      f+3     :    -0.004934
      f-3     :     0.000643
      g0      :     0.004980  g :     0.017722
      g+1     :    -0.000031
      g-1     :     0.000481
      g+2     :     0.008863
      g-2     :     0.000011
      g+3     :    -0.000122
      g-3     :     0.000299
      g+4     :     0.003435
      g-4     :    -0.000195

  1 O s       :     0.038615  s :     0.038615
      pz      :     0.139409  p :     0.186537
      px      :    -0.007790
      py      :     0.054918
      dz2     :     0.002855  d :     0.023475
      dxz     :     0.000623
      dyz     :     0.017179
      dx2y2   :     0.000927
      dxy     :     0.001892
      f0      :     0.000086  f :     0.007017
      f+1     :    -0.000022
      f-1     :     0.004319
      f+2     :     0.001242
      f-2     :     0.000614
      f+3     :     0.000618
      f-3     :     0.000160
      g0      :     0.000131  g :     0.000722
      g+1     :     0.000003
      g-1     :     0.000093
      g+2     :     0.000274
      g-2     :    -0.000000
      g+3     :     0.000061
      g-3     :     0.000007
      g+4     :     0.000120
      g-4     :     0.000034

  2 O s       :     0.038615  s :     0.038615
      pz      :     0.139409  p :     0.186537
      px      :    -0.007790
      py      :     0.054918
      dz2     :     0.002855  d :     0.023475
      dxz     :     0.000623
      dyz     :     0.017179
      dx2y2   :     0.000927
      dxy     :     0.001892
      f0      :     0.000086  f :     0.007017
      f+1     :    -0.000022
      f-1     :     0.004319
      f+2     :     0.001242
      f-2     :     0.000614
      f+3     :     0.000618
      f-3     :     0.000160
      g0      :     0.000131  g :     0.000722
      g+1     :     0.000003
      g-1     :     0.000093
      g+2     :     0.000274
      g-2     :    -0.000000
      g+3     :     0.000061
      g-3     :     0.000007
      g+4     :     0.000120
      g-4     :     0.000034



                      *****************************
                      * MAYER POPULATION ANALYSIS *
                      *****************************

  NA   - Mulliken gross atomic population
  ZA   - Total nuclear charge
  QA   - Mulliken gross atomic charge
  VA   - Mayer's total valence
  BVA  - Mayer's bonded valence
  FA   - Mayer's free valence

  ATOM       NA         ZA         QA         VA         BVA        FA
  0 P     13.5332    15.0000     1.4668     3.9782     3.5987     0.3795
  1 O      8.7334     8.0000    -0.7334     1.9055     1.8583     0.0472
  2 O      8.7334     8.0000    -0.7334     1.9055     1.8583     0.0472

  Mayer bond orders larger than 0.100000
B(  0-P ,  1-O ) :   1.7993 B(  0-P ,  2-O ) :   1.7993 

-------
TIMINGS
-------

Total SCF time: 0 days 0 hours 0 min 16 sec 

Total time                  ....      16.202 sec
Sum of individual times     ....      15.344 sec  ( 94.7%)

SCF preparation             ....       0.078 sec  (  0.5%)
Fock matrix formation       ....      13.779 sec  ( 85.0%)
  Startup                   ....       0.026 sec  (  0.2% of F)
  Coulomb formation         ....      12.503 sec  ( 90.7% of F)
  XC integration            ....       1.309 sec  (  9.5% of F)
    XC Preparation          ....       0.000 sec  (  0.0% of XC)
    Basis function eval.    ....       0.078 sec  (  5.9% of XC)
    Density eval.           ....       0.139 sec  ( 10.6% of XC)
    XC-Functional eval.     ....       0.015 sec  (  1.2% of XC)
    XC-Potential eval.      ....       0.448 sec  ( 34.2% of XC)
Diagonalization             ....       0.000 sec  (  0.0%)
Density matrix formation    ....       0.357 sec  (  2.2%)
Total Energy calculation    ....       0.053 sec  (  0.3%)
Population analysis         ....       0.024 sec  (  0.1%)
Orbital Transformation      ....       0.068 sec  (  0.4%)
Orbital Orthonormalization  ....       0.000 sec  (  0.0%)
DIIS solution               ....       0.774 sec  (  4.8%)
SOSCF solution              ....       0.212 sec  (  1.3%)
Finished LeanSCF after  16.3 sec

Maximum memory used throughout the entire LEANSCF-calculation: 26.5 MB


           ************************************************************
           *        Program running with 8 parallel MPI-processes     *
           *              working on a common directory               *
           ************************************************************

------------------------------------------------------------------------------
                         ORCA PROPERTY INTEGRAL CALCULATIONS
------------------------------------------------------------------------------

GBWName                                   ... /cluster/projects/nn14654k/ylvaos/basis_set_n_funcs/functionals/gga_x_pw91/PO2/inp/PO2_gga_x_pw91_augccpvqz.gbw
Number of atoms                           ...      3
Number of basis functions                 ...    286
Max core memory                           ...   4096 MB

Dipole integrals                          ... YES
Quadrupole integrals                      ... YES
Linear momentum integrals                 ...  NO
Angular momentum integrals                ...  NO
Higher moments length integrals           ...  NO
Higher moments velocity integrals         ...  NO
Kinetic energy integrals                  ...  NO
GIAO right hand sides                     ...  NO
GIAO dipole derivative integrals          ...  NO
SOC integrals                             ...  NO
EPR diamagnetic integrals (GIAO)          ...  NO
EPR gauge integrals                       ...  NO
Field gradient integrals                  ...  NO (   0 nuclei)
Spin-dipole/Fermi contact integrals       ...  NO (   0 nuclei)
Contact density integrals                 ...  NO (   0 nuclei)
Nucleus-orbit integrals                   ...  NO (   0 nuclei)
Geometric perturbations                   ...  NO (   3 nuclei)

Choice of electric origin   ... Center of mass
Position of electric origin ... (  0.0000,  0.0000,  0.0084) 
Choice of magnetic origin   ... GIAO
Position of magnetic origin ... (  0.0000,  0.0000,  0.0000) 

Calculating integrals                     ... Electric Dipole (Length)     done (  0.0 sec)
Calculating integrals                     ... Electric Quadrupole (Length) done (  0.0 sec)

Property integrals calculated in   0.0 sec

Maximum memory used throughout the entire PROPINT-calculation: 17.5 MB
------------------------------------------------------------------------------
                           ORCA ORBITAL LOCALIZATION
------------------------------------------------------------------------------

Input orbitals are from                  ... /cluster/projects/nn14654k/ylvaos/basis_set_n_funcs/functionals/gga_x_pw91/PO2/inp/PO2_gga_x_pw91_augccpvqz.gbw
Output orbitals are to                   ... /cluster/projects/nn14654k/ylvaos/basis_set_n_funcs/functionals/gga_x_pw91/PO2/inp/PO2_gga_x_pw91_augccpvqz.loc
Max. number of iterations                ... 128
Localizations seeded randomly            ... on
Convergence tolerance                    ... 1.000e-06
Threshold for strong local MOs           ... 9.500e-01
Threshold for bond MOs                   ... 8.500e-01
Operator                                 ... 0
Orbital range for localization           ... 4 to 15
Localization criterion                   ... NEW-BOYS
Doing the dipole integrals               ... o.k.
Initial value of the localization sum :    41.964488
ITERATION   0 : L=   49.5006272044 DL=  7.54e+00 (AVERGE_DL)=    0.3379111247 
ITERATION   1 : L=   50.1348194381 DL=  6.34e-01 (AVERGE_DL)=    0.0980253704 
ITERATION   2 : L=   50.1752882920 DL=  4.05e-02 (AVERGE_DL)=    0.0247621577 
ITERATION   3 : L=   50.2207334176 DL=  4.54e-02 (AVERGE_DL)=    0.0262404746 
ITERATION   4 : L=   50.2874209018 DL=  6.67e-02 (AVERGE_DL)=    0.0317870481 
ITERATION   5 : L=   50.3477663780 DL=  6.03e-02 (AVERGE_DL)=    0.0302378140 
ITERATION   6 : L=   50.3794507781 DL=  3.17e-02 (AVERGE_DL)=    0.0219104238 
ITERATION   7 : L=   50.3911809914 DL=  1.17e-02 (AVERGE_DL)=    0.0133315605 
ITERATION   8 : L=   50.3949535163 DL=  3.77e-03 (AVERGE_DL)=    0.0075603880 
ITERATION   9 : L=   50.3961324114 DL=  1.18e-03 (AVERGE_DL)=    0.0042263515 
ITERATION  10 : L=   50.3965045025 DL=  3.72e-04 (AVERGE_DL)=    0.0023743933 
ITERATION  11 : L=   50.3966235137 DL=  1.19e-04 (AVERGE_DL)=    0.0013428328 
ITERATION  12 : L=   50.3966616129 DL=  3.81e-05 (AVERGE_DL)=    0.0007597773 
ITERATION  13 : L=   50.3966736416 DL=  1.20e-05 (AVERGE_DL)=    0.0004269104 
ITERATION  14 : L=   50.3966773459 DL=  3.70e-06 (AVERGE_DL)=    0.0002369094 
ITERATION  15 : L=   50.3966784514 DL=  1.11e-06 (AVERGE_DL)=    0.0001294237 
ITERATION  16 : L=   50.3966787705 DL=  3.19e-07 (AVERGE_DL)=    0.0000695294 
LOCALIZATION SUM CONVERGED


--------------------------------------------------------------------------------
                    LOCALIZED MOLECULAR ORBITAL COMPOSITIONS
--------------------------------------------------------------------------------

The Mulliken populations for each LMO on each atom are computed
The LMO`s will be ordered according to atom index and type
  (A) Strongly localized MO`s have populations of >=0.950 on one atom
  (B) Two center bond orbitals have populations of >=0.850 on two atoms
  (C) Other MO`s are considered to be `delocalized`

FOUND  -   6 strongly local MO`s
       -   6 two center bond MO`s
       -   0 significantly delocalized MO`s

Rather strongly localized orbitals:
MO   9:   2O  -   0.970153
MO   8:   1O  -   0.970149
MO   7:   0P  -   1.001751
MO   6:   0P  -   0.996447
MO   5:   0P  -   0.996447
MO   4:   0P  -   0.987662
Bond-like localized orbitals:
MO  15:   2O  -   0.805382  and   0P  -   0.205308
MO  14:   2O  -   0.925327  and   0P  -   0.078079
MO  13:   2O  -   0.805360  and   0P  -   0.205318
MO  12:   1O  -   0.805383  and   0P  -   0.205307
MO  11:   1O  -   0.925323  and   0P  -   0.078082
MO  10:   1O  -   0.805367  and   0P  -   0.205314
Localized MO's were stored in: /cluster/projects/nn14654k/ylvaos/basis_set_n_funcs/functionals/gga_x_pw91/PO2/inp/PO2_gga_x_pw91_augccpvqz.loc
------------------------------------------------------------------------------
                           ORCA ORBITAL LOCALIZATION
------------------------------------------------------------------------------

Input orbitals are from                  ... /cluster/projects/nn14654k/ylvaos/basis_set_n_funcs/functionals/gga_x_pw91/PO2/inp/PO2_gga_x_pw91_augccpvqz.loc
Output orbitals are to                   ... /cluster/projects/nn14654k/ylvaos/basis_set_n_funcs/functionals/gga_x_pw91/PO2/inp/PO2_gga_x_pw91_augccpvqz.loc
Max. number of iterations                ... 128
Localizations seeded randomly            ... on
Convergence tolerance                    ... 1.000e-06
Threshold for strong local MOs           ... 9.500e-01
Threshold for bond MOs                   ... 8.500e-01
Operator                                 ... 1
Orbital range for localization           ... 4 to 14
Localization criterion                   ... NEW-BOYS
Doing the dipole integrals               ... o.k.
Initial value of the localization sum :    28.923232
ITERATION   0 : L=   39.4473787651 DL=  1.05e+01 (AVERGE_DL)=    0.4374335739 
ITERATION   1 : L=   42.6698076353 DL=  3.22e+00 (AVERGE_DL)=    0.2420529195 
ITERATION   2 : L=   43.2334430515 DL=  5.64e-01 (AVERGE_DL)=    0.1012319942 
ITERATION   3 : L=   43.2569624896 DL=  2.35e-02 (AVERGE_DL)=    0.0206791234 
ITERATION   4 : L=   43.2588667315 DL=  1.90e-03 (AVERGE_DL)=    0.0058840956 
ITERATION   5 : L=   43.2590148641 DL=  1.48e-04 (AVERGE_DL)=    0.0016411339 
ITERATION   6 : L=   43.2590771939 DL=  6.23e-05 (AVERGE_DL)=    0.0010645504 
ITERATION   7 : L=   43.2591228580 DL=  4.57e-05 (AVERGE_DL)=    0.0009111845 
ITERATION   8 : L=   43.2591566962 DL=  3.38e-05 (AVERGE_DL)=    0.0007843729 
ITERATION   9 : L=   43.2591815276 DL=  2.48e-05 (AVERGE_DL)=    0.0006719218 
ITERATION  10 : L=   43.2591996836 DL=  1.82e-05 (AVERGE_DL)=    0.0005745519 
ITERATION  11 : L=   43.2592129607 DL=  1.33e-05 (AVERGE_DL)=    0.0004913255 
ITERATION  12 : L=   43.2592226783 DL=  9.72e-06 (AVERGE_DL)=    0.0004203375 
ITERATION  13 : L=   43.2592297960 DL=  7.12e-06 (AVERGE_DL)=    0.0003597399 
ITERATION  14 : L=   43.2592350123 DL=  5.22e-06 (AVERGE_DL)=    0.0003079649 
ITERATION  15 : L=   43.2592388394 DL=  3.83e-06 (AVERGE_DL)=    0.0002637864 
ITERATION  16 : L=   43.2592416470 DL=  2.81e-06 (AVERGE_DL)=    0.0002259381 
ITERATION  17 : L=   43.2592437100 DL=  2.06e-06 (AVERGE_DL)=    0.0001936711 
ITERATION  18 : L=   43.2592452259 DL=  1.52e-06 (AVERGE_DL)=    0.0001660152 
ITERATION  19 : L=   43.2592463407 DL=  1.11e-06 (AVERGE_DL)=    0.0001423736 
ITERATION  20 : L=   43.2592471612 DL=  8.20e-07 (AVERGE_DL)=    0.0001221370 
LOCALIZATION SUM CONVERGED


--------------------------------------------------------------------------------
                    LOCALIZED MOLECULAR ORBITAL COMPOSITIONS
--------------------------------------------------------------------------------

The Mulliken populations for each LMO on each atom are computed
The LMO`s will be ordered according to atom index and type
  (A) Strongly localized MO`s have populations of >=0.950 on one atom
  (B) Two center bond orbitals have populations of >=0.850 on two atoms
  (C) Other MO`s are considered to be `delocalized`

FOUND  -   5 strongly local MO`s
       -   6 two center bond MO`s
       -   0 significantly delocalized MO`s

Rather strongly localized orbitals:
MO   8:   2O  -   0.954913
MO   7:   1O  -   0.954911
MO   6:   0P  -   0.998212
MO   5:   0P  -   0.992231
MO   4:   0P  -   0.992231
Bond-like localized orbitals:
MO  14:   2O  -   0.610043  and   0P  -   0.364714
MO  13:   2O  -   0.838036  and   0P  -   0.174773
MO  12:   2O  -   0.838696  and   0P  -   0.174266
MO  11:   1O  -   0.610051  and   0P  -   0.364705
MO  10:   1O  -   0.838241  and   0P  -   0.174623
MO   9:   1O  -   0.838483  and   0P  -   0.174424
Localized MO's were stored in: /cluster/projects/nn14654k/ylvaos/basis_set_n_funcs/functionals/gga_x_pw91/PO2/inp/PO2_gga_x_pw91_augccpvqz.loc

-------------------------   --------------------
FINAL SINGLE POINT ENERGY      -490.638865183337
-------------------------   --------------------



           ************************************************************
           *        Program running with 8 parallel MPI-processes     *
           *              working on a common directory               *
           ************************************************************

------------------------------------------------------------------------------
                              ORCA PROPERTY CALCULATIONS
------------------------------------------------------------------------------

GBWName                                 ... /cluster/projects/nn14654k/ylvaos/basis_set_n_funcs/functionals/gga_x_pw91/PO2/inp/PO2_gga_x_pw91_augccpvqz.gbw
Number of atoms                         ...      3
Number of basis functions               ...    286
Max core memory                         ...   4096 MB

Electric properties:
Dipole moment                           ... YES
Quadrupole moment                       ... YES
Static polarizability (Dipole/Dipole)   ...  NO
Static polarizability (Dipole/Quad.)    ...  NO
Static polarizability (Quad./Quad.)     ...  NO
Static polarizability (Velocity)        ...  NO
Static hyperpolarizability              ...  NO

Atomic electric properties:
Dipole moment                           ...  NO
Quadrupole moment                       ...  NO
Static polarizability                   ...  NO

Choice of electric origin               ... Center of mass
Position of electric origin             ...     0.000000     0.000000     0.008437

General magnetic properties:
Magnetizability                         ...  NO

EPR properties:
g-Tensor (aka g-matrix)                 ...  NO
Zero-Field splitting spin-orbit         ...  NO
Zero-field splitting spin-spin          ...  NO
Hyperfine couplings                     ...  NO (   0 nuclei)
Quadrupole couplings                    ...  NO (   0 nuclei)
Contact density                         ...  NO (   0 nuclei)

NMR properties:
Chemical shifts                         ...  NO (   0 nuclei)
Spin-rotation constants                 ...  NO (   0 nuclei)
Spin-spin couplings                     ...  NO (   0 nuclei,    0 pairs)

Choice of magnetic origin               ... GIAO
Position of magnetic origin             ...     0.000000     0.000000     0.000000

Properties with geometric perturbations:
SCF Hessian                             ...  NO
IR spectrum                             ...  NO
VCD spectrum                            ...  NO
X-ray spectroscopy properties:
SCF XES/XAS/RIXS spectra                ...  NO

SCF SOC stabilization energy            ...  NO
Diagonal Born-Oppenheimer correction    ...  NO

-------------
DIPOLE MOMENT
-------------

Method             : SCF
Type of density    : Electron Density
Multiplicity       :   2
Irrep              :   0
Energy             :  -490.6388651833368044 Eh
Basis              : AO
                                X                 Y                 Z
Electronic contribution:     -0.000000000       0.000000000       0.761174379
Nuclear contribution   :      0.000000000       0.000000000      -0.261362976
                        -----------------------------------------
Total Dipole Moment    :     -0.000000000       0.000000000       0.499811402
                        -----------------------------------------
Magnitude (a.u.)       :      0.499811402
Magnitude (Debye)      :      1.270419623



--------------------
Rotational spectrum 
--------------------
 
Rotational constants in cm-1:             3.442444             0.286393             0.264396 
Rotational constants in MHz :        103201.869580          8585.841533          7926.407020 

Dipole components along the rotational axes: 
x,y,z [a.u.] :     0.000000     0.499811    -0.000000 
x,y,z [Debye]:     0.000000     1.270420    -0.000000 

 

Dipole moment calculation done in   0.0 sec 

-----------------
QUADRUPOLE MOMENT
-----------------

Method             : SCF
Type of density    : Electron Density
Multiplicity       :   2
Irrep              :   0
Energy             :  -490.6388651833368044 Eh
Basis              : AO

                XX              YY              ZZ              XY              XZ              YZ
  NUC        0.000000000   105.106420135     8.604299986     0.000000000     0.000000000     0.000000000
  EL       -16.021109094  -126.611218474   -25.376528873    -0.000000000    -0.000000000    -0.000000007
  TOT      -16.021109094   -21.504798339   -16.772228888    -0.000000000    -0.000000000    -0.000000007 (a.u.)
           -21.548939653   -28.924689230   -22.559221464    -0.000000000    -0.000000000    -0.000000009 (Buckingham)

diagonalized tensor:
           -21.504798339   -16.772228888   -16.021109094 (a.u.)
           -28.924689230   -22.559221464   -21.548939653 (Buckingham)
           -13.741217343     5.355185955     8.386031388 (traceless form in Buckingham)

             0.000000000    -0.000000000     1.000000000
             1.000000000     0.000000001    -0.000000000
             0.000000001    -1.000000000    -0.000000000
        
Isotropic quadrupole :   -18.099378773

Quadrupole moment calculation done in   0.0 sec (  0.0 sec for integrals)

Maximum memory used throughout the entire PROP-calculation: 12.3 MB

--------------------------------
SUGGESTED CITATIONS FOR THIS RUN
--------------------------------

Below you find a list of papers that are relevant to this ORCA run
We neither can nor want to force you to cite these papers, but we appreciate if you do
You receive ORCA, which is the product of decades of hard work by many enthusiastic individuals, for free
The only thing we kindly ask in return is that you cite our papers,
We deeply appreciate it, if you show your appreciation for ORCA by not just citing the generic ORCA reference.

Please note that relegating all ORCA citations to the supporting information does *not* help us.
SI sections are not indexed - citations you put there will not count into any citation statistics
But we need these citations in order to attract the funding resources that allow us to do what we are doing

Therefore, if you are a happy ORCA user, please consider citing a few of the papers listed below in the main body of your paper

In addition to the list printed below, the program has created the file /cluster/projects/nn14654k/ylvaos/basis_set_n_funcs/functionals/gga_x_pw91/PO2/inp/PO2_gga_x_pw91_augccpvqz.bibtex that contains the list in bibtex format
You can import this file easily into all common literature databanks and citation aid programs

It goes without saying that in many instances, there are alternative algorithms to achieve similar
results as the ones you have gotten from ORCA. It is, of course, also the case that in some instances
ORCA just re-implements algorithms worked out by others. We are fully aware of that and we are also
fully appreciative of our colleagues work. Hence this citation list should not be read as indicating
that the listed papers, which are focused on our own work, are the only ones worth citing. It simply
meant to make it easier for users to cite ORCA specific papers. It is not a substitute for doing your
own literature research and citing the relevant literature in a scientifically appropriate manner.

List of essential papers. We consider these as the minimum necessary citations

  1. Neese, F.
     Software update: the ORCA program system, version 6.0
     WIRES Comput. Molec. Sci. 2025 15(1), e70019
     doi.org/10.1002/wcms.70019

List of papers to cite with high priority. The work reported in these papers was absolutely
necessary for this run to complete.
Our perspective: the developers of density functionals and basis sets usually get cited in chemistry papers
Good! But without the algorithms to do something with them, the functionals or basis sets would not do anything.
Hence, in our opinion, the algorithm design and method developments papers are equally worthy of getting cited

  1. Lehtola, S.; Steigemann, C.; Oliveira, M.; Marques, M.
     Recent developments in Libxc - A comprehensive library of functionals for density functional theory
     Software X 2018 7 , 
     doi.org/10.1016/j.softx.2017.11.002
  2. Neese, F.
     The SHARK Integral Generation and Digestion System
     J. Comp. Chem. 2022 44(3), 381
     doi.org/10.1002/jcc.26942

List of suggested additional citations. These are papers that are important in the 'surrounding' of 
of this run, or papers that preceded the highly important papers. If you like your results we are grateful for a citation.

  1. Neese, F.
     The ORCA program system
     WIRES Comput. Molec. Sci. 2012 2(1), 73-78
     doi.org/10.1002/wcms.81
  2. Neese, F.
     Software update: the ORCA program system, version 4.0
     WIRES Comput. Molec. Sci. 2018 8(1), 1-6
     doi.org/10.1002/wcms.1327
  3. Neese, F.; Wennmohs, F.; Becker, U.; Riplinger, C.
     The ORCA quantum chemistry program package
     J. Chem. Phys. 2020 152(22), 224108
     doi.org/10.1063/5.0004608
  4. Neese, F.
     Software update: The ORCA program system—Version 5.0
     WIRES Comput. Molec. Sci. 2022 12(1), e1606
     doi.org/10.1002/wcms.1606

List of optional additional citations

  1. Neese, F.
     Approximate second-order SCF convergence for spin unrestricted wavefunctions
     Chem. Phys. Lett. 2000 325(1-3), 93-98
     doi.org/10.1016/s0009-2614(00)00662-x

Timings for individual modules:

Sum of individual times          ...       18.673 sec (=   0.311 min)
Startup calculation              ...        1.160 sec (=   0.019 min)   6.2 %
SCF iterations                   ...       16.880 sec (=   0.281 min)  90.4 %
Property integrals               ...        0.272 sec (=   0.005 min)   1.5 %
Property calculations            ...        0.320 sec (=   0.005 min)   1.7 %
Orbital localization             ...        0.042 sec (=   0.001 min)   0.2 %
                             ****ORCA TERMINATED NORMALLY****
TOTAL RUN TIME: 0 days 0 hours 0 minutes 19 seconds 953 msec
