
                                 *****************
                                 * O   R   C   A *
                                 *****************

                                            #,                                       
                                            ###                                      
                                            ####                                     
                                            #####                                    
                                            ######                                   
                                           ########,                                 
                                     ,,################,,,,,                         
                               ,,#################################,,                 
                          ,,##########################################,,             
                       ,#########################################, ''#####,          
                    ,#############################################,,   '####,        
                  ,##################################################,,,,####,       
                ,###########''''           ''''###############################       
              ,#####''   ,,,,##########,,,,          '''####'''          '####       
            ,##' ,,,,###########################,,,                        '##       
           ' ,,###''''                  '''############,,,                           
         ,,##''                                '''############,,,,        ,,,,,,###''
      ,#''                                            '''#######################'''  
     '                                                          ''''####''''         
             ,#######,   #######,   ,#######,      ##                                
            ,#'     '#,  ##    ##  ,#'     '#,    #''#        ,####,    ,#,          
            ##       ##  ##   ,#'  ##            #'  '#       #'       ,# #          
            ##       ##  #######   ##           ,######,      #####,      #          
            '#,     ,#'  ##    ##  '#,     ,#' ,#      #,     #,   #      #          
             '#######'   ##     ##  '#######'  #'      '#     '####' #    #          



                #########################################################
                #                        -***-                          #
                #          Department of theory and spectroscopy        #
                #                                                       #
                #                      Frank Neese                      #
                #                                                       #
                #     Directorship, Architecture, Infrastructure        #
                #                    SHARK, DRIVERS                     #
                #        Core code/Algorithms in most modules           #
                #                                                       #
                #        Max Planck Institute fuer Kohlenforschung      #
                #                Kaiser Wilhelm Platz 1                 #
                #                 D-45470 Muelheim/Ruhr                 #
                #                      Germany                          #
                #                                                       #
                #                  All rights reserved                  #
                #                        -***-                          #
                #########################################################


                         Program Version 6.1.1  -  RELEASE   -
                                (GIT: $487d211c$)
                          ($2025-11-21 10:33:24 +0100$)


 With contributions from (in alphabetic order):
[Max-Planck-Institut fuer Kohlenforschung]                               
  Daniel Aravena         : Magnetic Suceptibility                        
  Michael Atanasov       : Ab Initio Ligand Field Theory (pilot matlab implementation)
  Alexander A. Auer      : GIAO ZORA, VPT2 properties, NMR spectrum      
  Ute Becker             : All parallelization in ORCA, NUMFREQ, NUMCALC 
  Giovanni Bistoni       : ED, misc. LED, open-shell LED, HFLD           
  Dmytro Bykov           : pre 5.0 version of the SCF Hessian            
  Marcos Casanova-Páez   : Triplet and SCS-CIS(D). UHF-(DLPNO)-IP/EA/STEOM-CCSD. UHF-CVS-IP/STEOM-CCSD   
  Vijay G. Chilkuri      : MRCI spin determinant printing, contributions to CSF-ICE 
  Pauline Colinet        : FMM embedding                                 
  Dipayan Datta          : RHF DLPNO-CCSD density                        
  Achintya Kumar Dutta   : EOM-CC, STEOM-CC                              
  Nicolas Foglia         : Exact transition moments, OPA infrastructure, MCD improvements    
  Dmitry Ganyushin       : Spin-Orbit,Spin-Spin,Magnetic field MRCI      
  Miquel Garcia-Rates    : C-PCM and meta-GGA Hessian, CCSD/C-PCM, Gaussian charge scheme 
  Tiago L. C. Gouveia    : GS-ROHF, GS-ROCIS                             
  Yang Guo               : DLPNO-NEVPT2, F12-NEVPT2, CIM, IAO-localization        
  Andreas Hansen         : Spin unrestricted coupled pair/coupled cluster methods 
  Ingolf Harden          : AUTO-CI MPn and infrastructure                
  Benjamin Helmich-Paris : MC-RPA, TRAH-(SCF,CASSCF), AVAS, COSX integrals, SCF dyn. polar., MC-PDFT, srDFT 
  Lee Huntington         : MR-EOM, pCC                                   
  Robert Izsak           : Overlap fitted RIJCOSX, COSX-SCS-MP3, EOM     
  Riya Kayal             : Wick's Theorem for AUTO-CI, AUTO-CI UHF-CCSDT 
  Emily Kempfer          : AUTO-CI RHF CISDT and CCSDT, approximate NEVPT4
  Christian Kollmar      : KDIIS, OOCD, Brueckner-CCSD(T), CCSD density, CASPT2, CASPT2-K, improved NEVPT2 
  Axel Koslowski         : Symmetry handling                             
  Simone Kossmann        : meta-GGA functionals, TD-DFT gradient, OOMP2, (MP2 Hessian; deprecated post 5.0) 
  Lucas Lang             : DCDCAS, Hyperfine gauge corrections, ICE-SOC+SSC
  Marvin Lechner         : AUTO-CI (C++ implementation), FIC-MRCC        
  Spencer Leger          : CASSCF response                               
  Dagmar Lenk            : GEPOL surface, SMD, ORCA-2-JSON               
  Dimitrios Liakos       : Extrapolation schemes; Compound Job, Property file
  Dimitrios Manganas     : Further ROCIS development; embedding schemes. LFT, Crystal Embedding 
  Dimitrios Pantazis     : SARC Basis sets                               
  Anastasios Papadopoulos: AUTO-CI, single reference methods and gradients 
  Taras Petrenko         : pre 6.0 DFT Hessian and TD-DFT gradient,  ECA, NRVS 
  Petra Pikulova         : Analytic Raman intensities                    
  Peter Pinski           : DLPNO-MP2, DLPNO-MP2 Gradient                 
  Shashank Vittal Rao    : ES-AILFT, MagRelax                            
  Christoph Reimann      : Effective Core Potentials                     
  Marius Retegan         : Local ZFS, SOC                                
  Christoph Riplinger    : Optimizer, TS searches, QM/MM, DLPNO-CCSD(T), (RO)-DLPNO pert. Triples 
  Michael Roemelt        : Original ROCIS implementation, recursive CI coupling coefficients
  Masaaki Saitow         : Open-shell DLPNO-CCSD energy and density      
  Barbara Sandhoefer     : DKH picture change effects                    
  Yorick L. A. Schmerwitz: GMF and freeze-and-release deltaSCF, NEB S-IDPP initial path                    
  Kantharuban Sivalingam : CASSCF convergence/infrastructure, NEVPT2, NEVPT3, NEVPT4(SD), FIC-MRCI and CEPA variants
  Bernardo de Souza      : ESD, SOC TD-DFT                               
  Georgi L. Stoychev     : AutoAux, RI-MP2 NMR, DLPNO-MP2 response, X2C  
  Van Anh Tran           : RI-MP2 g-tensors                              
  Willem Van den Heuvel  : Paramagnetic NMR                              
  Zikuan Wang            : NOTCH, Electric field optimization            
  Frank Wennmohs         : Technical directorship and infrastructure     
  Hang Xu                : AUTO-CI-Response properties                   
                                                                         
[FACCTs GmbH]                                                            
  Markus Bursch, Nicolas Foglia, Miquel Garcia-Rates, Ingolf Harden, Hagen Neugebauer, Anastasios Papadopoulos, 
  Christoph Riplinger, Bernardo de Souza, Georgi L. Stoychev                                                    
                                                                 
  APM, various basis sets, CI-OPT, improved COSX, DLPNO-Multilevel,           
  DOCKER, DRACO, updates on ESD, Fragmentator, GOAT, IRC, LR-CPCM, L-BFGS, MBIS, meta-GGA TD-DFT gradient, ML-optimized integration grids, 
  MM, NACMEs, nearIR, NEB, NEB-TS, NL-DFT gradient (VV10), 2- and 3-layer-ONIOM, interface openCOSMO-RS, QMMM,   
  Crystal-QMMM, RESP, rigid body optimization, SF, symmetry and pop. for TD-DFT, various functionals, SOLVATOR                                   
                                                                         
[Other institutions]                                                     
  V. Asgeirsson          : NEB                                           
  Christoph Bannwarth    : sTDA-DFT, sTD-DFT, PBEh-3c, B97-3c, D3        
  Giovanni Bistoni       : ETS/NOCV, ADLD/ADEX, COVALED                  
  Martin Brehm           : Molecular dynamics                            
  Ronald Cardenas        : ETS/NOCV                                      
  Martina Colucci        : COVALED                                       
  Sebastian Ehlert       : rSCAN, r2SCAN, r2SCAN-3c, D4, dhf basis sets  
  Marvin Friede          : D4 for Fr, Ra, Ac-Lr                          
  Lars Goerigk           : TD-DFT with DH, B97 family of functionals     
  Stefan Grimme          : VdW corrections, initial TS optimization, DFT functionals, gCP, sTDA/sTD-DF 
  Waldemar Hujo          : DFT-NL                                        
  H. Jonsson             : NEB                                           
  Holger Kruse           : gCP                                           
  Marcel Mueller         : wB97X-3c, vDZP basis set                      
  Hagen Neugebauer       : wr2SCAN, Native XTB                           
  Gianluca Regni         : ADLD/ADEX                                     
  Tobias Risthaus        : pre 6.0 range-separated hybrid DFT and stability analysis
  Lukas Wittmann         : regularized MP2, r2SCAN double-hybrids, wr2SCAN        
                                                                         
We gratefully acknowledge several colleagues who have allowed us to      
interface, adapt or use parts of their codes:                            
  Ed Valeev, F. Pavosevic, A. Kumar             : LibInt (2-el integral package), F12 methods 
  Garnet Chan, S. Sharma, J. Yang, R. Olivares  : DMRG                   
  Ulf Ekstrom                                   : XCFun DFT Library      
  Mihaly Kallay                                 : mrcc  (arbitrary order and MRCC methods)
  Frank Weinhold                                : gennbo (NPA and NBO analysis)           
  Simon Mueller                                 : openCOSMO-RS                            
  Christopher J. Cramer and Donald G. Truhlar   : smd solvation model                     
  S Lehtola, MJT Oliveira, MAL Marques          : LibXC Library                           
  Liviu Ungur et al                             : ANISO software                          


 Your calculation uses the libint2 library for the computation of 2-el integrals
 For citations please refer to: http://libint.valeyev.net

 Your ORCA version has been built with support for libXC version: 7.0.0
 For citations please refer to: https://libxc.gitlab.io

 This ORCA versions uses:
   CBLAS   interface :  Fast vector & matrix operations
   LAPACKE interface :  Fast linear algebra routines
   SCALAPACK package :  Parallel linear algebra routines
   Shared memory     :  Shared parallel matrices
   BLAS/LAPACK       :  OpenBLAS 0.3.29  USE64BITINT DYNAMIC_ARCH NO_AFFINITY Cooperlake SINGLE_THREADED
        Core in use  :  Cooperlake
   Copyright (c) 2011-2014, The OpenBLAS Project


  ***********************************
  * Starting time: Wed May 20 12:39:34 2026
  * Host name:     c1-40
  * Process ID:    723540
  * Working dir.:  /cluster/projects/nn14654k/ylvaos/basis_set_n_funcs/functionals/gga_x_pw91/PO2/out
  ***********************************

Using LibXC functional ID 109 : Perdew & Wang 91
[ 1]  J. P. Perdew. In P. Ziesche and H. Eschrig, editors, Proceedings of the 75. WE-Heraeus-Seminar and 21st Annual International Symposium on Electronic Structure of Solids, 11. Berlin, 1991. Akademie Verlag.
[ 2]  J. P. Perdew, J. A. Chevary, S. H. Vosko, K. A. Jackson, M. R. Pederson, D. J. Singh, and C. Fiolhais.,  Phys. Rev. B 46, 6671 (1992)
[ 3]  J. P. Perdew, J. A. Chevary, S. H. Vosko, K. A. Jackson, M. R. Pederson, D. J. Singh, and C. Fiolhais.,  Phys. Rev. B 48, 4978 (1993)
Using LibXC functional ID 109 : Perdew & Wang 91
[ 1]  J. P. Perdew. In P. Ziesche and H. Eschrig, editors, Proceedings of the 75. WE-Heraeus-Seminar and 21st Annual International Symposium on Electronic Structure of Solids, 11. Berlin, 1991. Akademie Verlag.
[ 2]  J. P. Perdew, J. A. Chevary, S. H. Vosko, K. A. Jackson, M. R. Pederson, D. J. Singh, and C. Fiolhais.,  Phys. Rev. B 46, 6671 (1992)
[ 3]  J. P. Perdew, J. A. Chevary, S. H. Vosko, K. A. Jackson, M. R. Pederson, D. J. Singh, and C. Fiolhais.,  Phys. Rev. B 48, 4978 (1993)
Your calculation utilizes LibXC
by S. Lehtola, C. Steigemann, M. J. T. Oliveira & M. A. L. Marques
Please cite in your paper:
Lehtola, S.; Steigemann, C.; Oliveira, M.J.T.; Marques, M. A. L. Software X, 7, (2018), 1.
   

================================================================================

----- Orbital basis set information -----
Your calculation utilizes the basis: cc-pVQZ 
       H, B-Ne : Obtained from the ccRepo (grant-hill.group.shef.ac.uk/ccrepo) Feb. 2017
                 T. H. Dunning, Jr., J. Chem. Phys. 90, 1007 (1989)
            He : Obtained from the ccRepo (grant-hill.group.shef.ac.uk/ccrepo) Feb. 2017
                 D. E. Woon, T. H. Dunning, Jr., J. Chem. Phys. 100, 2975 (1994)
  Li-Be, Na-Mg : Obtained from the ccRepo (grant-hill.group.shef.ac.uk/ccrepo) Feb. 2017
                 B. P. Prascher, D. E. Woon, K. A. Peterson, T. H. Dunning, Jr., A. K. Wilson, Theor. Chem. Acc. 128, 69 (2011)
         Al-Ar : Obtained from the ccRepo (grant-hill.group.shef.ac.uk/ccrepo) Feb. 2017
                 D. E. Woon, T. H. Dunning, Jr., J. Chem. Phys. 98, 1358 (1993)
            Ca : Obtained from the Peterson Research Group Website (tyr0.chem.wsu.edu/~kipeters) Feb. 2017
                 J. Koput, K. A. Peterson, J. Phys. Chem. 106, 9595 (2002)
         Sc-Zn : Obtained from the ccRepo (grant-hill.group.shef.ac.uk/ccrepo) Feb. 2017
                 N. B. Balabanov, K. A. Peterson, J. Chem. Phys. 123, 064107 (2005)
                 N. B. Balabanov, K. A. Peterson, J. Chem. Phys. 125, 074110 (2006)
         Ga-Kr : Obtained from the ccRepo (grant-hill.group.shef.ac.uk/ccrepo) Feb. 2017
                 A. K. Wilson, D. E. Woon, K. A. Peterson, T. H. Dunning, Jr., J. Chem. Phys. 110, 7667 (1999)

================================================================================
                                        WARNINGS
                       Please study these warnings very carefully!
================================================================================


WARNING: your system is open-shell and RHF/RKS was chosen
  ===> : WILL SWITCH to UHF/UKS


================================================================================
                                       INPUT FILE
================================================================================
NAME = /cluster/projects/nn14654k/ylvaos/basis_set_n_funcs/functionals/gga_x_pw91/PO2/inp/PO2_gga_x_pw91_ccpvqz.inp
|  1> ! dft cc-pVQZ TightSCF
|  2> %pal nprocs 8 end
|  3> 
|  4> %loc
|  5>   LocMet NewBoys
|  6>   Occ true
|  7> end
|  8> 
|  9> %method
| 10>   exchange gga_x_pw91
| 11>   correlation None
| 12> end
| 13> 
| 14> %elprop
| 15>   Dipole true
| 16>   Quadrupole true
| 17> end
| 18> 
| 19> * xyz 0 2
| 20> P    0.000000000000   0.000000000000   0.287900000000
| 21> O    0.000000000000   1.356300000000  -0.269900000000
| 22> O    0.000000000000  -1.356300000000  -0.269900000000
| 23> *
| 24> 
| 25> 
| 26>                          ****END OF INPUT****
================================================================================

                       ****************************
                       * Single Point Calculation *
                       ****************************

---------------------------------
CARTESIAN COORDINATES (ANGSTROEM)
---------------------------------
  P      0.000000    0.000000    0.287900
  O      0.000000    1.356300   -0.269900
  O      0.000000   -1.356300   -0.269900

----------------------------
CARTESIAN COORDINATES (A.U.)
----------------------------
  NO LB      ZA    FRAG     MASS         X           Y           Z
   0 P    15.0000    0    30.974    0.000000    0.000000    0.544052
   1 O     8.0000    0    15.999    0.000000    2.563036   -0.510037
   2 O     8.0000    0    15.999    0.000000   -2.563036   -0.510037

--------------------------------
INTERNAL COORDINATES (ANGSTROEM)
--------------------------------
 P      0   0   0     0.000000000000     0.00000000     0.00000000
 O      1   0   0     1.466523279733     0.00000000     0.00000000
 O      1   2   0     1.466523279733   135.28860674     0.00000000

---------------------------
INTERNAL COORDINATES (A.U.)
---------------------------
 P      0   0   0     0.000000000000     0.00000000     0.00000000
 O      1   0   0     2.771327367716     0.00000000     0.00000000
 O      1   2   0     2.771327367716   135.28860674     0.00000000

---------------------
BASIS SET INFORMATION
---------------------
There are 2 groups of distinct atoms

 Group   1 Type P   : 42s19p3d2f1g contracted to 6s5p3d2f1g pattern {131313111/88111/111/11/1}
 Group   2 Type O   : 21s6p3d2f1g contracted to 5s4p3d2f1g pattern {99111/3111/111/11/1}

Atom   0P    basis set group =>   1
Atom   1O    basis set group =>   2
Atom   2O    basis set group =>   2


           ************************************************************
           *        Program running with 8 parallel MPI-processes     *
           *              working on a common directory               *
           ************************************************************
------------------------------------------------------------------------------
                             ORCA STARTUP CALCULATIONS
------------------------------------------------------------------------------
------------------------------------------------------------------------------
                   ___                                                        
                  /   \      - P O W E R E D   B Y -                         
                 /     \                                                     
                 |  |  |   _    _      __       _____    __    __             
                 |  |  |  | |  | |    /  \     |  _  \  |  |  /  |          
                  \  \/   | |  | |   /    \    | | | |  |  | /  /          
                 / \  \   | |__| |  /  /\  \   | |_| |  |  |/  /          
                |  |  |   |  __  | /  /__\  \  |    /   |      \           
                |  |  |   | |  | | |   __   |  |    \   |  |\   \          
                \     /   | |  | | |  |  |  |  | |\  \  |  | \   \       
                 \___/    |_|  |_| |__|  |__|  |_| \__\ |__|  \__/        
                                                                              
                      - O R C A' S   B I G   F R I E N D -                    
                                      &                                       
                       - I N T E G R A L  F E E D E R -                       
                                                                              
 v1 FN, 2020, v2 2021, v3 2022-2024                                           
------------------------------------------------------------------------------


----------------------
SHARK INTEGRAL PACKAGE
----------------------

Number of atoms                             ...      3
Number of basis functions                   ...    211
Number of shells                            ...     77
Maximum angular momentum                    ...      4
Integral batch strategy                     ... SHARK/LIBINT Hybrid
RI-J (if used) integral strategy            ... SPLIT-RIJ (Revised 2003 algorithm where possible)
Printlevel                                  ...      1
Contraction scheme used                     ... PARTIAL GENERAL contraction
Prescreening option                         ... SCHWARTZ
   Thresh                                   ... 2.500e-11
   Tcut                                     ... 2.500e-12
   Tpresel                                  ... 2.500e-12 
Coulomb Range Separation                    ... NOT USED
Exchange Range Separation                   ... NOT USED
Multipole approximations                    ... NOT USED
Finite Nucleus Model                        ... NOT USED
CABS basis                                  ... NOT available
Auxiliary Coulomb fitting basis             ... NOT available
Auxiliary J/K fitting basis                 ... NOT available
Auxiliary Correlation fitting basis         ... NOT available
Auxiliary 'external' fitting basis          ... NOT available

Checking pre-screening integrals            ... done (  0.0 sec) Dimension = 77
Save PGC pre-screening integrals            ... done (  0.0 sec) Dimension = 77
Calculate PGC overlap integrals             ... done (  0.0 sec) Dimension = 47
Calculating pre-screening integrals (ORCA)  ... done (  0.1 sec) Dimension = 47
Shell pair information
Shell pair cut-off parameter TPreSel        ...   2.5e-12
Total number of shell pairs                 ...      3003
Shell pairs after pre-screening             ...      2436
Total number of primitive shell pairs       ...      3327
Primitive shell pairs kept                  ...      2626
          la=0 lb=0:    515 shell pairs
          la=1 lb=0:    600 shell pairs
          la=1 lb=1:    181 shell pairs
          la=2 lb=0:    316 shell pairs
          la=2 lb=1:    167 shell pairs
          la=2 lb=2:     44 shell pairs
          la=3 lb=0:    220 shell pairs
          la=3 lb=1:    112 shell pairs
          la=3 lb=2:     52 shell pairs
          la=3 lb=3:     21 shell pairs
          la=4 lb=0:    100 shell pairs
          la=4 lb=1:     57 shell pairs
          la=4 lb=2:     27 shell pairs
          la=4 lb=3:     18 shell pairs
          la=4 lb=4:      6 shell pairs

Checking whether 4 symmetric matrices of dimension 211 fit in memory
:Max Core in MB      =   4096.00
 MB in use           =      5.99
 MB left             =   4090.01
 MB needed           =      0.68
 Data fit in memory  = YES
Calculating Nuclear repulsion               ... done (  0.0 sec) ENN=     99.086296046297 Eh

Diagonalization of the overlap matrix:
Smallest eigenvalue                        ... 2.307e-04
Time for diagonalization                   ...    0.002 sec
Threshold for overlap eigenvalues          ... 1.000e-07
Number of eigenvalues below threshold      ... 0
Time for construction of square roots      ...    0.005 sec
Total time needed                          ...    0.010 sec

-------------------
DFT GRID GENERATION
-------------------

General Integration Accuracy     IntAcc      ... 4.388
Radial Grid Type                 RadialGrid  ... OptM3 with GC (2021)
Angular Grid (max. ang.)         AngularGrid ... 4 (Lebedev-302)
Angular grid pruning method      GridPruning ... 4 (adaptive)
Weight generation scheme         WeightScheme... mBecke (2022)
Basis function cutoff            BFCut       ... 1.0000e-11
Integration weight cutoff        WCut        ... 1.0000e-14
Partially contracted basis set               ... off
Rotationally invariant grid construction     ... off
Angular grids for H and He will be reduced by one unit

Total number of grid points                  ...    19622
Total number of batches                      ...      309
Average number of points per batch           ...       63
Average number of grid points per atom       ...     6541

---------------------
SHARK GRID GENERATION
---------------------

General Integration Accuracy     IntAcc      ... 4.388
Radial Grid Type                 RadialGrid  ... OptM3 with GC (2021)
Angular Grid (max. ang.)         AngularGrid ... 4 (Lebedev-302)
Angular grid pruning method      GridPruning ... 4 (adaptive)
Weight generation scheme         WeightScheme... mBecke (2022)
Basis function cutoff            BFCut       ... 1.0000e-11
Integration weight cutoff        WCut        ... 1.0000e-14
Partially contracted basis set               ... off
Rotationally invariant grid construction     ... off
Angular grids for H and He will be reduced by one unit
Core-polarized basis detected: some atoms will have their core
                               angular grid increased.
Steep s-basis detected: some atoms will have their radial
                        grid points doubled.

Total number of grid points                  ...    44068
Total number of batches                      ...      689
Average number of points per batch           ...       63
Average number of grid points per atom       ...    14689
Grids setup in   0.4 sec
Initializing property integral containers    ... done (  0.0 sec)

SHARK setup successfully completed in   0.6 seconds

Maximum memory used throughout the entire STARTUP-calculation: 59.5 MB


           ************************************************************
           *        Program running with 8 parallel MPI-processes     *
           *              working on a common directory               *
           ************************************************************
-------------------------------------------------------------------------------
                                 ORCA GUESS
                   Start orbitals & Density for SCF / CASSCF
-------------------------------------------------------------------------------

------------
SCF SETTINGS
------------
Hamiltonian:
 Density Functional     Method          .... DFT(GTOs)
  Functional kind                       .... Exchange
  Functional name                       .... Perdew & Wang 91
  Functional family                     .... GGA
  Functional refs                              
    [ 0] J. P. Perdew. In P. Ziesche and H. Eschrig, editors, Proceedings of the 75. WE-Heraeus-Seminar and 21st Annual International Symposium on Electronic Structure of Solids, 11. Berlin, 1991. Akademie Verlag.
    [ 1] J. P. Perdew, J. A. Chevary, S. H. Vosko, K. A. Jackson, M. R. Pederson, D. J. Singh, and C. Fiolhais.,  Phys. Rev. B 46, 6671 (1992), doi: 10.1103/PhysRevB.46.6671
    [ 2] J. P. Perdew, J. A. Chevary, S. H. Vosko, K. A. Jackson, M. R. Pederson, D. J. Singh, and C. Fiolhais.,  Phys. Rev. B 48, 4978 (1993), doi: 10.1103/PhysRevB.48.4978.2
  Functional external parameters        .... 7
    Parameter  0 _a         =  1.964500e-01 : a parameter         
    Parameter  1 _b         =  7.795600e+00 : b parameter         
    Parameter  2 _c         =  2.743000e-01 : c parameter         
    Parameter  3 _d         = -1.508000e-01 : d parameter         
    Parameter  4 _f         =  4.000000e-03 : f parameter         
    Parameter  5 _alpha     =  1.000000e+02 : alpha parameter     
    Parameter  6 _expo      =  4.000000e+00 : exponent            
 Correlation Functional Correlation     .... No Correlation
 Gradients option       PostSCFGGA      .... off


General Settings:
 Integral files         IntName         .... /cluster/projects/nn14654k/ylvaos/basis_set_n_funcs/functionals/gga_x_pw91/PO2/inp/PO2_gga_x_pw91_ccpvqz
 Hartree-Fock type      HFTyp           .... UHF
 Total Charge           Charge          ....    0
 Multiplicity           Mult            ....    2
 Number of Electrons    NEL             ....   31
 Basis Dimension        Dim             ....  169
 Nuclear Repulsion      ENuc            ....     99.0862960463 Eh

Convergence Acceleration:
 AO-DIIS                CNVDIIS         .... on
   Start iteration      DIISMaxIt       ....    12
   Startup error        DIISStart       ....  0.200000
   # of expansion vecs  DIISMaxEq       ....     5
   Bias factor          DIISBfac        ....   1.050
   Max. coefficient     DIISMaxC        ....  10.000
 MO-DIIS                CNVKDIIS        .... off
 Trust-Rad. Augm. Hess. CNVTRAH         .... auto
   Auto Start mean grad. ratio tolernc. ....  1.125000
   Auto Start start iteration           ....    50
   Auto Start num. interpolation iter.  ....    10
   Max. Number of Micro iterations      ....    24
   Max. Number of Macro iterations      .... Maxiter - #DIIS iter
   Number of Davidson start vectors     ....     2
   Converg. threshold    (grad. norm)   ....   1.000e-05
   Grad. Scal. Fac. for Micro threshold ....   0.100
   Minimum threshold for Micro iter.    ....   1.000e-02
   NR start threshold (gradient norm)   ....   1.000e-04
   Initial trust radius                 ....   0.400
   Minimum AH scaling param. (alpha)    ....   1.000
   Maximum AH scaling param. (alpha)    .... 1000.000
   Quad. conv. algorithm                .... NR
   White noise on init. David. guess    .... on
   Maximum white noise                  ....   0.010
   Pseudo random numbers                .... off
   Inactive MOs                         .... canonical
   Orbital update algorithm             .... Taylor
   Preconditioner                       .... Diag
   Full preconditioner red. dimension   ....   250
 SOSCF                 CNVSOSCF           .... on
   Start iteration     SOSCFMaxIt         ....   150
   Startup grad/error  SOSCFStart         ....  0.003300
   Hessian update      SOSCFHessUp        .... L-BFGS
   Autom. constraints  SOSCFAutoConstrain .... off
 Level Shifting         CNVShift        .... on
   Level shift para.    LevelShift      ....    0.2500
   Turn off err/grad.   ShiftErr        ....    0.0010
 Zerner damping         CNVZerner       .... off
 Static damping         CNVDamp         .... on
   Fraction old density DampFac         ....    0.7000
   Max. Damping (<1)    DampMax         ....    0.9800
   Min. Damping (>=0)   DampMin         ....    0.0000
   Turn off err/grad.   DampErr         ....    0.1000

SCF Procedure:
 Maximum # iterations   MaxIter         ....   125
 SCF integral mode      SCFMode         .... Direct
   Integral package                     .... SHARK and LIBINT hybrid scheme
 Reset frequency        DirectResetFreq ....    20
 Integral Threshold     Thresh          ....  2.500e-11 Eh
 Primitive CutOff       TCut            ....  2.500e-12 Eh

Convergence Tolerance:
 Convergence Check Mode ConvCheckMode   .... Total+1el-Energy
 Convergence forced     ConvForced      .... 0
 Energy Change          TolE            ....  1.000e-08 Eh
 1-El. energy change                    ....  1.000e-05 Eh
 Orbital Gradient       TolG            ....  1.000e-05
 Orbital Rotation angle TolX            ....  1.000e-05
 DIIS Error             TolErr          ....  5.000e-07

------------------------------
INITIAL GUESS: MODEL POTENTIAL
------------------------------
Loading Hartree-Fock densities                     ... done
Calculating cut-offs                               ... done
Initializing the effective Hamiltonian             ... done
Setting up the integral package (SHARK)            ... done
Starting the Coulomb interaction                   ... done (   0.0 sec)
Making the grid                                    ... done (   0.0 sec)
Mapping shells                                     ... done
Starting the XC term evaluation                    ... done (   0.0 sec)
  promolecular density results
     # of electrons  =     31.000340816
     EX              =    -38.955341637
     EC              =      0.000000000
     EX+EC           =    -38.955341637
Transforming the Hamiltonian                       ... done (   0.0 sec)
Diagonalizing the Hamiltonian                      ... done (   0.0 sec)
Back transforming the eigenvectors                 ... done (   0.0 sec)
Now organizing SCF variables                       ... done
                      ------------------
                      INITIAL GUESS DONE (   0.1 sec)
                      ------------------
             **** ENERGY FILE WAS UPDATED (/cluster/projects/nn14654k/ylvaos/basis_set_n_funcs/functionals/gga_x_pw91/PO2/inp/PO2_gga_x_pw91_ccpvqz.en.tmp) ****
Finished Guess after   0.2 sec
Maximum memory used throughout the entire GUESS-calculation: 12.5 MB


           ************************************************************
           *        Program running with 8 parallel MPI-processes     *
           *              working on a common directory               *
           ************************************************************

-------------------------------------------------------------------------------------------
                                      ORCA LEAN-SCF
                              memory conserving SCF solver
-------------------------------------------------------------------------------------------

----------------------------------------D-I-I-S--------------------------------------------
Iteration    Energy (Eh)           Delta-E    RMSDP     MaxDP     DIISErr   Damp  Time(sec)
-------------------------------------------------------------------------------------------
               ***  Starting incremental Fock matrix formation  ***
    1    -490.3647043000229928     0.00e+00  4.20e-03  4.15e-02  1.61e-01  0.700   0.5
Warning: op=1 Small HOMO/LUMO gap (   0.060) - skipping pre-diagonalization
         Will do a full diagonalization
    2    -490.5176801542039016    -1.53e-01  1.66e-03  2.10e-02  3.70e-02  0.700   0.5
                               ***Turning on AO-DIIS***
    3    -490.5474490402364722    -2.98e-02  8.06e-04  1.99e-02  1.65e-02  0.700   0.5
    4    -490.5698444736747774    -2.24e-02  1.97e-03  6.35e-02  2.15e-02  0.000   0.5
    5    -490.6335702479275938    -6.37e-02  4.99e-04  1.12e-02  1.55e-02  0.000   0.5
    6    -490.6358554003853101    -2.29e-03  2.26e-04  5.63e-03  5.68e-03  0.000   0.4
                              *** Initializing SOSCF ***
---------------------------------------S-O-S-C-F--------------------------------------
Iteration    Energy (Eh)           Delta-E    RMSDP     MaxDP     MaxGrad    Time(sec)
--------------------------------------------------------------------------------------
    7    -490.6361630036513475    -3.08e-04  1.27e-04  3.84e-03  2.09e-03     0.6
               *** Restarting incremental Fock matrix formation ***
    8    -490.6362073200194232    -4.43e-05  1.53e-04  3.14e-03  1.35e-03     0.5
    9    -490.6361791298198227     2.82e-05  6.94e-05  9.46e-04  2.59e-03     0.4
   10    -490.6362201312776392    -4.10e-05  2.28e-05  4.01e-04  1.50e-04     0.3
   11    -490.6362205340673768    -4.03e-07  1.27e-05  3.95e-04  9.06e-05     0.6
   12    -490.6362206831094568    -1.49e-07  4.49e-06  1.46e-04  1.34e-05     0.3
   13    -490.6362206896170051    -6.51e-09  8.04e-07  1.12e-05  8.86e-06     0.3
                 **** Energy Check signals convergence ****

               *****************************************************
               *                     SUCCESS                       *
               *           SCF CONVERGED AFTER  13 CYCLES          *
               *****************************************************

             **** ENERGY FILE WAS UPDATED (/cluster/projects/nn14654k/ylvaos/basis_set_n_funcs/functionals/gga_x_pw91/PO2/inp/PO2_gga_x_pw91_ccpvqz.en.tmp) ****

----------------
TOTAL SCF ENERGY
----------------

Total Energy       :       -490.63622069143474 Eh          -13350.89031 eV

Components:
Nuclear Repulsion  :         99.08629604629714 Eh            2696.27519 eV
Electronic Energy  :       -589.72251673773189 Eh          -16047.16550 eV
One Electron Energy:       -874.88150305638601 Eh          -23806.73601 eV
Two Electron Energy:        285.15898631865417 Eh            7759.57051 eV

Virial components:
Potential Energy   :       -980.71540866395321 Eh          -26686.62299 eV
Kinetic Energy     :        490.07918797251853 Eh           13335.73268 eV
Virial Ratio       :          2.00113661778053

DFT components:
N(Alpha)           :       16.000021262570 electrons
N(Beta)            :       15.000011126957 electrons
N(Total)           :       31.000032389527 electrons
E(X)               :      -39.132560288142 Eh       
E(C)               :        0.000000000000 Eh       
E(XC)              :      -39.132560288142 Eh       

---------------
SCF CONVERGENCE
---------------

  Last Energy change         ...    6.5075e-09  Tolerance :   1.0000e-08
  Last MAX-Density change    ...    1.1179e-05  Tolerance :   1.0000e-07
  Last RMS-Density change    ...    8.0404e-07  Tolerance :   5.0000e-09
  Last DIIS Error            ...    2.0883e-03  Tolerance :   5.0000e-07
  Last Orbital Gradient      ...    8.8617e-06  Tolerance :   1.0000e-05
  Last Orbital Rotation      ...    2.4510e-05  Tolerance :   1.0000e-05


----------------------
UHF SPIN CONTAMINATION
----------------------

Warning: in a DFT calculation there is little theoretical justification to 
         calculate <S**2> as in Hartree-Fock theory. We will do it anyways
         but you should keep in mind that the values have only limited relevance

Expectation value of <S**2>     :     0.754382
Ideal value S*(S+1) for S=0.5   :     0.750000
Deviation                       :     0.004382

----------------
ORBITAL ENERGIES
----------------
                 SPIN UP ORBITALS
  NO   OCC          E(Eh)            E(eV) 
   0   1.0000     -76.479043     -2081.1006 
   1   1.0000     -18.788389      -511.2580 
   2   1.0000     -18.788381      -511.2578 
   3   1.0000      -6.383796      -173.7119 
   4   1.0000      -4.613221      -125.5321 
   5   1.0000      -4.610409      -125.4556 
   6   1.0000      -4.606626      -125.3527 
   7   1.0000      -0.951544       -25.8928 
   8   1.0000      -0.906566       -24.6689 
   9   1.0000      -0.478271       -13.0144 
  10   1.0000      -0.381739       -10.3876 
  11   1.0000      -0.367488        -9.9999 
  12   1.0000      -0.367433        -9.9984 
  13   1.0000      -0.299112        -8.1392 
  14   1.0000      -0.291625        -7.9355 
  15   1.0000      -0.241477        -6.5709 
  16   0.0000      -0.092790        -2.5249 
  17   0.0000       0.003101         0.0844 
  18   0.0000       0.070814         1.9270 
  19   0.0000       0.105362         2.8670 
  20   0.0000       0.128940         3.5086 
  21   0.0000       0.157626         4.2892 
  22   0.0000       0.196815         5.3556 
  23   0.0000       0.219819         5.9816 
  24   0.0000       0.221618         6.0305 
  25   0.0000       0.308622         8.3980 
  26   0.0000       0.331053         9.0084 

                 SPIN DOWN ORBITALS
  NO   OCC          E(Eh)            E(eV) 
   0   1.0000     -76.477291     -2081.0529 
   1   1.0000     -18.781596      -511.0732 
   2   1.0000     -18.781589      -511.0730 
   3   1.0000      -6.381088      -173.6382 
   4   1.0000      -4.610610      -125.4611 
   5   1.0000      -4.605243      -125.3150 
   6   1.0000      -4.605117      -125.3116 
   7   1.0000      -0.935585       -25.4586 
   8   1.0000      -0.889876       -24.2148 
   9   1.0000      -0.451810       -12.2944 
  10   1.0000      -0.359803        -9.7907 
  11   1.0000      -0.358200        -9.7471 
  12   1.0000      -0.349230        -9.5030 
  13   1.0000      -0.294298        -8.0082 
  14   1.0000      -0.280463        -7.6318 
  15   0.0000      -0.185275        -5.0416 
  16   0.0000      -0.065585        -1.7847 
  17   0.0000       0.020256         0.5512 
  18   0.0000       0.080856         2.2002 
  19   0.0000       0.123055         3.3485 
  20   0.0000       0.136433         3.7125 
  21   0.0000       0.169250         4.6055 
  22   0.0000       0.219299         5.9674 
  23   0.0000       0.236170         6.4265 
  24   0.0000       0.240704         6.5499 
  25   0.0000       0.315409         8.5827 
*Only the first 10 virtual orbitals were printed.

                    ********************************
                    * MULLIKEN POPULATION ANALYSIS *
                    ********************************

--------------------------------------------
MULLIKEN ATOMIC CHARGES AND SPIN POPULATIONS
--------------------------------------------
   0 P :    0.791521    0.621211
   1 O :   -0.395761    0.189395
   2 O :   -0.395761    0.189395
Sum of atomic charges         :   -0.0000000
Sum of atomic spin populations:    1.0000000

-----------------------------------------------------
MULLIKEN REDUCED ORBITAL CHARGES AND SPIN POPULATIONS
-----------------------------------------------------
CHARGE
  0 P s       :     5.471922  s :     5.471922
      pz      :     2.806735  p :     8.134354
      px      :     2.730083
      py      :     2.597537
      dz2     :     0.072278  d :     0.537666
      dxz     :     0.012603
      dyz     :     0.169870
      dx2y2   :     0.118700
      dxy     :     0.164215
      f0      :     0.006308  f :     0.056028
      f+1     :     0.000152
      f-1     :     0.008234
      f+2     :     0.015572
      f-2     :     0.004632
      f+3     :     0.007863
      f-3     :     0.013268
      g0      :     0.001041  g :     0.008509
      g+1     :     0.000137
      g-1     :     0.001700
      g+2     :     0.001422
      g-2     :    -0.000001
      g+3     :     0.001447
      g-3     :     0.001714
      g+4     :     0.000170
      g-4     :     0.000879

  1 O s       :     3.744254  s :     3.744254
      pz      :     1.561822  p :     4.609810
      px      :     1.524907
      py      :     1.523081
      dz2     :     0.005694  d :     0.038148
      dxz     :     0.001842
      dyz     :     0.010246
      dx2y2   :     0.009321
      dxy     :     0.011045
      f0      :     0.000283  f :     0.003412
      f+1     :     0.000007
      f-1     :     0.000745
      f+2     :     0.000647
      f-2     :     0.000401
      f+3     :     0.000751
      f-3     :     0.000577
      g0      :     0.000012  g :     0.000136
      g+1     :     0.000001
      g-1     :     0.000018
      g+2     :     0.000020
      g-2     :     0.000000
      g+3     :     0.000018
      g-3     :     0.000025
      g+4     :     0.000019
      g-4     :     0.000022

  2 O s       :     3.744254  s :     3.744254
      pz      :     1.561822  p :     4.609810
      px      :     1.524907
      py      :     1.523081
      dz2     :     0.005694  d :     0.038148
      dxz     :     0.001842
      dyz     :     0.010246
      dx2y2   :     0.009321
      dxy     :     0.011045
      f0      :     0.000283  f :     0.003412
      f+1     :     0.000007
      f-1     :     0.000745
      f+2     :     0.000647
      f-2     :     0.000401
      f+3     :     0.000751
      f-3     :     0.000577
      g0      :     0.000012  g :     0.000136
      g+1     :     0.000001
      g-1     :     0.000018
      g+2     :     0.000020
      g-2     :     0.000000
      g+3     :     0.000018
      g-3     :     0.000025
      g+4     :     0.000019
      g-4     :     0.000022


SPIN
  0 P s       :     0.423938  s :     0.423938
      pz      :     0.156271  p :     0.169795
      px      :     0.031467
      py      :    -0.017943
      dz2     :     0.018070  d :     0.034102
      dxz     :    -0.004806
      dyz     :    -0.003964
      dx2y2   :     0.025794
      dxy     :    -0.000992
      f0      :     0.000056  f :    -0.005988
      f+1     :    -0.000142
      f-1     :    -0.002964
      f+2     :     0.001872
      f-2     :    -0.000768
      f+3     :    -0.003168
      f-3     :    -0.000874
      g0      :    -0.000034  g :    -0.000635
      g+1     :     0.000009
      g-1     :     0.000200
      g+2     :    -0.000190
      g-2     :     0.000001
      g+3     :     0.000152
      g-3     :     0.000041
      g+4     :    -0.000438
      g-4     :    -0.000376

  1 O s       :    -0.020848  s :    -0.020848
      pz      :     0.181037  p :     0.211376
      px      :    -0.011067
      py      :     0.041406
      dz2     :     0.000078  d :    -0.001306
      dxz     :     0.000052
      dyz     :    -0.001544
      dx2y2   :    -0.000106
      dxy     :     0.000215
      f0      :    -0.000000  f :     0.000163
      f+1     :    -0.000008
      f-1     :    -0.000017
      f+2     :     0.000050
      f-2     :     0.000074
      f+3     :     0.000044
      f-3     :     0.000022
      g0      :     0.000000  g :     0.000010
      g+1     :     0.000000
      g-1     :     0.000001
      g+2     :     0.000001
      g-2     :     0.000000
      g+3     :     0.000002
      g-3     :     0.000004
      g+4     :     0.000001
      g-4     :     0.000001

  2 O s       :    -0.020848  s :    -0.020848
      pz      :     0.181037  p :     0.211376
      px      :    -0.011067
      py      :     0.041406
      dz2     :     0.000078  d :    -0.001306
      dxz     :     0.000052
      dyz     :    -0.001544
      dx2y2   :    -0.000106
      dxy     :     0.000215
      f0      :    -0.000000  f :     0.000163
      f+1     :    -0.000008
      f-1     :    -0.000017
      f+2     :     0.000050
      f-2     :     0.000074
      f+3     :     0.000044
      f-3     :     0.000022
      g0      :     0.000000  g :     0.000010
      g+1     :     0.000000
      g-1     :     0.000001
      g+2     :     0.000001
      g-2     :     0.000000
      g+3     :     0.000002
      g-3     :     0.000004
      g+4     :     0.000001
      g-4     :     0.000001



                     *******************************
                     * LOEWDIN POPULATION ANALYSIS *
                     *******************************

-------------------------------------------
LOEWDIN ATOMIC CHARGES AND SPIN POPULATIONS
-------------------------------------------
   0 P :   -0.287132    0.597239
   1 O :    0.143566    0.201381
   2 O :    0.143566    0.201381

----------------------------------------------------
LOEWDIN REDUCED ORBITAL CHARGES AND SPIN POPULATIONS
----------------------------------------------------
CHARGE
  0 P s       :     5.084185  s :     5.084185
      pz      :     2.879144  p :     8.402461
      px      :     2.716043
      py      :     2.807274
      dz2     :     0.166236  d :     1.282266
      dxz     :     0.019279
      dyz     :     0.405075
      dx2y2   :     0.356406
      dxy     :     0.335270
      f0      :     0.033793  f :     0.409083
      f+1     :     0.000441
      f-1     :     0.120466
      f+2     :     0.077899
      f-2     :     0.051570
      f+3     :     0.046897
      f-3     :     0.078017
      g0      :     0.010034  g :     0.109137
      g+1     :     0.000895
      g-1     :     0.010772
      g+2     :     0.018178
      g-2     :     0.000004
      g+3     :     0.010204
      g-3     :     0.017732
      g+4     :     0.014322
      g-4     :     0.026996

  1 O s       :     3.416829  s :     3.416829
      pz      :     1.432466  p :     4.353945
      px      :     1.379151
      py      :     1.542328
      dz2     :     0.008002  d :     0.073193
      dxz     :     0.001711
      dyz     :     0.027742
      dx2y2   :     0.022630
      dxy     :     0.013107
      f0      :     0.001534  f :     0.012062
      f+1     :     0.000016
      f-1     :     0.001781
      f+2     :     0.003482
      f-2     :     0.000624
      f+3     :     0.001526
      f-3     :     0.003099
      g0      :     0.000020  g :     0.000404
      g+1     :     0.000002
      g-1     :     0.000090
      g+2     :     0.000037
      g-2     :     0.000001
      g+3     :     0.000026
      g-3     :     0.000109
      g+4     :     0.000085
      g-4     :     0.000035

  2 O s       :     3.416829  s :     3.416829
      pz      :     1.432466  p :     4.353945
      px      :     1.379151
      py      :     1.542328
      dz2     :     0.008002  d :     0.073193
      dxz     :     0.001711
      dyz     :     0.027742
      dx2y2   :     0.022630
      dxy     :     0.013107
      f0      :     0.001534  f :     0.012062
      f+1     :     0.000016
      f-1     :     0.001781
      f+2     :     0.003482
      f-2     :     0.000624
      f+3     :     0.001526
      f-3     :     0.003099
      g0      :     0.000020  g :     0.000404
      g+1     :     0.000002
      g-1     :     0.000090
      g+2     :     0.000037
      g-2     :     0.000001
      g+3     :     0.000026
      g-3     :     0.000109
      g+4     :     0.000085
      g-4     :     0.000035


SPIN
  0 P s       :     0.220937  s :     0.220937
      pz      :     0.179639  p :     0.195259
      px      :     0.027429
      py      :    -0.011809
      dz2     :     0.071162  d :     0.173494
      dxz     :    -0.004673
      dyz     :    -0.003394
      dx2y2   :     0.111334
      dxy     :    -0.000934
      f0      :     0.000106  f :    -0.003283
      f+1     :    -0.000136
      f-1     :    -0.001222
      f+2     :     0.001557
      f-2     :    -0.000595
      f+3     :    -0.003764
      f-3     :     0.000772
      g0      :     0.002079  g :     0.010832
      g+1     :    -0.000011
      g-1     :     0.000414
      g+2     :     0.004522
      g-2     :     0.000002
      g+3     :    -0.000085
      g-3     :     0.000186
      g+4     :     0.003785
      g-4     :    -0.000061

  1 O s       :     0.016566  s :     0.016566
      pz      :     0.146690  p :     0.179371
      px      :    -0.009354
      py      :     0.042035
      dz2     :     0.001018  d :     0.004734
      dxz     :     0.000131
      dyz     :     0.003209
      dx2y2   :    -0.000127
      dxy     :     0.000502
      f0      :    -0.000012  f :     0.000687
      f+1     :    -0.000006
      f-1     :     0.000429
      f+2     :     0.000085
      f-2     :     0.000072
      f+3     :     0.000065
      f-3     :     0.000053
      g0      :     0.000004  g :     0.000022
      g+1     :     0.000000
      g-1     :     0.000004
      g+2     :     0.000009
      g-2     :     0.000000
      g+3     :     0.000002
      g-3     :    -0.000000
      g+4     :     0.000002
      g-4     :     0.000001

  2 O s       :     0.016566  s :     0.016566
      pz      :     0.146690  p :     0.179371
      px      :    -0.009354
      py      :     0.042035
      dz2     :     0.001018  d :     0.004734
      dxz     :     0.000131
      dyz     :     0.003209
      dx2y2   :    -0.000127
      dxy     :     0.000502
      f0      :    -0.000012  f :     0.000687
      f+1     :    -0.000006
      f-1     :     0.000429
      f+2     :     0.000085
      f-2     :     0.000072
      f+3     :     0.000065
      f-3     :     0.000053
      g0      :     0.000004  g :     0.000022
      g+1     :     0.000000
      g-1     :     0.000004
      g+2     :     0.000009
      g-2     :     0.000000
      g+3     :     0.000002
      g-3     :    -0.000000
      g+4     :     0.000002
      g-4     :     0.000001



                      *****************************
                      * MAYER POPULATION ANALYSIS *
                      *****************************

  NA   - Mulliken gross atomic population
  ZA   - Total nuclear charge
  QA   - Mulliken gross atomic charge
  VA   - Mayer's total valence
  BVA  - Mayer's bonded valence
  FA   - Mayer's free valence

  ATOM       NA         ZA         QA         VA         BVA        FA
  0 P     14.2085    15.0000     0.7915     4.6357     4.1985     0.4372
  1 O      8.3958     8.0000    -0.3958     2.2870     2.2457     0.0412
  2 O      8.3958     8.0000    -0.3958     2.2870     2.2457     0.0412

  Mayer bond orders larger than 0.100000
B(  0-P ,  1-O ) :   2.0993 B(  0-P ,  2-O ) :   2.0993 B(  1-O ,  2-O ) :   0.1465 


-------
TIMINGS
-------

Total SCF time: 0 days 0 hours 0 min 6 sec 

Total time                  ....       6.229 sec
Sum of individual times     ....       5.959 sec  ( 95.7%)

SCF preparation             ....       0.085 sec  (  1.4%)
Fock matrix formation       ....       4.711 sec  ( 75.6%)
  Startup                   ....       0.034 sec  (  0.7% of F)
  Coulomb formation         ....       3.351 sec  ( 71.1% of F)
  XC integration            ....       0.699 sec  ( 14.8% of F)
    XC Preparation          ....       0.000 sec  (  0.0% of XC)
    Basis function eval.    ....       0.056 sec  (  8.1% of XC)
    Density eval.           ....       0.075 sec  ( 10.7% of XC)
    XC-Functional eval.     ....       0.015 sec  (  2.1% of XC)
    XC-Potential eval.      ....       0.197 sec  ( 28.1% of XC)
Diagonalization             ....       0.000 sec  (  0.0%)
Density matrix formation    ....       0.301 sec  (  4.8%)
Total Energy calculation    ....       0.044 sec  (  0.7%)
Population analysis         ....       0.026 sec  (  0.4%)
Orbital Transformation      ....       0.063 sec  (  1.0%)
Orbital Orthonormalization  ....       0.000 sec  (  0.0%)
DIIS solution               ....       0.541 sec  (  8.7%)
SOSCF solution              ....       0.187 sec  (  3.0%)
Finished LeanSCF after   6.3 sec

Maximum memory used throughout the entire LEANSCF-calculation: 22.9 MB


           ************************************************************
           *        Program running with 8 parallel MPI-processes     *
           *              working on a common directory               *
           ************************************************************

------------------------------------------------------------------------------
                         ORCA PROPERTY INTEGRAL CALCULATIONS
------------------------------------------------------------------------------

GBWName                                   ... /cluster/projects/nn14654k/ylvaos/basis_set_n_funcs/functionals/gga_x_pw91/PO2/inp/PO2_gga_x_pw91_ccpvqz.gbw
Number of atoms                           ...      3
Number of basis functions                 ...    211
Max core memory                           ...   4096 MB

Dipole integrals                          ... YES
Quadrupole integrals                      ... YES
Linear momentum integrals                 ...  NO
Angular momentum integrals                ...  NO
Higher moments length integrals           ...  NO
Higher moments velocity integrals         ...  NO
Kinetic energy integrals                  ...  NO
GIAO right hand sides                     ...  NO
GIAO dipole derivative integrals          ...  NO
SOC integrals                             ...  NO
EPR diamagnetic integrals (GIAO)          ...  NO
EPR gauge integrals                       ...  NO
Field gradient integrals                  ...  NO (   0 nuclei)
Spin-dipole/Fermi contact integrals       ...  NO (   0 nuclei)
Contact density integrals                 ...  NO (   0 nuclei)
Nucleus-orbit integrals                   ...  NO (   0 nuclei)
Geometric perturbations                   ...  NO (   3 nuclei)

Choice of electric origin   ... Center of mass
Position of electric origin ... (  0.0000,  0.0000,  0.0084) 
Choice of magnetic origin   ... GIAO
Position of magnetic origin ... (  0.0000,  0.0000,  0.0000) 

Calculating integrals                     ... Electric Dipole (Length)     done (  0.0 sec)
Calculating integrals                     ... Electric Quadrupole (Length) done (  0.0 sec)

Property integrals calculated in   0.0 sec

Maximum memory used throughout the entire PROPINT-calculation: 13.5 MB
------------------------------------------------------------------------------
                           ORCA ORBITAL LOCALIZATION
------------------------------------------------------------------------------

Input orbitals are from                  ... /cluster/projects/nn14654k/ylvaos/basis_set_n_funcs/functionals/gga_x_pw91/PO2/inp/PO2_gga_x_pw91_ccpvqz.gbw
Output orbitals are to                   ... /cluster/projects/nn14654k/ylvaos/basis_set_n_funcs/functionals/gga_x_pw91/PO2/inp/PO2_gga_x_pw91_ccpvqz.loc
Max. number of iterations                ... 128
Localizations seeded randomly            ... on
Convergence tolerance                    ... 1.000e-06
Threshold for strong local MOs           ... 9.500e-01
Threshold for bond MOs                   ... 8.500e-01
Operator                                 ... 0
Orbital range for localization           ... 4 to 15
Localization criterion                   ... NEW-BOYS
Doing the dipole integrals               ... o.k.
Initial value of the localization sum :    44.214174
ITERATION   0 : L=   49.3153662815 DL=  5.10e+00 (AVERGE_DL)=    0.2780122067 
ITERATION   1 : L=   50.0460858714 DL=  7.31e-01 (AVERGE_DL)=    0.1052212381 
ITERATION   2 : L=   50.0865351920 DL=  4.04e-02 (AVERGE_DL)=    0.0247561809 
ITERATION   3 : L=   50.0964118133 DL=  9.88e-03 (AVERGE_DL)=    0.0122329791 
ITERATION   4 : L=   50.0997255055 DL=  3.31e-03 (AVERGE_DL)=    0.0070857221 
ITERATION   5 : L=   50.1013031103 DL=  1.58e-03 (AVERGE_DL)=    0.0048890800 
ITERATION   6 : L=   50.1030377923 DL=  1.73e-03 (AVERGE_DL)=    0.0051267006 
ITERATION   7 : L=   50.1064524996 DL=  3.41e-03 (AVERGE_DL)=    0.0071929125 
ITERATION   8 : L=   50.1140476906 DL=  7.60e-03 (AVERGE_DL)=    0.0107274718 
ITERATION   9 : L=   50.1299938137 DL=  1.59e-02 (AVERGE_DL)=    0.0155437423 
ITERATION  10 : L=   50.1573310841 DL=  2.73e-02 (AVERGE_DL)=    0.0203519303 
ITERATION  11 : L=   50.1917421623 DL=  3.44e-02 (AVERGE_DL)=    0.0228337464 
ITERATION  12 : L=   50.2263470809 DL=  3.46e-02 (AVERGE_DL)=    0.0228979682 
ITERATION  13 : L=   50.2607958957 DL=  3.44e-02 (AVERGE_DL)=    0.0228462631 
ITERATION  14 : L=   50.2928060037 DL=  3.20e-02 (AVERGE_DL)=    0.0220227527 
ITERATION  15 : L=   50.3152357648 DL=  2.24e-02 (AVERGE_DL)=    0.0184348818 
ITERATION  16 : L=   50.3266685016 DL=  1.14e-02 (AVERGE_DL)=    0.0131614317 
ITERATION  17 : L=   50.3312825558 DL=  4.61e-03 (AVERGE_DL)=    0.0083612148 
ITERATION  18 : L=   50.3329062222 DL=  1.62e-03 (AVERGE_DL)=    0.0049599400 
ITERATION  19 : L=   50.3334376704 DL=  5.31e-04 (AVERGE_DL)=    0.0028376481 
ITERATION  20 : L=   50.3336046375 DL=  1.67e-04 (AVERGE_DL)=    0.0015905355 
ITERATION  21 : L=   50.3336555661 DL=  5.09e-05 (AVERGE_DL)=    0.0008784337 
ITERATION  22 : L=   50.3336706942 DL=  1.51e-05 (AVERGE_DL)=    0.0004787622 
ITERATION  23 : L=   50.3336750744 DL=  4.38e-06 (AVERGE_DL)=    0.0002576174 
ITERATION  24 : L=   50.3336763116 DL=  1.24e-06 (AVERGE_DL)=    0.0001369140 
ITERATION  25 : L=   50.3336766520 DL=  3.40e-07 (AVERGE_DL)=    0.0000718188 
LOCALIZATION SUM CONVERGED


--------------------------------------------------------------------------------
                    LOCALIZED MOLECULAR ORBITAL COMPOSITIONS
--------------------------------------------------------------------------------

The Mulliken populations for each LMO on each atom are computed
The LMO`s will be ordered according to atom index and type
  (A) Strongly localized MO`s have populations of >=0.950 on one atom
  (B) Two center bond orbitals have populations of >=0.850 on two atoms
  (C) Other MO`s are considered to be `delocalized`

FOUND  -   4 strongly local MO`s
       -   8 two center bond MO`s
       -   0 significantly delocalized MO`s

Rather strongly localized orbitals:
MO   7:   0P  -   1.093824
MO   6:   0P  -   0.999831
MO   5:   0P  -   0.994895
MO   4:   0P  -   0.999831
Bond-like localized orbitals:
MO  15:   2O  -   0.901017  and   0P  -   0.101796
MO  14:   2O  -   0.759537  and   0P  -   0.239182
MO  13:   2O  -   0.759537  and   0P  -   0.239182
MO  12:   2O  -   0.918939  and   0P  -   0.080892
MO  11:   1O  -   0.901017  and   0P  -   0.101796
MO  10:   1O  -   0.759537  and   0P  -   0.239184
MO   9:   1O  -   0.759537  and   0P  -   0.239178
MO   8:   1O  -   0.918939  and   0P  -   0.080893
Localized MO's were stored in: /cluster/projects/nn14654k/ylvaos/basis_set_n_funcs/functionals/gga_x_pw91/PO2/inp/PO2_gga_x_pw91_ccpvqz.loc
------------------------------------------------------------------------------
                           ORCA ORBITAL LOCALIZATION
------------------------------------------------------------------------------

Input orbitals are from                  ... /cluster/projects/nn14654k/ylvaos/basis_set_n_funcs/functionals/gga_x_pw91/PO2/inp/PO2_gga_x_pw91_ccpvqz.loc
Output orbitals are to                   ... /cluster/projects/nn14654k/ylvaos/basis_set_n_funcs/functionals/gga_x_pw91/PO2/inp/PO2_gga_x_pw91_ccpvqz.loc
Max. number of iterations                ... 128
Localizations seeded randomly            ... on
Convergence tolerance                    ... 1.000e-06
Threshold for strong local MOs           ... 9.500e-01
Threshold for bond MOs                   ... 8.500e-01
Operator                                 ... 1
Orbital range for localization           ... 4 to 14
Localization criterion                   ... NEW-BOYS
Doing the dipole integrals               ... o.k.
Initial value of the localization sum :    29.432515
ITERATION   0 : L=   39.5136924939 DL=  1.01e+01 (AVERGE_DL)=    0.4281286444 
ITERATION   1 : L=   42.5764422555 DL=  3.06e+00 (AVERGE_DL)=    0.2359795739 
ITERATION   2 : L=   43.1079126549 DL=  5.31e-01 (AVERGE_DL)=    0.0983010589 
ITERATION   3 : L=   43.1540260057 DL=  4.61e-02 (AVERGE_DL)=    0.0289555618 
ITERATION   4 : L=   43.1600054062 DL=  5.98e-03 (AVERGE_DL)=    0.0104267143 
ITERATION   5 : L=   43.1604016461 DL=  3.96e-04 (AVERGE_DL)=    0.0026840941 
ITERATION   6 : L=   43.1604369820 DL=  3.53e-05 (AVERGE_DL)=    0.0008015426 
ITERATION   7 : L=   43.1604474266 DL=  1.04e-05 (AVERGE_DL)=    0.0004357776 
ITERATION   8 : L=   43.1604546850 DL=  7.26e-06 (AVERGE_DL)=    0.0003632795 
ITERATION   9 : L=   43.1604601022 DL=  5.42e-06 (AVERGE_DL)=    0.0003138373 
ITERATION  10 : L=   43.1604641332 DL=  4.03e-06 (AVERGE_DL)=    0.0002707242 
ITERATION  11 : L=   43.1604671239 DL=  2.99e-06 (AVERGE_DL)=    0.0002331854 
ITERATION  12 : L=   43.1604693426 DL=  2.22e-06 (AVERGE_DL)=    0.0002008512 
ITERATION  13 : L=   43.1604709898 DL=  1.65e-06 (AVERGE_DL)=    0.0001730571 
ITERATION  14 : L=   43.1604722130 DL=  1.22e-06 (AVERGE_DL)=    0.0001491311 
ITERATION  15 : L=   43.1604731218 DL=  9.09e-07 (AVERGE_DL)=    0.0001285450 
LOCALIZATION SUM CONVERGED


--------------------------------------------------------------------------------
                    LOCALIZED MOLECULAR ORBITAL COMPOSITIONS
--------------------------------------------------------------------------------

The Mulliken populations for each LMO on each atom are computed
The LMO`s will be ordered according to atom index and type
  (A) Strongly localized MO`s have populations of >=0.950 on one atom
  (B) Two center bond orbitals have populations of >=0.850 on two atoms
  (C) Other MO`s are considered to be `delocalized`

FOUND  -   3 strongly local MO`s
       -   8 two center bond MO`s
       -   0 significantly delocalized MO`s

Rather strongly localized orbitals:
MO   6:   0P  -   0.999962
MO   5:   0P  -   0.997262
MO   4:   0P  -   0.997262
Bond-like localized orbitals:
MO  14:   2O  -   0.606111  and   0P  -   0.387921
MO  13:   2O  -   0.784883  and   0P  -   0.214558
MO  12:   2O  -   0.785427  and   0P  -   0.214007
MO  11:   2O  -   0.916801  and   0P  -   0.081146
MO  10:   1O  -   0.606118  and   0P  -   0.387913
MO   9:   1O  -   0.785062  and   0P  -   0.214381
MO   8:   1O  -   0.785240  and   0P  -   0.214192
MO   7:   1O  -   0.916801  and   0P  -   0.081146
Localized MO's were stored in: /cluster/projects/nn14654k/ylvaos/basis_set_n_funcs/functionals/gga_x_pw91/PO2/inp/PO2_gga_x_pw91_ccpvqz.loc

-------------------------   --------------------
FINAL SINGLE POINT ENERGY      -490.636220691435
-------------------------   --------------------



           ************************************************************
           *        Program running with 8 parallel MPI-processes     *
           *              working on a common directory               *
           ************************************************************

------------------------------------------------------------------------------
                              ORCA PROPERTY CALCULATIONS
------------------------------------------------------------------------------

GBWName                                 ... /cluster/projects/nn14654k/ylvaos/basis_set_n_funcs/functionals/gga_x_pw91/PO2/inp/PO2_gga_x_pw91_ccpvqz.gbw
Number of atoms                         ...      3
Number of basis functions               ...    211
Max core memory                         ...   4096 MB

Electric properties:
Dipole moment                           ... YES
Quadrupole moment                       ... YES
Static polarizability (Dipole/Dipole)   ...  NO
Static polarizability (Dipole/Quad.)    ...  NO
Static polarizability (Quad./Quad.)     ...  NO
Static polarizability (Velocity)        ...  NO
Static hyperpolarizability              ...  NO

Atomic electric properties:
Dipole moment                           ...  NO
Quadrupole moment                       ...  NO
Static polarizability                   ...  NO

Choice of electric origin               ... Center of mass
Position of electric origin             ...     0.000000     0.000000     0.008437

General magnetic properties:
Magnetizability                         ...  NO

EPR properties:
g-Tensor (aka g-matrix)                 ...  NO
Zero-Field splitting spin-orbit         ...  NO
Zero-field splitting spin-spin          ...  NO
Hyperfine couplings                     ...  NO (   0 nuclei)
Quadrupole couplings                    ...  NO (   0 nuclei)
Contact density                         ...  NO (   0 nuclei)

NMR properties:
Chemical shifts                         ...  NO (   0 nuclei)
Spin-rotation constants                 ...  NO (   0 nuclei)
Spin-spin couplings                     ...  NO (   0 nuclei,    0 pairs)

Choice of magnetic origin               ... GIAO
Position of magnetic origin             ...     0.000000     0.000000     0.000000

Properties with geometric perturbations:
SCF Hessian                             ...  NO
IR spectrum                             ...  NO
VCD spectrum                            ...  NO
X-ray spectroscopy properties:
SCF XES/XAS/RIXS spectra                ...  NO

SCF SOC stabilization energy            ...  NO
Diagonal Born-Oppenheimer correction    ...  NO

-------------
DIPOLE MOMENT
-------------

Method             : SCF
Type of density    : Electron Density
Multiplicity       :   2
Irrep              :   0
Energy             :  -490.6362206914347439 Eh
Basis              : AO
                                X                 Y                 Z
Electronic contribution:     -0.000000000      -0.000000001       0.753071813
Nuclear contribution   :      0.000000000       0.000000000      -0.261362976
                        -----------------------------------------
Total Dipole Moment    :     -0.000000000      -0.000000001       0.491708836
                        -----------------------------------------
Magnitude (a.u.)       :      0.491708836
Magnitude (Debye)      :      1.249824536



--------------------
Rotational spectrum 
--------------------
 
Rotational constants in cm-1:             3.442444             0.286393             0.264396 
Rotational constants in MHz :        103201.869580          8585.841533          7926.407020 

Dipole components along the rotational axes: 
x,y,z [a.u.] :    -0.000000     0.491709    -0.000000 
x,y,z [Debye]:    -0.000000     1.249825    -0.000000 

 

Dipole moment calculation done in   0.0 sec 

-----------------
QUADRUPOLE MOMENT
-----------------

Method             : SCF
Type of density    : Electron Density
Multiplicity       :   2
Irrep              :   0
Energy             :  -490.6362206914347439 Eh
Basis              : AO

                XX              YY              ZZ              XY              XZ              YZ
  NUC        0.000000000   105.106420135     8.604299986     0.000000000     0.000000000     0.000000000
  EL       -15.823316216  -126.364919248   -25.153456612     0.000000000    -0.000000000    -0.000000006
  TOT      -15.823316216   -21.258499113   -16.549156626     0.000000000    -0.000000000    -0.000000006 (a.u.)
           -21.282901468   -28.593408348   -22.259181643     0.000000000    -0.000000000    -0.000000008 (Buckingham)

diagonalized tensor:
           -21.258499113   -16.549156626   -15.823316216 (a.u.)
           -28.593408348   -22.259181643   -21.282901468 (Buckingham)
           -13.644733585     5.357946530     8.286787055 (traceless form in Buckingham)

            -0.000000000    -0.000000000     1.000000000
             1.000000000     0.000000001     0.000000000
             0.000000001    -1.000000000    -0.000000000
        
Isotropic quadrupole :   -17.876990652

Quadrupole moment calculation done in   0.0 sec (  0.0 sec for integrals)

Maximum memory used throughout the entire PROP-calculation: 8.1 MB

--------------------------------
SUGGESTED CITATIONS FOR THIS RUN
--------------------------------

Below you find a list of papers that are relevant to this ORCA run
We neither can nor want to force you to cite these papers, but we appreciate if you do
You receive ORCA, which is the product of decades of hard work by many enthusiastic individuals, for free
The only thing we kindly ask in return is that you cite our papers,
We deeply appreciate it, if you show your appreciation for ORCA by not just citing the generic ORCA reference.

Please note that relegating all ORCA citations to the supporting information does *not* help us.
SI sections are not indexed - citations you put there will not count into any citation statistics
But we need these citations in order to attract the funding resources that allow us to do what we are doing

Therefore, if you are a happy ORCA user, please consider citing a few of the papers listed below in the main body of your paper

In addition to the list printed below, the program has created the file /cluster/projects/nn14654k/ylvaos/basis_set_n_funcs/functionals/gga_x_pw91/PO2/inp/PO2_gga_x_pw91_ccpvqz.bibtex that contains the list in bibtex format
You can import this file easily into all common literature databanks and citation aid programs

It goes without saying that in many instances, there are alternative algorithms to achieve similar
results as the ones you have gotten from ORCA. It is, of course, also the case that in some instances
ORCA just re-implements algorithms worked out by others. We are fully aware of that and we are also
fully appreciative of our colleagues work. Hence this citation list should not be read as indicating
that the listed papers, which are focused on our own work, are the only ones worth citing. It simply
meant to make it easier for users to cite ORCA specific papers. It is not a substitute for doing your
own literature research and citing the relevant literature in a scientifically appropriate manner.

List of essential papers. We consider these as the minimum necessary citations

  1. Neese, F.
     Software update: the ORCA program system, version 6.0
     WIRES Comput. Molec. Sci. 2025 15(1), e70019
     doi.org/10.1002/wcms.70019

List of papers to cite with high priority. The work reported in these papers was absolutely
necessary for this run to complete.
Our perspective: the developers of density functionals and basis sets usually get cited in chemistry papers
Good! But without the algorithms to do something with them, the functionals or basis sets would not do anything.
Hence, in our opinion, the algorithm design and method developments papers are equally worthy of getting cited

  1. Lehtola, S.; Steigemann, C.; Oliveira, M.; Marques, M.
     Recent developments in Libxc - A comprehensive library of functionals for density functional theory
     Software X 2018 7 , 
     doi.org/10.1016/j.softx.2017.11.002
  2. Neese, F.
     The SHARK Integral Generation and Digestion System
     J. Comp. Chem. 2022 44(3), 381
     doi.org/10.1002/jcc.26942

List of suggested additional citations. These are papers that are important in the 'surrounding' of 
of this run, or papers that preceded the highly important papers. If you like your results we are grateful for a citation.

  1. Neese, F.
     The ORCA program system
     WIRES Comput. Molec. Sci. 2012 2(1), 73-78
     doi.org/10.1002/wcms.81
  2. Neese, F.
     Software update: the ORCA program system, version 4.0
     WIRES Comput. Molec. Sci. 2018 8(1), 1-6
     doi.org/10.1002/wcms.1327
  3. Neese, F.; Wennmohs, F.; Becker, U.; Riplinger, C.
     The ORCA quantum chemistry program package
     J. Chem. Phys. 2020 152(22), 224108
     doi.org/10.1063/5.0004608
  4. Neese, F.
     Software update: The ORCA program system—Version 5.0
     WIRES Comput. Molec. Sci. 2022 12(1), e1606
     doi.org/10.1002/wcms.1606

List of optional additional citations

  1. Neese, F.
     Approximate second-order SCF convergence for spin unrestricted wavefunctions
     Chem. Phys. Lett. 2000 325(1-3), 93-98
     doi.org/10.1016/s0009-2614(00)00662-x

Timings for individual modules:

Sum of individual times          ...        8.324 sec (=   0.139 min)
Startup calculation              ...        0.931 sec (=   0.016 min)  11.2 %
SCF iterations                   ...        6.857 sec (=   0.114 min)  82.4 %
Property integrals               ...        0.260 sec (=   0.004 min)   3.1 %
Property calculations            ...        0.264 sec (=   0.004 min)   3.2 %
Orbital localization             ...        0.012 sec (=   0.000 min)   0.1 %
                             ****ORCA TERMINATED NORMALLY****
TOTAL RUN TIME: 0 days 0 hours 0 minutes 9 seconds 417 msec
