
                                 *****************
                                 * O   R   C   A *
                                 *****************

                                            #,                                       
                                            ###                                      
                                            ####                                     
                                            #####                                    
                                            ######                                   
                                           ########,                                 
                                     ,,################,,,,,                         
                               ,,#################################,,                 
                          ,,##########################################,,             
                       ,#########################################, ''#####,          
                    ,#############################################,,   '####,        
                  ,##################################################,,,,####,       
                ,###########''''           ''''###############################       
              ,#####''   ,,,,##########,,,,          '''####'''          '####       
            ,##' ,,,,###########################,,,                        '##       
           ' ,,###''''                  '''############,,,                           
         ,,##''                                '''############,,,,        ,,,,,,###''
      ,#''                                            '''#######################'''  
     '                                                          ''''####''''         
             ,#######,   #######,   ,#######,      ##                                
            ,#'     '#,  ##    ##  ,#'     '#,    #''#        ,####,    ,#,          
            ##       ##  ##   ,#'  ##            #'  '#       #'       ,# #          
            ##       ##  #######   ##           ,######,      #####,      #          
            '#,     ,#'  ##    ##  '#,     ,#' ,#      #,     #,   #      #          
             '#######'   ##     ##  '#######'  #'      '#     '####' #    #          



                #########################################################
                #                        -***-                          #
                #          Department of theory and spectroscopy        #
                #                                                       #
                #                      Frank Neese                      #
                #                                                       #
                #     Directorship, Architecture, Infrastructure        #
                #                    SHARK, DRIVERS                     #
                #        Core code/Algorithms in most modules           #
                #                                                       #
                #        Max Planck Institute fuer Kohlenforschung      #
                #                Kaiser Wilhelm Platz 1                 #
                #                 D-45470 Muelheim/Ruhr                 #
                #                      Germany                          #
                #                                                       #
                #                  All rights reserved                  #
                #                        -***-                          #
                #########################################################


                         Program Version 6.1.1  -  RELEASE   -
                                (GIT: $487d211c$)
                          ($2025-11-21 10:33:24 +0100$)


 With contributions from (in alphabetic order):
[Max-Planck-Institut fuer Kohlenforschung]                               
  Daniel Aravena         : Magnetic Suceptibility                        
  Michael Atanasov       : Ab Initio Ligand Field Theory (pilot matlab implementation)
  Alexander A. Auer      : GIAO ZORA, VPT2 properties, NMR spectrum      
  Ute Becker             : All parallelization in ORCA, NUMFREQ, NUMCALC 
  Giovanni Bistoni       : ED, misc. LED, open-shell LED, HFLD           
  Dmytro Bykov           : pre 5.0 version of the SCF Hessian            
  Marcos Casanova-Páez   : Triplet and SCS-CIS(D). UHF-(DLPNO)-IP/EA/STEOM-CCSD. UHF-CVS-IP/STEOM-CCSD   
  Vijay G. Chilkuri      : MRCI spin determinant printing, contributions to CSF-ICE 
  Pauline Colinet        : FMM embedding                                 
  Dipayan Datta          : RHF DLPNO-CCSD density                        
  Achintya Kumar Dutta   : EOM-CC, STEOM-CC                              
  Nicolas Foglia         : Exact transition moments, OPA infrastructure, MCD improvements    
  Dmitry Ganyushin       : Spin-Orbit,Spin-Spin,Magnetic field MRCI      
  Miquel Garcia-Rates    : C-PCM and meta-GGA Hessian, CCSD/C-PCM, Gaussian charge scheme 
  Tiago L. C. Gouveia    : GS-ROHF, GS-ROCIS                             
  Yang Guo               : DLPNO-NEVPT2, F12-NEVPT2, CIM, IAO-localization        
  Andreas Hansen         : Spin unrestricted coupled pair/coupled cluster methods 
  Ingolf Harden          : AUTO-CI MPn and infrastructure                
  Benjamin Helmich-Paris : MC-RPA, TRAH-(SCF,CASSCF), AVAS, COSX integrals, SCF dyn. polar., MC-PDFT, srDFT 
  Lee Huntington         : MR-EOM, pCC                                   
  Robert Izsak           : Overlap fitted RIJCOSX, COSX-SCS-MP3, EOM     
  Riya Kayal             : Wick's Theorem for AUTO-CI, AUTO-CI UHF-CCSDT 
  Emily Kempfer          : AUTO-CI RHF CISDT and CCSDT, approximate NEVPT4
  Christian Kollmar      : KDIIS, OOCD, Brueckner-CCSD(T), CCSD density, CASPT2, CASPT2-K, improved NEVPT2 
  Axel Koslowski         : Symmetry handling                             
  Simone Kossmann        : meta-GGA functionals, TD-DFT gradient, OOMP2, (MP2 Hessian; deprecated post 5.0) 
  Lucas Lang             : DCDCAS, Hyperfine gauge corrections, ICE-SOC+SSC
  Marvin Lechner         : AUTO-CI (C++ implementation), FIC-MRCC        
  Spencer Leger          : CASSCF response                               
  Dagmar Lenk            : GEPOL surface, SMD, ORCA-2-JSON               
  Dimitrios Liakos       : Extrapolation schemes; Compound Job, Property file
  Dimitrios Manganas     : Further ROCIS development; embedding schemes. LFT, Crystal Embedding 
  Dimitrios Pantazis     : SARC Basis sets                               
  Anastasios Papadopoulos: AUTO-CI, single reference methods and gradients 
  Taras Petrenko         : pre 6.0 DFT Hessian and TD-DFT gradient,  ECA, NRVS 
  Petra Pikulova         : Analytic Raman intensities                    
  Peter Pinski           : DLPNO-MP2, DLPNO-MP2 Gradient                 
  Shashank Vittal Rao    : ES-AILFT, MagRelax                            
  Christoph Reimann      : Effective Core Potentials                     
  Marius Retegan         : Local ZFS, SOC                                
  Christoph Riplinger    : Optimizer, TS searches, QM/MM, DLPNO-CCSD(T), (RO)-DLPNO pert. Triples 
  Michael Roemelt        : Original ROCIS implementation, recursive CI coupling coefficients
  Masaaki Saitow         : Open-shell DLPNO-CCSD energy and density      
  Barbara Sandhoefer     : DKH picture change effects                    
  Yorick L. A. Schmerwitz: GMF and freeze-and-release deltaSCF, NEB S-IDPP initial path                    
  Kantharuban Sivalingam : CASSCF convergence/infrastructure, NEVPT2, NEVPT3, NEVPT4(SD), FIC-MRCI and CEPA variants
  Bernardo de Souza      : ESD, SOC TD-DFT                               
  Georgi L. Stoychev     : AutoAux, RI-MP2 NMR, DLPNO-MP2 response, X2C  
  Van Anh Tran           : RI-MP2 g-tensors                              
  Willem Van den Heuvel  : Paramagnetic NMR                              
  Zikuan Wang            : NOTCH, Electric field optimization            
  Frank Wennmohs         : Technical directorship and infrastructure     
  Hang Xu                : AUTO-CI-Response properties                   
                                                                         
[FACCTs GmbH]                                                            
  Markus Bursch, Nicolas Foglia, Miquel Garcia-Rates, Ingolf Harden, Hagen Neugebauer, Anastasios Papadopoulos, 
  Christoph Riplinger, Bernardo de Souza, Georgi L. Stoychev                                                    
                                                                 
  APM, various basis sets, CI-OPT, improved COSX, DLPNO-Multilevel,           
  DOCKER, DRACO, updates on ESD, Fragmentator, GOAT, IRC, LR-CPCM, L-BFGS, MBIS, meta-GGA TD-DFT gradient, ML-optimized integration grids, 
  MM, NACMEs, nearIR, NEB, NEB-TS, NL-DFT gradient (VV10), 2- and 3-layer-ONIOM, interface openCOSMO-RS, QMMM,   
  Crystal-QMMM, RESP, rigid body optimization, SF, symmetry and pop. for TD-DFT, various functionals, SOLVATOR                                   
                                                                         
[Other institutions]                                                     
  V. Asgeirsson          : NEB                                           
  Christoph Bannwarth    : sTDA-DFT, sTD-DFT, PBEh-3c, B97-3c, D3        
  Giovanni Bistoni       : ETS/NOCV, ADLD/ADEX, COVALED                  
  Martin Brehm           : Molecular dynamics                            
  Ronald Cardenas        : ETS/NOCV                                      
  Martina Colucci        : COVALED                                       
  Sebastian Ehlert       : rSCAN, r2SCAN, r2SCAN-3c, D4, dhf basis sets  
  Marvin Friede          : D4 for Fr, Ra, Ac-Lr                          
  Lars Goerigk           : TD-DFT with DH, B97 family of functionals     
  Stefan Grimme          : VdW corrections, initial TS optimization, DFT functionals, gCP, sTDA/sTD-DF 
  Waldemar Hujo          : DFT-NL                                        
  H. Jonsson             : NEB                                           
  Holger Kruse           : gCP                                           
  Marcel Mueller         : wB97X-3c, vDZP basis set                      
  Hagen Neugebauer       : wr2SCAN, Native XTB                           
  Gianluca Regni         : ADLD/ADEX                                     
  Tobias Risthaus        : pre 6.0 range-separated hybrid DFT and stability analysis
  Lukas Wittmann         : regularized MP2, r2SCAN double-hybrids, wr2SCAN        
                                                                         
We gratefully acknowledge several colleagues who have allowed us to      
interface, adapt or use parts of their codes:                            
  Ed Valeev, F. Pavosevic, A. Kumar             : LibInt (2-el integral package), F12 methods 
  Garnet Chan, S. Sharma, J. Yang, R. Olivares  : DMRG                   
  Ulf Ekstrom                                   : XCFun DFT Library      
  Mihaly Kallay                                 : mrcc  (arbitrary order and MRCC methods)
  Frank Weinhold                                : gennbo (NPA and NBO analysis)           
  Simon Mueller                                 : openCOSMO-RS                            
  Christopher J. Cramer and Donald G. Truhlar   : smd solvation model                     
  S Lehtola, MJT Oliveira, MAL Marques          : LibXC Library                           
  Liviu Ungur et al                             : ANISO software                          


 Your calculation uses the libint2 library for the computation of 2-el integrals
 For citations please refer to: http://libint.valeyev.net

 Your ORCA version has been built with support for libXC version: 7.0.0
 For citations please refer to: https://libxc.gitlab.io

 This ORCA versions uses:
   CBLAS   interface :  Fast vector & matrix operations
   LAPACKE interface :  Fast linear algebra routines
   SCALAPACK package :  Parallel linear algebra routines
   Shared memory     :  Shared parallel matrices
   BLAS/LAPACK       :  OpenBLAS 0.3.29  USE64BITINT DYNAMIC_ARCH NO_AFFINITY Cooperlake SINGLE_THREADED
        Core in use  :  Cooperlake
   Copyright (c) 2011-2014, The OpenBLAS Project


  ***********************************
  * Starting time: Tue May 12 10:31:59 2026
  * Host name:     c1-113
  * Process ID:    376058
  * Working dir.:  /cluster/projects/nn14654k/ylvaos/basis_set_n_funcs/functionals/lda_x/C4H6/out
  ***********************************

Using LibXC functional ID   1 : Slater exchange
[ 1]  P. A. M. Dirac.,  Math. Proc. Cambridge Philos. Soc. 26, 376 (1930)
[ 2]  F. Bloch.,  Z. Phys. 57, 545 (1929)
Using LibXC functional ID   1 : Slater exchange
[ 1]  P. A. M. Dirac.,  Math. Proc. Cambridge Philos. Soc. 26, 376 (1930)
[ 2]  F. Bloch.,  Z. Phys. 57, 545 (1929)
Your calculation utilizes LibXC
by S. Lehtola, C. Steigemann, M. J. T. Oliveira & M. A. L. Marques
Please cite in your paper:
Lehtola, S.; Steigemann, C.; Oliveira, M.J.T.; Marques, M. A. L. Software X, 7, (2018), 1.
   

================================================================================

----- Orbital basis set information -----
Your calculation utilizes the basis: def2-QZVP
   F. Weigend and R. Ahlrichs, Phys. Chem. Chem. Phys. 7, 3297 (2005).

================================================================================
                                        WARNINGS
                       Please study these warnings very carefully!
================================================================================


================================================================================
                                       INPUT FILE
================================================================================
NAME = /cluster/projects/nn14654k/ylvaos/basis_set_n_funcs/functionals/lda_x/C4H6/inp/C4H6_lda_x_def2qzvp.inp
|  1> ! dft def2-QZVP TightSCF
|  2> %pal nprocs 8 end
|  3> 
|  4> %loc
|  5>   LocMet NewBoys
|  6>   Occ true
|  7> end
|  8> 
|  9> %method
| 10>   exchange lda_x
| 11> end
| 12> 
| 13> %elprop
| 14>   Dipole true
| 15> end
| 16> 
| 17> * xyz 0 1
| 18> C    0.000000000000   0.000000000000   1.632000000000
| 19> C    0.000000000000   0.000000000000   0.300000000000
| 20> C    0.000000000000   0.771000000000  -0.936300000000
| 21> C    0.000000000000  -0.771000000000  -0.936300000000
| 22> H    0.000000000000   0.914000000000   2.222200000000
| 23> H    0.000000000000  -0.914000000000   2.222200000000
| 24> H    0.912300000000   1.305900000000  -1.200300000000
| 25> H   -0.912300000000   1.305900000000  -1.200300000000
| 26> H   -0.912300000000  -1.305900000000  -1.200300000000
| 27> H    0.912300000000  -1.305900000000  -1.200300000000
| 28> *
| 29> 
| 30> 
| 31>                          ****END OF INPUT****
================================================================================

                       ****************************
                       * Single Point Calculation *
                       ****************************

---------------------------------
CARTESIAN COORDINATES (ANGSTROEM)
---------------------------------
  C      0.000000    0.000000    1.632000
  C      0.000000    0.000000    0.300000
  C      0.000000    0.771000   -0.936300
  C      0.000000   -0.771000   -0.936300
  H      0.000000    0.914000    2.222200
  H      0.000000   -0.914000    2.222200
  H      0.912300    1.305900   -1.200300
  H     -0.912300    1.305900   -1.200300
  H     -0.912300   -1.305900   -1.200300
  H      0.912300   -1.305900   -1.200300

----------------------------
CARTESIAN COORDINATES (A.U.)
----------------------------
  NO LB      ZA    FRAG     MASS         X           Y           Z
   0 C     6.0000    0    12.011    0.000000    0.000000    3.084033
   1 C     6.0000    0    12.011    0.000000    0.000000    0.566918
   2 C     6.0000    0    12.011    0.000000    1.456979   -1.769351
   3 C     6.0000    0    12.011    0.000000   -1.456979   -1.769351
   4 H     1.0000    0     1.008    0.000000    1.727210    4.199349
   5 H     1.0000    0     1.008    0.000000   -1.727210    4.199349
   6 H     1.0000    0     1.008    1.723997    2.467793   -2.268238
   7 H     1.0000    0     1.008   -1.723997    2.467793   -2.268238
   8 H     1.0000    0     1.008   -1.723997   -2.467793   -2.268238
   9 H     1.0000    0     1.008    1.723997   -2.467793   -2.268238

--------------------------------
INTERNAL COORDINATES (ANGSTROEM)
--------------------------------
 C      0   0   0     0.000000000000     0.00000000     0.00000000
 C      1   0   0     1.332000000000     0.00000000     0.00000000
 C      2   1   0     1.457010188708   148.05088964     0.00000000
 C      2   1   3     1.457010188708   148.05088964   180.00000000
 H      1   2   3     1.087994503663   122.85166680     0.00000000
 H      1   2   3     1.087994503663   122.85166680   180.00000000
 H      3   2   1     1.090002431190   117.72260444    70.99760541
 H      3   2   1     1.090002431190   117.72260444   289.00239459
 H      4   2   1     1.090002431190   117.72260444    70.99760541
 H      4   2   1     1.090002431190   117.72260444   289.00239459

---------------------------
INTERNAL COORDINATES (A.U.)
---------------------------
 C      0   0   0     0.000000000000     0.00000000     0.00000000
 C      1   0   0     2.517115210383     0.00000000     0.00000000
 C      2   1   0     2.753350230992   148.05088964     0.00000000
 C      2   1   3     2.753350230992   148.05088964   180.00000000
 H      1   2   3     2.056011647134   122.85166680     0.00000000
 H      1   2   3     2.056011647134   122.85166680   180.00000000
 H      3   2   1     2.059806080257   117.72260444    70.99760541
 H      3   2   1     2.059806080257   117.72260444   289.00239459
 H      4   2   1     2.059806080257   117.72260444    70.99760541
 H      4   2   1     2.059806080257   117.72260444   289.00239459

---------------------
BASIS SET INFORMATION
---------------------
There are 2 groups of distinct atoms

 Group   1 Type C   : 15s8p3d2f1g contracted to 7s4p3d2f1g pattern {8211111/5111/111/11/1}
 Group   2 Type H   : 7s3p2d1f contracted to 4s3p2d1f pattern {4111/111/11/1}

Atom   0C    basis set group =>   1
Atom   1C    basis set group =>   1
Atom   2C    basis set group =>   1
Atom   3C    basis set group =>   1
Atom   4H    basis set group =>   2
Atom   5H    basis set group =>   2
Atom   6H    basis set group =>   2
Atom   7H    basis set group =>   2
Atom   8H    basis set group =>   2
Atom   9H    basis set group =>   2


           ************************************************************
           *        Program running with 8 parallel MPI-processes     *
           *              working on a common directory               *
           ************************************************************
------------------------------------------------------------------------------
                             ORCA STARTUP CALCULATIONS
------------------------------------------------------------------------------
------------------------------------------------------------------------------
                   ___                                                        
                  /   \      - P O W E R E D   B Y -                         
                 /     \                                                     
                 |  |  |   _    _      __       _____    __    __             
                 |  |  |  | |  | |    /  \     |  _  \  |  |  /  |          
                  \  \/   | |  | |   /    \    | | | |  |  | /  /          
                 / \  \   | |__| |  /  /\  \   | |_| |  |  |/  /          
                |  |  |   |  __  | /  /__\  \  |    /   |      \           
                |  |  |   | |  | | |   __   |  |    \   |  |\   \          
                \     /   | |  | | |  |  |  |  | |\  \  |  | \   \       
                 \___/    |_|  |_| |__|  |__|  |_| \__\ |__|  \__/        
                                                                              
                      - O R C A' S   B I G   F R I E N D -                    
                                      &                                       
                       - I N T E G R A L  F E E D E R -                       
                                                                              
 v1 FN, 2020, v2 2021, v3 2022-2024                                           
------------------------------------------------------------------------------


----------------------
SHARK INTEGRAL PACKAGE
----------------------

Number of atoms                             ...     10
Number of basis functions                   ...    408
Number of shells                            ...    128
Maximum angular momentum                    ...      4
Integral batch strategy                     ... SHARK/LIBINT Hybrid
RI-J (if used) integral strategy            ... SPLIT-RIJ (Revised 2003 algorithm where possible)
Printlevel                                  ...      1
Contraction scheme used                     ... SEGMENTED contraction
Prescreening option                         ... SCHWARTZ
   Thresh                                   ... 2.500e-11
   Tcut                                     ... 2.500e-12
   Tpresel                                  ... 2.500e-12 
Coulomb Range Separation                    ... NOT USED
Exchange Range Separation                   ... NOT USED
Multipole approximations                    ... NOT USED
Finite Nucleus Model                        ... NOT USED
CABS basis                                  ... NOT available
Auxiliary Coulomb fitting basis             ... NOT available
Auxiliary J/K fitting basis                 ... NOT available
Auxiliary Correlation fitting basis         ... NOT available
Auxiliary 'external' fitting basis          ... NOT available

Checking pre-screening integrals            ... done (  0.0 sec) Dimension = 128
   => SHARK Basis and OBASIS are compatible. Storing Pre-screening
Shell pair information
Shell pair cut-off parameter TPreSel        ...   2.5e-12
Total number of shell pairs                 ...      8256
Shell pairs after pre-screening             ...      7738
Total number of primitive shell pairs       ...     19107
Primitive shell pairs kept                  ...     14829
          la=0 lb=0:   1246 shell pairs
          la=1 lb=0:   1660 shell pairs
          la=1 lb=1:    575 shell pairs
          la=2 lb=0:   1152 shell pairs
          la=2 lb=1:    770 shell pairs
          la=2 lb=2:    282 shell pairs
          la=3 lb=0:    672 shell pairs
          la=3 lb=1:    458 shell pairs
          la=3 lb=2:    316 shell pairs
          la=3 lb=3:    101 shell pairs
          la=4 lb=0:    208 shell pairs
          la=4 lb=1:    136 shell pairs
          la=4 lb=2:     96 shell pairs
          la=4 lb=3:     56 shell pairs
          la=4 lb=4:     10 shell pairs

Checking whether 4 symmetric matrices of dimension 408 fit in memory
:Max Core in MB      =   4096.00
 MB in use           =     12.97
 MB left             =   4083.03
 MB needed           =      2.55
 Data fit in memory  = YES
Calculating Nuclear repulsion               ... done (  0.0 sec) ENN=    109.249345578353 Eh

Diagonalization of the overlap matrix:
Smallest eigenvalue                        ... 5.265e-05
Time for diagonalization                   ...    0.040 sec
Threshold for overlap eigenvalues          ... 1.000e-07
Number of eigenvalues below threshold      ... 0
Time for construction of square roots      ...    0.006 sec
Total time needed                          ...    0.048 sec

-------------------
DFT GRID GENERATION
-------------------

General Integration Accuracy     IntAcc      ... 4.388
Radial Grid Type                 RadialGrid  ... OptM3 with GC (2021)
Angular Grid (max. ang.)         AngularGrid ... 4 (Lebedev-302)
Angular grid pruning method      GridPruning ... 4 (adaptive)
Weight generation scheme         WeightScheme... mBecke (2022)
Basis function cutoff            BFCut       ... 1.0000e-11
Integration weight cutoff        WCut        ... 1.0000e-14
Partially contracted basis set               ... off
Rotationally invariant grid construction     ... off
Angular grids for H and He will be reduced by one unit
Diffuse basis detected: some atoms will have their outermost
                        angular grid increased by 1.

Total number of grid points                  ...    44804
Total number of batches                      ...      705
Average number of points per batch           ...       63
Average number of grid points per atom       ...     4480
Grids setup in   0.1 sec
Initializing property integral containers    ... done (  0.0 sec)

SHARK setup successfully completed in   0.4 seconds

Maximum memory used throughout the entire STARTUP-calculation: 26.1 MB


           ************************************************************
           *        Program running with 8 parallel MPI-processes     *
           *              working on a common directory               *
           ************************************************************
-------------------------------------------------------------------------------
                                 ORCA GUESS
                   Start orbitals & Density for SCF / CASSCF
-------------------------------------------------------------------------------

------------
SCF SETTINGS
------------
Hamiltonian:
 Density Functional     Method          .... DFT(GTOs)
  Functional kind                       .... Exchange
  Functional name                       .... Slater exchange
  Functional family                     .... LDA
  Functional refs                              
    [ 0] P. A. M. Dirac.,  Math. Proc. Cambridge Philos. Soc. 26, 376 (1930), doi: 10.1017/S0305004100016108
    [ 1] F. Bloch.,  Z. Phys. 57, 545 (1929), doi: 10.1007/BF01340281
  Functional external parameters        .... 0
 Correlation Functional Correlation     .... VWN-5
 Gradients option       PostSCFGGA      .... off


General Settings:
 Integral files         IntName         .... /cluster/projects/nn14654k/ylvaos/basis_set_n_funcs/functionals/lda_x/C4H6/inp/C4H6_lda_x_def2qzvp
 Hartree-Fock type      HFTyp           .... RHF
 Total Charge           Charge          ....    0
 Multiplicity           Mult            ....    1
 Number of Electrons    NEL             ....   30
 Basis Dimension        Dim             ....  408
 Nuclear Repulsion      ENuc            ....    109.2493455784 Eh

Convergence Acceleration:
 AO-DIIS                CNVDIIS         .... on
   Start iteration      DIISMaxIt       ....    12
   Startup error        DIISStart       ....  0.200000
   # of expansion vecs  DIISMaxEq       ....     5
   Bias factor          DIISBfac        ....   1.050
   Max. coefficient     DIISMaxC        ....  10.000
 MO-DIIS                CNVKDIIS        .... off
 Trust-Rad. Augm. Hess. CNVTRAH         .... auto
   Auto Start mean grad. ratio tolernc. ....  1.125000
   Auto Start start iteration           ....    50
   Auto Start num. interpolation iter.  ....    10
   Max. Number of Micro iterations      ....    24
   Max. Number of Macro iterations      .... Maxiter - #DIIS iter
   Number of Davidson start vectors     ....     2
   Converg. threshold    (grad. norm)   ....   1.000e-05
   Grad. Scal. Fac. for Micro threshold ....   0.100
   Minimum threshold for Micro iter.    ....   1.000e-02
   NR start threshold (gradient norm)   ....   1.000e-04
   Initial trust radius                 ....   0.400
   Minimum AH scaling param. (alpha)    ....   1.000
   Maximum AH scaling param. (alpha)    .... 1000.000
   Quad. conv. algorithm                .... NR
   White noise on init. David. guess    .... on
   Maximum white noise                  ....   0.010
   Pseudo random numbers                .... off
   Inactive MOs                         .... canonical
   Orbital update algorithm             .... Taylor
   Preconditioner                       .... Diag
   Full preconditioner red. dimension   ....   250
 SOSCF                 CNVSOSCF           .... on
   Start iteration     SOSCFMaxIt         ....   150
   Startup grad/error  SOSCFStart         ....  0.003300
   Hessian update      SOSCFHessUp        .... L-BFGS
   Autom. constraints  SOSCFAutoConstrain .... off
 Level Shifting         CNVShift        .... on
   Level shift para.    LevelShift      ....    0.2500
   Turn off err/grad.   ShiftErr        ....    0.0010
 Zerner damping         CNVZerner       .... off
 Static damping         CNVDamp         .... on
   Fraction old density DampFac         ....    0.7000
   Max. Damping (<1)    DampMax         ....    0.9800
   Min. Damping (>=0)   DampMin         ....    0.0000
   Turn off err/grad.   DampErr         ....    0.1000

SCF Procedure:
 Maximum # iterations   MaxIter         ....   125
 SCF integral mode      SCFMode         .... Direct
   Integral package                     .... SHARK and LIBINT hybrid scheme
 Reset frequency        DirectResetFreq ....    20
 Integral Threshold     Thresh          ....  2.500e-11 Eh
 Primitive CutOff       TCut            ....  2.500e-12 Eh

Convergence Tolerance:
 Convergence Check Mode ConvCheckMode   .... Total+1el-Energy
 Convergence forced     ConvForced      .... 0
 Energy Change          TolE            ....  1.000e-08 Eh
 1-El. energy change                    ....  1.000e-05 Eh
 Orbital Gradient       TolG            ....  1.000e-05
 Orbital Rotation angle TolX            ....  1.000e-05
 DIIS Error             TolErr          ....  5.000e-07

------------------------------
INITIAL GUESS: MODEL POTENTIAL
------------------------------
Loading Hartree-Fock densities                     ... done
Calculating cut-offs                               ... done
Initializing the effective Hamiltonian             ... done
Setting up the integral package (SHARK)            ... done
Starting the Coulomb interaction                   ... done (   0.0 sec)
Making the grid                                    ... done (   0.0 sec)
Mapping shells                                     ... done
Starting the XC term evaluation                    ... done (   0.0 sec)
  promolecular density results
     # of electrons  =     29.996285088
     EX              =    -20.075320876
     EC              =     -1.852099387
     EX+EC           =    -21.927420262
Transforming the Hamiltonian                       ... done (   0.0 sec)
Diagonalizing the Hamiltonian                      ... done (   0.0 sec)
Back transforming the eigenvectors                 ... done (   0.0 sec)
Now organizing SCF variables                       ... done
                      ------------------
                      INITIAL GUESS DONE (   0.2 sec)
                      ------------------
             **** ENERGY FILE WAS UPDATED (/cluster/projects/nn14654k/ylvaos/basis_set_n_funcs/functionals/lda_x/C4H6/inp/C4H6_lda_x_def2qzvp.en.tmp) ****
Finished Guess after   0.3 sec
Maximum memory used throughout the entire GUESS-calculation: 24.0 MB


           ************************************************************
           *        Program running with 8 parallel MPI-processes     *
           *              working on a common directory               *
           ************************************************************

-------------------------------------------------------------------------------------------
                                      ORCA LEAN-SCF
                              memory conserving SCF solver
-------------------------------------------------------------------------------------------

----------------------------------------D-I-I-S--------------------------------------------
Iteration    Energy (Eh)           Delta-E    RMSDP     MaxDP     DIISErr   Damp  Time(sec)
-------------------------------------------------------------------------------------------
               ***  Starting incremental Fock matrix formation  ***
    1    -154.4282264745444877     0.00e+00  1.43e-03  2.18e-02  1.95e-01  0.700   4.8
    2    -154.4955961240117404    -6.74e-02  1.06e-03  1.72e-02  9.18e-02  0.700   4.6
                               ***Turning on AO-DIIS***
    3    -154.5193415342553749    -2.37e-02  4.90e-04  5.35e-03  2.45e-02  0.700   4.5
    4    -154.5329725468439506    -1.36e-02  9.21e-04  1.07e-02  1.07e-02  0.000   4.4
    5    -154.5639727008081081    -3.10e-02  2.08e-04  2.25e-03  7.11e-03  0.000   4.5
                              *** Initializing SOSCF ***
---------------------------------------S-O-S-C-F--------------------------------------
Iteration    Energy (Eh)           Delta-E    RMSDP     MaxDP     MaxGrad    Time(sec)
--------------------------------------------------------------------------------------
    6    -154.5643055439720115    -3.33e-04  1.16e-04  1.35e-03  1.71e-03     4.3
               *** Restarting incremental Fock matrix formation ***
    7    -154.5643267676640562    -2.12e-05  1.10e-04  1.44e-03  2.48e-04     4.8
    8    -154.5643262071093318     5.61e-07  2.51e-05  4.07e-04  3.77e-04     4.0
    9    -154.5643291898400093    -2.98e-06  2.80e-05  3.59e-04  1.57e-04     3.8
   10    -154.5643286612033194     5.29e-07  6.68e-06  1.29e-04  2.66e-04     3.8
   11    -154.5643294468070508    -7.86e-07  8.88e-06  1.14e-04  3.68e-05     3.5
   12    -154.5643294398918215     6.92e-09  2.52e-06  3.00e-05  4.14e-05     3.5
                 **** Energy Check signals convergence ****

               *****************************************************
               *                     SUCCESS                       *
               *           SCF CONVERGED AFTER  12 CYCLES          *
               *****************************************************

             **** ENERGY FILE WAS UPDATED (/cluster/projects/nn14654k/ylvaos/basis_set_n_funcs/functionals/lda_x/C4H6/inp/C4H6_lda_x_def2qzvp.en.tmp) ****

----------------
TOTAL SCF ENERGY
----------------

Total Energy       :       -154.56432946325157 Eh           -4205.90923 eV

Components:
Nuclear Repulsion  :        109.24934557835338 Eh            2972.82583 eV
Electronic Energy  :       -263.81367504160494 Eh           -7178.73506 eV
One Electron Energy:       -424.35499886640190 Eh          -11547.28657 eV
Two Electron Energy:        160.54132382479696 Eh            4368.55151 eV

Virial components:
Potential Energy   :       -307.85101723278046 Eh           -8377.05206 eV
Kinetic Energy     :        153.28668776952890 Eh            4171.14283 eV
Virial Ratio       :          2.00833498141498

DFT components:
N(Alpha)           :       14.999996130294 electrons
N(Beta)            :       14.999996130294 electrons
N(Total)           :       29.999992260588 electrons
E(X)               :      -20.451216558709 Eh       
E(C)               :       -1.880731095866 Eh       
E(XC)              :      -22.331947654576 Eh       

---------------
SCF CONVERGENCE
---------------

  Last Energy change         ...   -6.9152e-09  Tolerance :   1.0000e-08
  Last MAX-Density change    ...    3.0014e-05  Tolerance :   1.0000e-07
  Last RMS-Density change    ...    2.5212e-06  Tolerance :   5.0000e-09
  Last DIIS Error            ...    1.7098e-03  Tolerance :   5.0000e-07
  Last Orbital Gradient      ...    4.1397e-05  Tolerance :   1.0000e-05
  Last Orbital Rotation      ...    4.8718e-05  Tolerance :   1.0000e-05


----------------
ORBITAL ENERGIES
----------------

  NO   OCC          E(Eh)            E(eV) 
   0   2.0000      -9.803453      -266.7655 
   1   2.0000      -9.796383      -266.5731 
   2   2.0000      -9.796266      -266.5700 
   3   2.0000      -9.779348      -266.1096 
   4   2.0000      -0.792957       -21.5775 
   5   2.0000      -0.643507       -17.5107 
   6   2.0000      -0.551381       -15.0038 
   7   2.0000      -0.480594       -13.0776 
   8   2.0000      -0.435682       -11.8555 
   9   2.0000      -0.424339       -11.5469 
  10   2.0000      -0.382268       -10.4020 
  11   2.0000      -0.330424        -8.9913 
  12   2.0000      -0.284067        -7.7299 
  13   2.0000      -0.260486        -7.0882 
  14   2.0000      -0.233888        -6.3644 
  15   0.0000      -0.043314        -1.1786 
  16   0.0000       0.009758         0.2655 
  17   0.0000       0.027968         0.7611 
  18   0.0000       0.038335         1.0431 
  19   0.0000       0.059872         1.6292 
  20   0.0000       0.061819         1.6822 
  21   0.0000       0.069984         1.9044 
  22   0.0000       0.094039         2.5589 
  23   0.0000       0.101898         2.7728 
  24   0.0000       0.107695         2.9305 
  25   0.0000       0.135269         3.6808 
*Only the first 10 virtual orbitals were printed.

                    ********************************
                    * MULLIKEN POPULATION ANALYSIS *
                    ********************************

-----------------------
MULLIKEN ATOMIC CHARGES
-----------------------
   0 C :   -0.224850
   1 C :    0.095573
   2 C :   -0.191493
   3 C :   -0.191498
   4 H :    0.076985
   5 H :    0.076986
   6 H :    0.089573
   7 H :    0.089574
   8 H :    0.089576
   9 H :    0.089574
Sum of atomic charges:   -0.0000000

--------------------------------
MULLIKEN REDUCED ORBITAL CHARGES
--------------------------------
  0 C s       :     3.326841  s :     3.326841
      pz      :     0.866985  p :     2.814673
      px      :     0.991574
      py      :     0.956114
      dz2     :     0.000790  d :     0.074284
      dxz     :     0.010943
      dyz     :     0.059779
      dx2y2   :     0.002634
      dxy     :     0.000138
      f0      :     0.000678  f :     0.008631
      f+1     :     0.002073
      f-1     :     0.005882
      f+2     :     0.000212
      f-2     :     0.000076
      f+3     :    -0.000034
      f-3     :    -0.000255
      g0      :     0.000024  g :     0.000421
      g+1     :     0.000205
      g-1     :     0.000260
      g+2     :     0.000001
      g-2     :    -0.000002
      g+3     :    -0.000008
      g-3     :    -0.000069
      g+4     :     0.000009
      g-4     :    -0.000000

  1 C s       :     3.268166  s :     3.268166
      pz      :     0.636145  p :     2.453312
      px      :     0.921444
      py      :     0.895723
      dz2     :     0.037620  d :     0.164255
      dxz     :     0.043817
      dyz     :     0.062116
      dx2y2   :     0.009753
      dxy     :     0.010949
      f0      :     0.005957  f :     0.017009
      f+1     :     0.003032
      f-1     :     0.002380
      f+2     :     0.002419
      f-2     :     0.002988
      f+3     :     0.000250
      f-3     :    -0.000018
      g0      :     0.000509  g :     0.001685
      g+1     :     0.000306
      g-1     :     0.000387
      g+2     :     0.000182
      g-2     :     0.000206
      g+3     :     0.000062
      g-3     :     0.000022
      g+4     :     0.000007
      g-4     :     0.000003

  2 C s       :     3.254538  s :     3.254538
      pz      :     0.992252  p :     2.836746
      px      :     0.971742
      py      :     0.872751
      dz2     :     0.019086  d :     0.084943
      dxz     :     0.015631
      dyz     :     0.020903
      dx2y2   :     0.011812
      dxy     :     0.017511
      f0      :     0.003646  f :     0.014512
      f+1     :     0.001517
      f-1     :     0.001019
      f+2     :     0.002665
      f-2     :     0.001346
      f+3     :     0.002846
      f-3     :     0.001473
      g0      :     0.000083  g :     0.000755
      g+1     :     0.000008
      g-1     :     0.000204
      g+2     :     0.000065
      g-2     :     0.000090
      g+3     :     0.000042
      g-3     :     0.000137
      g+4     :     0.000065
      g-4     :     0.000060

  3 C s       :     3.254541  s :     3.254541
      pz      :     0.992253  p :     2.836748
      px      :     0.971744
      py      :     0.872751
      dz2     :     0.019086  d :     0.084943
      dxz     :     0.015631
      dyz     :     0.020903
      dx2y2   :     0.011812
      dxy     :     0.017511
      f0      :     0.003646  f :     0.014512
      f+1     :     0.001517
      f-1     :     0.001019
      f+2     :     0.002665
      f-2     :     0.001346
      f+3     :     0.002846
      f-3     :     0.001473
      g0      :     0.000083  g :     0.000755
      g+1     :     0.000008
      g-1     :     0.000204
      g+2     :     0.000065
      g-2     :     0.000090
      g+3     :     0.000042
      g-3     :     0.000137
      g+4     :     0.000065
      g-4     :     0.000060

  4 H s       :     0.876570  s :     0.876570
      pz      :     0.009435  p :     0.040874
      px      :     0.018646
      py      :     0.012793
      dz2     :     0.001489  d :     0.005271
      dxz     :     0.000945
      dyz     :     0.000586
      dx2y2   :     0.000650
      dxy     :     0.001601
      f0      :     0.000018  f :     0.000300
      f+1     :     0.000005
      f-1     :     0.000114
      f+2     :     0.000001
      f-2     :     0.000076
      f+3     :     0.000067
      f-3     :     0.000021

  5 H s       :     0.876569  s :     0.876569
      pz      :     0.009435  p :     0.040874
      px      :     0.018646
      py      :     0.012792
      dz2     :     0.001489  d :     0.005271
      dxz     :     0.000945
      dyz     :     0.000586
      dx2y2   :     0.000650
      dxy     :     0.001601
      f0      :     0.000018  f :     0.000300
      f+1     :     0.000005
      f-1     :     0.000114
      f+2     :     0.000001
      f-2     :     0.000076
      f+3     :     0.000067
      f-3     :     0.000021

  6 H s       :     0.857870  s :     0.857870
      pz      :     0.017738  p :     0.046281
      px      :     0.011767
      py      :     0.016776
      dz2     :     0.000843  d :     0.005964
      dxz     :     0.001490
      dyz     :     0.000795
      dx2y2   :     0.001820
      dxy     :     0.001015
      f0      :     0.000023  f :     0.000312
      f+1     :     0.000059
      f-1     :     0.000035
      f+2     :     0.000025
      f-2     :     0.000047
      f+3     :     0.000111
      f-3     :     0.000011

  7 H s       :     0.857869  s :     0.857869
      pz      :     0.017738  p :     0.046281
      px      :     0.011767
      py      :     0.016776
      dz2     :     0.000843  d :     0.005964
      dxz     :     0.001490
      dyz     :     0.000795
      dx2y2   :     0.001820
      dxy     :     0.001015
      f0      :     0.000023  f :     0.000312
      f+1     :     0.000059
      f-1     :     0.000035
      f+2     :     0.000025
      f-2     :     0.000047
      f+3     :     0.000111
      f-3     :     0.000011

  8 H s       :     0.857867  s :     0.857867
      pz      :     0.017738  p :     0.046281
      px      :     0.011767
      py      :     0.016776
      dz2     :     0.000843  d :     0.005964
      dxz     :     0.001490
      dyz     :     0.000795
      dx2y2   :     0.001820
      dxy     :     0.001015
      f0      :     0.000023  f :     0.000312
      f+1     :     0.000059
      f-1     :     0.000035
      f+2     :     0.000025
      f-2     :     0.000047
      f+3     :     0.000111
      f-3     :     0.000011

  9 H s       :     0.857869  s :     0.857869
      pz      :     0.017738  p :     0.046281
      px      :     0.011767
      py      :     0.016776
      dz2     :     0.000843  d :     0.005964
      dxz     :     0.001490
      dyz     :     0.000795
      dx2y2   :     0.001820
      dxy     :     0.001015
      f0      :     0.000023  f :     0.000312
      f+1     :     0.000059
      f-1     :     0.000035
      f+2     :     0.000025
      f-2     :     0.000047
      f+3     :     0.000111
      f-3     :     0.000011



                     *******************************
                     * LOEWDIN POPULATION ANALYSIS *
                     *******************************

----------------------
LOEWDIN ATOMIC CHARGES
----------------------
   0 C :    0.181251
   1 C :   -0.123943
   2 C :    0.152581
   3 C :    0.152581
   4 H :   -0.079570
   5 H :   -0.079570
   6 H :   -0.050833
   7 H :   -0.050833
   8 H :   -0.050833
   9 H :   -0.050833

-------------------------------
LOEWDIN REDUCED ORBITAL CHARGES
-------------------------------
  0 C s       :     2.627311  s :     2.627311
      pz      :     1.019289  p :     2.809819
      px      :     0.819323
      py      :     0.971207
      dz2     :     0.074971  d :     0.310485
      dxz     :     0.041834
      dyz     :     0.174060
      dx2y2   :     0.019388
      dxy     :     0.000232
      f0      :     0.013986  f :     0.062565
      f+1     :     0.013489
      f-1     :     0.026557
      f+2     :     0.005131
      f-2     :     0.000151
      f+3     :     0.000864
      f-3     :     0.002387
      g0      :     0.002377  g :     0.008569
      g+1     :     0.001860
      g-1     :     0.003128
      g+2     :     0.000085
      g-2     :     0.000005
      g+3     :     0.000176
      g-3     :     0.000675
      g+4     :     0.000262
      g-4     :     0.000000

  1 C s       :     2.591935  s :     2.591935
      pz      :     1.056018  p :     2.695230
      px      :     0.760578
      py      :     0.878634
      dz2     :     0.204293  d :     0.675552
      dxz     :     0.169798
      dyz     :     0.217190
      dx2y2   :     0.035877
      dxy     :     0.048394
      f0      :     0.048756  f :     0.142569
      f+1     :     0.017696
      f-1     :     0.034795
      f+2     :     0.014542
      f-2     :     0.022568
      f+3     :     0.003468
      f-3     :     0.000745
      g0      :     0.006045  g :     0.018656
      g+1     :     0.002991
      g-1     :     0.004763
      g+2     :     0.001436
      g-2     :     0.002003
      g+3     :     0.000901
      g-3     :     0.000370
      g+4     :     0.000063
      g-4     :     0.000084

  2 C s       :     2.552079  s :     2.552079
      pz      :     0.894252  p :     2.716088
      px      :     0.952801
      py      :     0.869035
      dz2     :     0.083591  d :     0.462029
      dxz     :     0.059549
      dyz     :     0.114327
      dx2y2   :     0.069812
      dxy     :     0.134751
      f0      :     0.026548  f :     0.108686
      f+1     :     0.010310
      f-1     :     0.010413
      f+2     :     0.024860
      f-2     :     0.008835
      f+3     :     0.014602
      f-3     :     0.013118
      g0      :     0.000886  g :     0.008536
      g+1     :     0.000497
      g-1     :     0.002479
      g+2     :     0.000807
      g-2     :     0.000893
      g+3     :     0.000295
      g-3     :     0.001352
      g+4     :     0.000378
      g-4     :     0.000949

  3 C s       :     2.552079  s :     2.552079
      pz      :     0.894252  p :     2.716088
      px      :     0.952801
      py      :     0.869035
      dz2     :     0.083591  d :     0.462029
      dxz     :     0.059549
      dyz     :     0.114327
      dx2y2   :     0.069812
      dxy     :     0.134751
      f0      :     0.026548  f :     0.108686
      f+1     :     0.010310
      f-1     :     0.010413
      f+2     :     0.024860
      f-2     :     0.008835
      f+3     :     0.014602
      f-3     :     0.013118
      g0      :     0.000886  g :     0.008536
      g+1     :     0.000497
      g-1     :     0.002479
      g+2     :     0.000807
      g-2     :     0.000893
      g+3     :     0.000295
      g-3     :     0.001352
      g+4     :     0.000378
      g-4     :     0.000949

  4 H s       :     0.804234  s :     0.804234
      pz      :     0.058833  p :     0.202240
      px      :     0.059135
      py      :     0.084273
      dz2     :     0.015116  d :     0.063771
      dxz     :     0.007500
      dyz     :     0.015748
      dx2y2   :     0.011636
      dxy     :     0.013771
      f0      :     0.000801  f :     0.009325
      f+1     :     0.000084
      f-1     :     0.002930
      f+2     :     0.001647
      f-2     :     0.001610
      f+3     :     0.001194
      f-3     :     0.001060

  5 H s       :     0.804234  s :     0.804234
      pz      :     0.058833  p :     0.202240
      px      :     0.059135
      py      :     0.084273
      dz2     :     0.015116  d :     0.063771
      dxz     :     0.007500
      dyz     :     0.015748
      dx2y2   :     0.011636
      dxy     :     0.013771
      f0      :     0.000801  f :     0.009325
      f+1     :     0.000084
      f-1     :     0.002930
      f+2     :     0.001647
      f-2     :     0.001610
      f+3     :     0.001194
      f-3     :     0.001060

  6 H s       :     0.780759  s :     0.780759
      pz      :     0.061237  p :     0.195732
      px      :     0.080154
      py      :     0.054342
      dz2     :     0.008615  d :     0.064815
      dxz     :     0.015456
      dyz     :     0.006818
      dx2y2   :     0.019156
      dxy     :     0.014771
      f0      :     0.000824  f :     0.009527
      f+1     :     0.001460
      f-1     :     0.000679
      f+2     :     0.000661
      f-2     :     0.001589
      f+3     :     0.002623
      f-3     :     0.001691

  7 H s       :     0.780759  s :     0.780759
      pz      :     0.061237  p :     0.195732
      px      :     0.080154
      py      :     0.054342
      dz2     :     0.008615  d :     0.064815
      dxz     :     0.015456
      dyz     :     0.006818
      dx2y2   :     0.019156
      dxy     :     0.014771
      f0      :     0.000824  f :     0.009527
      f+1     :     0.001460
      f-1     :     0.000679
      f+2     :     0.000661
      f-2     :     0.001589
      f+3     :     0.002623
      f-3     :     0.001691

  8 H s       :     0.780759  s :     0.780759
      pz      :     0.061237  p :     0.195732
      px      :     0.080154
      py      :     0.054342
      dz2     :     0.008615  d :     0.064815
      dxz     :     0.015456
      dyz     :     0.006818
      dx2y2   :     0.019156
      dxy     :     0.014771
      f0      :     0.000824  f :     0.009527
      f+1     :     0.001460
      f-1     :     0.000679
      f+2     :     0.000661
      f-2     :     0.001589
      f+3     :     0.002623
      f-3     :     0.001691

  9 H s       :     0.780759  s :     0.780759
      pz      :     0.061237  p :     0.195732
      px      :     0.080154
      py      :     0.054342
      dz2     :     0.008615  d :     0.064815
      dxz     :     0.015456
      dyz     :     0.006818
      dx2y2   :     0.019156
      dxy     :     0.014771
      f0      :     0.000824  f :     0.009527
      f+1     :     0.001460
      f-1     :     0.000679
      f+2     :     0.000661
      f-2     :     0.001589
      f+3     :     0.002623
      f-3     :     0.001691



                      *****************************
                      * MAYER POPULATION ANALYSIS *
                      *****************************

  NA   - Mulliken gross atomic population
  ZA   - Total nuclear charge
  QA   - Mulliken gross atomic charge
  VA   - Mayer's total valence
  BVA  - Mayer's bonded valence
  FA   - Mayer's free valence

  ATOM       NA         ZA         QA         VA         BVA        FA
  0 C      6.2249     6.0000    -0.2249     3.8803     3.8803    -0.0000
  1 C      5.9044     6.0000     0.0956     3.7933     3.7933    -0.0000
  2 C      6.1915     6.0000    -0.1915     3.9107     3.9107     0.0000
  3 C      6.1915     6.0000    -0.1915     3.9107     3.9107    -0.0000
  4 H      0.9230     1.0000     0.0770     1.0161     1.0161    -0.0000
  5 H      0.9230     1.0000     0.0770     1.0161     1.0161     0.0000
  6 H      0.9104     1.0000     0.0896     1.0268     1.0268     0.0000
  7 H      0.9104     1.0000     0.0896     1.0268     1.0268     0.0000
  8 H      0.9104     1.0000     0.0896     1.0268     1.0268    -0.0000
  9 H      0.9104     1.0000     0.0896     1.0268     1.0268     0.0000

  Mayer bond orders larger than 0.100000
B(  0-C ,  1-C ) :   1.8046 B(  0-C ,  4-H ) :   0.9579 B(  0-C ,  5-H ) :   0.9579 
B(  1-C ,  2-C ) :   0.9408 B(  1-C ,  3-C ) :   0.9408 B(  2-C ,  3-C ) :   0.9388 
B(  2-C ,  6-H ) :   0.9641 B(  2-C ,  7-H ) :   0.9641 B(  3-C ,  8-H ) :   0.9641 
B(  3-C ,  9-H ) :   0.9641 

-------
TIMINGS
-------

Total SCF time: 0 days 0 hours 0 min 54 sec 

Total time                  ....      54.006 sec
Sum of individual times     ....      50.798 sec  ( 94.1%)

SCF preparation             ....       0.111 sec  (  0.2%)
Fock matrix formation       ....      50.048 sec  ( 92.7%)
  Startup                   ....       0.009 sec  (  0.0% of F)
  Coulomb formation         ....      52.264 sec  (104.4% of F)
  XC integration            ....       0.817 sec  (  1.6% of F)
    XC Preparation          ....       0.000 sec  (  0.0% of XC)
    Basis function eval.    ....       0.089 sec  ( 10.9% of XC)
    Density eval.           ....       0.208 sec  ( 25.5% of XC)
    XC-Functional eval.     ....       0.017 sec  (  2.1% of XC)
    XC-Potential eval.      ....       0.311 sec  ( 38.1% of XC)
Diagonalization             ....       0.000 sec  (  0.0%)
Density matrix formation    ....       0.065 sec  (  0.1%)
Total Energy calculation    ....       0.022 sec  (  0.0%)
Population analysis         ....       0.029 sec  (  0.1%)
Orbital Transformation      ....       0.054 sec  (  0.1%)
Orbital Orthonormalization  ....       0.000 sec  (  0.0%)
DIIS solution               ....       0.295 sec  (  0.5%)
SOSCF solution              ....       0.174 sec  (  0.3%)
Finished LeanSCF after  54.0 sec

Maximum memory used throughout the entire LEANSCF-calculation: 39.2 MB
------------------------------------------------------------------------------
                           ORCA ORBITAL LOCALIZATION
------------------------------------------------------------------------------

Input orbitals are from                  ... /cluster/projects/nn14654k/ylvaos/basis_set_n_funcs/functionals/lda_x/C4H6/inp/C4H6_lda_x_def2qzvp.gbw
Output orbitals are to                   ... /cluster/projects/nn14654k/ylvaos/basis_set_n_funcs/functionals/lda_x/C4H6/inp/C4H6_lda_x_def2qzvp.loc
Max. number of iterations                ... 128
Localizations seeded randomly            ... on
Convergence tolerance                    ... 1.000e-06
Threshold for strong local MOs           ... 9.500e-01
Threshold for bond MOs                   ... 8.500e-01
Operator                                 ... 0
Orbital range for localization           ... 4 to 14
Localization criterion                   ... NEW-BOYS
Doing the dipole integrals               ... o.k.
Initial value of the localization sum :    55.467745
ITERATION   0 : L=   80.5403873148 DL=  2.51e+01 (AVERGE_DL)=    0.6751786661 
ITERATION   1 : L=   85.7708017662 DL=  5.23e+00 (AVERGE_DL)=    0.3083803570 
ITERATION   2 : L=   85.8787484243 DL=  1.08e-01 (AVERGE_DL)=    0.0443019922 
ITERATION   3 : L=   85.8793943990 DL=  6.46e-04 (AVERGE_DL)=    0.0034270970 
ITERATION   4 : L=   85.8794048670 DL=  1.05e-05 (AVERGE_DL)=    0.0004362651 
ITERATION   5 : L=   85.8794049649 DL=  9.79e-08 (AVERGE_DL)=    0.0000421944 
LOCALIZATION SUM CONVERGED


--------------------------------------------------------------------------------
                    LOCALIZED MOLECULAR ORBITAL COMPOSITIONS
--------------------------------------------------------------------------------

The Mulliken populations for each LMO on each atom are computed
The LMO`s will be ordered according to atom index and type
  (A) Strongly localized MO`s have populations of >=0.950 on one atom
  (B) Two center bond orbitals have populations of >=0.850 on two atoms
  (C) Other MO`s are considered to be `delocalized`

FOUND  -   0 strongly local MO`s
       -  11 two center bond MO`s
       -   0 significantly delocalized MO`s

Bond-like localized orbitals:
MO  14:   9H  -   0.459659  and   3C  -   0.552160
MO  13:   8H  -   0.459658  and   3C  -   0.552162
MO  12:   7H  -   0.459659  and   2C  -   0.552161
MO  11:   6H  -   0.459659  and   2C  -   0.552160
MO  10:   5H  -   0.471292  and   0C  -   0.540940
MO   9:   4H  -   0.471292  and   0C  -   0.540940
MO   8:   3C  -   0.506368  and   2C  -   0.506368
MO   7:   3C  -   0.528007  and   1C  -   0.504210
MO   6:   2C  -   0.528006  and   1C  -   0.504211
MO   5:   1C  -   0.495060  and   0C  -   0.518235
MO   4:   1C  -   0.495059  and   0C  -   0.518236
Localized MO's were stored in: /cluster/projects/nn14654k/ylvaos/basis_set_n_funcs/functionals/lda_x/C4H6/inp/C4H6_lda_x_def2qzvp.loc

-------------------------   --------------------
FINAL SINGLE POINT ENERGY      -154.564329463252
-------------------------   --------------------



           ************************************************************
           *        Program running with 8 parallel MPI-processes     *
           *              working on a common directory               *
           ************************************************************

------------------------------------------------------------------------------
                              ORCA PROPERTY CALCULATIONS
------------------------------------------------------------------------------

GBWName                                 ... /cluster/projects/nn14654k/ylvaos/basis_set_n_funcs/functionals/lda_x/C4H6/inp/C4H6_lda_x_def2qzvp.gbw
Number of atoms                         ...     10
Number of basis functions               ...    408
Max core memory                         ...   4096 MB

Electric properties:
Dipole moment                           ... YES
Quadrupole moment                       ...  NO
Static polarizability (Dipole/Dipole)   ...  NO
Static polarizability (Dipole/Quad.)    ...  NO
Static polarizability (Quad./Quad.)     ...  NO
Static polarizability (Velocity)        ...  NO
Static hyperpolarizability              ...  NO

Atomic electric properties:
Dipole moment                           ...  NO
Quadrupole moment                       ...  NO
Static polarizability                   ...  NO

Choice of electric origin               ... Center of mass
Position of electric origin             ...     0.000000     0.000000     0.012360

General magnetic properties:
Magnetizability                         ...  NO

EPR properties:
g-Tensor (aka g-matrix)                 ...  NO
Zero-Field splitting spin-orbit         ...  NO
Zero-field splitting spin-spin          ...  NO
Hyperfine couplings                     ...  NO (   0 nuclei)
Quadrupole couplings                    ...  NO (   0 nuclei)
Contact density                         ...  NO (   0 nuclei)

NMR properties:
Chemical shifts                         ...  NO (   0 nuclei)
Spin-rotation constants                 ...  NO (   0 nuclei)
Spin-spin couplings                     ...  NO (   0 nuclei,    0 pairs)

Choice of magnetic origin               ... GIAO
Position of magnetic origin             ...     0.000000     0.000000     0.000000

Properties with geometric perturbations:
SCF Hessian                             ...  NO
IR spectrum                             ...  NO
VCD spectrum                            ...  NO
X-ray spectroscopy properties:
SCF XES/XAS/RIXS spectra                ...  NO

SCF SOC stabilization energy            ...  NO
Diagonal Born-Oppenheimer correction    ...  NO

-------------
DIPOLE MOMENT
-------------

Method             : SCF
Type of density    : Electron Density
Multiplicity       :   1
Irrep              :   0
Energy             :  -154.5643294632515676 Eh
Basis              : AO
                                X                 Y                 Z
Electronic contribution:     -0.000000007      -0.000000013       0.198191925
Nuclear contribution   :      0.000000000       0.000000000      -0.371559272
                        -----------------------------------------
Total Dipole Moment    :     -0.000000007      -0.000000013      -0.173367347
                        -----------------------------------------
Magnitude (a.u.)       :      0.173367347
Magnitude (Debye)      :      0.440664775



--------------------
Rotational spectrum 
--------------------
 
Rotational constants in cm-1:             0.643527             0.230144             0.181788 
Rotational constants in MHz :         19292.450199          6899.535423          5449.866904 

Dipole components along the rotational axes: 
x,y,z [a.u.] :    -0.173367    -0.000000    -0.000000 
x,y,z [Debye]:    -0.440665    -0.000000    -0.000000 

 

Dipole moment calculation done in   0.0 sec 

Maximum memory used throughout the entire PROP-calculation: 21.7 MB

--------------------------------
SUGGESTED CITATIONS FOR THIS RUN
--------------------------------

Below you find a list of papers that are relevant to this ORCA run
We neither can nor want to force you to cite these papers, but we appreciate if you do
You receive ORCA, which is the product of decades of hard work by many enthusiastic individuals, for free
The only thing we kindly ask in return is that you cite our papers,
We deeply appreciate it, if you show your appreciation for ORCA by not just citing the generic ORCA reference.

Please note that relegating all ORCA citations to the supporting information does *not* help us.
SI sections are not indexed - citations you put there will not count into any citation statistics
But we need these citations in order to attract the funding resources that allow us to do what we are doing

Therefore, if you are a happy ORCA user, please consider citing a few of the papers listed below in the main body of your paper

In addition to the list printed below, the program has created the file /cluster/projects/nn14654k/ylvaos/basis_set_n_funcs/functionals/lda_x/C4H6/inp/C4H6_lda_x_def2qzvp.bibtex that contains the list in bibtex format
You can import this file easily into all common literature databanks and citation aid programs

It goes without saying that in many instances, there are alternative algorithms to achieve similar
results as the ones you have gotten from ORCA. It is, of course, also the case that in some instances
ORCA just re-implements algorithms worked out by others. We are fully aware of that and we are also
fully appreciative of our colleagues work. Hence this citation list should not be read as indicating
that the listed papers, which are focused on our own work, are the only ones worth citing. It simply
meant to make it easier for users to cite ORCA specific papers. It is not a substitute for doing your
own literature research and citing the relevant literature in a scientifically appropriate manner.

List of essential papers. We consider these as the minimum necessary citations

  1. Neese, F.
     Software update: the ORCA program system, version 6.0
     WIRES Comput. Molec. Sci. 2025 15(1), e70019
     doi.org/10.1002/wcms.70019

List of papers to cite with high priority. The work reported in these papers was absolutely
necessary for this run to complete.
Our perspective: the developers of density functionals and basis sets usually get cited in chemistry papers
Good! But without the algorithms to do something with them, the functionals or basis sets would not do anything.
Hence, in our opinion, the algorithm design and method developments papers are equally worthy of getting cited

  1. Lehtola, S.; Steigemann, C.; Oliveira, M.; Marques, M.
     Recent developments in Libxc - A comprehensive library of functionals for density functional theory
     Software X 2018 7 , 
     doi.org/10.1016/j.softx.2017.11.002
  2. Neese, F.
     The SHARK Integral Generation and Digestion System
     J. Comp. Chem. 2022 44(3), 381
     doi.org/10.1002/jcc.26942

List of suggested additional citations. These are papers that are important in the 'surrounding' of 
of this run, or papers that preceded the highly important papers. If you like your results we are grateful for a citation.

  1. Neese, F.
     The ORCA program system
     WIRES Comput. Molec. Sci. 2012 2(1), 73-78
     doi.org/10.1002/wcms.81
  2. Neese, F.
     Software update: the ORCA program system, version 4.0
     WIRES Comput. Molec. Sci. 2018 8(1), 1-6
     doi.org/10.1002/wcms.1327
  3. Neese, F.; Wennmohs, F.; Becker, U.; Riplinger, C.
     The ORCA quantum chemistry program package
     J. Chem. Phys. 2020 152(22), 224108
     doi.org/10.1063/5.0004608
  4. Neese, F.
     Software update: The ORCA program system—Version 5.0
     WIRES Comput. Molec. Sci. 2022 12(1), e1606
     doi.org/10.1002/wcms.1606

List of optional additional citations

  1. Neese, F.
     Approximate second-order SCF convergence for spin unrestricted wavefunctions
     Chem. Phys. Lett. 2000 325(1-3), 93-98
     doi.org/10.1016/s0009-2614(00)00662-x

Timings for individual modules:

Sum of individual times          ...       62.006 sec (=   1.033 min)
Startup calculation              ...        2.583 sec (=   0.043 min)   4.2 %
SCF iterations                   ...       57.630 sec (=   0.960 min)  92.9 %
Property calculations            ...        1.766 sec (=   0.029 min)   2.8 %
Orbital localization             ...        0.028 sec (=   0.000 min)   0.0 %
                             ****ORCA TERMINATED NORMALLY****
TOTAL RUN TIME: 0 days 0 hours 1 minutes 4 seconds 257 msec
