
                                 *****************
                                 * O   R   C   A *
                                 *****************

                                            #,                                       
                                            ###                                      
                                            ####                                     
                                            #####                                    
                                            ######                                   
                                           ########,                                 
                                     ,,################,,,,,                         
                               ,,#################################,,                 
                          ,,##########################################,,             
                       ,#########################################, ''#####,          
                    ,#############################################,,   '####,        
                  ,##################################################,,,,####,       
                ,###########''''           ''''###############################       
              ,#####''   ,,,,##########,,,,          '''####'''          '####       
            ,##' ,,,,###########################,,,                        '##       
           ' ,,###''''                  '''############,,,                           
         ,,##''                                '''############,,,,        ,,,,,,###''
      ,#''                                            '''#######################'''  
     '                                                          ''''####''''         
             ,#######,   #######,   ,#######,      ##                                
            ,#'     '#,  ##    ##  ,#'     '#,    #''#        ,####,    ,#,          
            ##       ##  ##   ,#'  ##            #'  '#       #'       ,# #          
            ##       ##  #######   ##           ,######,      #####,      #          
            '#,     ,#'  ##    ##  '#,     ,#' ,#      #,     #,   #      #          
             '#######'   ##     ##  '#######'  #'      '#     '####' #    #          



                #########################################################
                #                        -***-                          #
                #          Department of theory and spectroscopy        #
                #                                                       #
                #                      Frank Neese                      #
                #                                                       #
                #     Directorship, Architecture, Infrastructure        #
                #                    SHARK, DRIVERS                     #
                #        Core code/Algorithms in most modules           #
                #                                                       #
                #        Max Planck Institute fuer Kohlenforschung      #
                #                Kaiser Wilhelm Platz 1                 #
                #                 D-45470 Muelheim/Ruhr                 #
                #                      Germany                          #
                #                                                       #
                #                  All rights reserved                  #
                #                        -***-                          #
                #########################################################


                         Program Version 6.1.1  -  RELEASE   -
                                (GIT: $487d211c$)
                          ($2025-11-21 10:33:24 +0100$)


 With contributions from (in alphabetic order):
[Max-Planck-Institut fuer Kohlenforschung]                               
  Daniel Aravena         : Magnetic Suceptibility                        
  Michael Atanasov       : Ab Initio Ligand Field Theory (pilot matlab implementation)
  Alexander A. Auer      : GIAO ZORA, VPT2 properties, NMR spectrum      
  Ute Becker             : All parallelization in ORCA, NUMFREQ, NUMCALC 
  Giovanni Bistoni       : ED, misc. LED, open-shell LED, HFLD           
  Dmytro Bykov           : pre 5.0 version of the SCF Hessian            
  Marcos Casanova-Páez   : Triplet and SCS-CIS(D). UHF-(DLPNO)-IP/EA/STEOM-CCSD. UHF-CVS-IP/STEOM-CCSD   
  Vijay G. Chilkuri      : MRCI spin determinant printing, contributions to CSF-ICE 
  Pauline Colinet        : FMM embedding                                 
  Dipayan Datta          : RHF DLPNO-CCSD density                        
  Achintya Kumar Dutta   : EOM-CC, STEOM-CC                              
  Nicolas Foglia         : Exact transition moments, OPA infrastructure, MCD improvements    
  Dmitry Ganyushin       : Spin-Orbit,Spin-Spin,Magnetic field MRCI      
  Miquel Garcia-Rates    : C-PCM and meta-GGA Hessian, CCSD/C-PCM, Gaussian charge scheme 
  Tiago L. C. Gouveia    : GS-ROHF, GS-ROCIS                             
  Yang Guo               : DLPNO-NEVPT2, F12-NEVPT2, CIM, IAO-localization        
  Andreas Hansen         : Spin unrestricted coupled pair/coupled cluster methods 
  Ingolf Harden          : AUTO-CI MPn and infrastructure                
  Benjamin Helmich-Paris : MC-RPA, TRAH-(SCF,CASSCF), AVAS, COSX integrals, SCF dyn. polar., MC-PDFT, srDFT 
  Lee Huntington         : MR-EOM, pCC                                   
  Robert Izsak           : Overlap fitted RIJCOSX, COSX-SCS-MP3, EOM     
  Riya Kayal             : Wick's Theorem for AUTO-CI, AUTO-CI UHF-CCSDT 
  Emily Kempfer          : AUTO-CI RHF CISDT and CCSDT, approximate NEVPT4
  Christian Kollmar      : KDIIS, OOCD, Brueckner-CCSD(T), CCSD density, CASPT2, CASPT2-K, improved NEVPT2 
  Axel Koslowski         : Symmetry handling                             
  Simone Kossmann        : meta-GGA functionals, TD-DFT gradient, OOMP2, (MP2 Hessian; deprecated post 5.0) 
  Lucas Lang             : DCDCAS, Hyperfine gauge corrections, ICE-SOC+SSC
  Marvin Lechner         : AUTO-CI (C++ implementation), FIC-MRCC        
  Spencer Leger          : CASSCF response                               
  Dagmar Lenk            : GEPOL surface, SMD, ORCA-2-JSON               
  Dimitrios Liakos       : Extrapolation schemes; Compound Job, Property file
  Dimitrios Manganas     : Further ROCIS development; embedding schemes. LFT, Crystal Embedding 
  Dimitrios Pantazis     : SARC Basis sets                               
  Anastasios Papadopoulos: AUTO-CI, single reference methods and gradients 
  Taras Petrenko         : pre 6.0 DFT Hessian and TD-DFT gradient,  ECA, NRVS 
  Petra Pikulova         : Analytic Raman intensities                    
  Peter Pinski           : DLPNO-MP2, DLPNO-MP2 Gradient                 
  Shashank Vittal Rao    : ES-AILFT, MagRelax                            
  Christoph Reimann      : Effective Core Potentials                     
  Marius Retegan         : Local ZFS, SOC                                
  Christoph Riplinger    : Optimizer, TS searches, QM/MM, DLPNO-CCSD(T), (RO)-DLPNO pert. Triples 
  Michael Roemelt        : Original ROCIS implementation, recursive CI coupling coefficients
  Masaaki Saitow         : Open-shell DLPNO-CCSD energy and density      
  Barbara Sandhoefer     : DKH picture change effects                    
  Yorick L. A. Schmerwitz: GMF and freeze-and-release deltaSCF, NEB S-IDPP initial path                    
  Kantharuban Sivalingam : CASSCF convergence/infrastructure, NEVPT2, NEVPT3, NEVPT4(SD), FIC-MRCI and CEPA variants
  Bernardo de Souza      : ESD, SOC TD-DFT                               
  Georgi L. Stoychev     : AutoAux, RI-MP2 NMR, DLPNO-MP2 response, X2C  
  Van Anh Tran           : RI-MP2 g-tensors                              
  Willem Van den Heuvel  : Paramagnetic NMR                              
  Zikuan Wang            : NOTCH, Electric field optimization            
  Frank Wennmohs         : Technical directorship and infrastructure     
  Hang Xu                : AUTO-CI-Response properties                   
                                                                         
[FACCTs GmbH]                                                            
  Markus Bursch, Nicolas Foglia, Miquel Garcia-Rates, Ingolf Harden, Hagen Neugebauer, Anastasios Papadopoulos, 
  Christoph Riplinger, Bernardo de Souza, Georgi L. Stoychev                                                    
                                                                 
  APM, various basis sets, CI-OPT, improved COSX, DLPNO-Multilevel,           
  DOCKER, DRACO, updates on ESD, Fragmentator, GOAT, IRC, LR-CPCM, L-BFGS, MBIS, meta-GGA TD-DFT gradient, ML-optimized integration grids, 
  MM, NACMEs, nearIR, NEB, NEB-TS, NL-DFT gradient (VV10), 2- and 3-layer-ONIOM, interface openCOSMO-RS, QMMM,   
  Crystal-QMMM, RESP, rigid body optimization, SF, symmetry and pop. for TD-DFT, various functionals, SOLVATOR                                   
                                                                         
[Other institutions]                                                     
  V. Asgeirsson          : NEB                                           
  Christoph Bannwarth    : sTDA-DFT, sTD-DFT, PBEh-3c, B97-3c, D3        
  Giovanni Bistoni       : ETS/NOCV, ADLD/ADEX, COVALED                  
  Martin Brehm           : Molecular dynamics                            
  Ronald Cardenas        : ETS/NOCV                                      
  Martina Colucci        : COVALED                                       
  Sebastian Ehlert       : rSCAN, r2SCAN, r2SCAN-3c, D4, dhf basis sets  
  Marvin Friede          : D4 for Fr, Ra, Ac-Lr                          
  Lars Goerigk           : TD-DFT with DH, B97 family of functionals     
  Stefan Grimme          : VdW corrections, initial TS optimization, DFT functionals, gCP, sTDA/sTD-DF 
  Waldemar Hujo          : DFT-NL                                        
  H. Jonsson             : NEB                                           
  Holger Kruse           : gCP                                           
  Marcel Mueller         : wB97X-3c, vDZP basis set                      
  Hagen Neugebauer       : wr2SCAN, Native XTB                           
  Gianluca Regni         : ADLD/ADEX                                     
  Tobias Risthaus        : pre 6.0 range-separated hybrid DFT and stability analysis
  Lukas Wittmann         : regularized MP2, r2SCAN double-hybrids, wr2SCAN        
                                                                         
We gratefully acknowledge several colleagues who have allowed us to      
interface, adapt or use parts of their codes:                            
  Ed Valeev, F. Pavosevic, A. Kumar             : LibInt (2-el integral package), F12 methods 
  Garnet Chan, S. Sharma, J. Yang, R. Olivares  : DMRG                   
  Ulf Ekstrom                                   : XCFun DFT Library      
  Mihaly Kallay                                 : mrcc  (arbitrary order and MRCC methods)
  Frank Weinhold                                : gennbo (NPA and NBO analysis)           
  Simon Mueller                                 : openCOSMO-RS                            
  Christopher J. Cramer and Donald G. Truhlar   : smd solvation model                     
  S Lehtola, MJT Oliveira, MAL Marques          : LibXC Library                           
  Liviu Ungur et al                             : ANISO software                          


 Your calculation uses the libint2 library for the computation of 2-el integrals
 For citations please refer to: http://libint.valeyev.net

 Your ORCA version has been built with support for libXC version: 7.0.0
 For citations please refer to: https://libxc.gitlab.io

 This ORCA versions uses:
   CBLAS   interface :  Fast vector & matrix operations
   LAPACKE interface :  Fast linear algebra routines
   SCALAPACK package :  Parallel linear algebra routines
   Shared memory     :  Shared parallel matrices
   BLAS/LAPACK       :  OpenBLAS 0.3.29  USE64BITINT DYNAMIC_ARCH NO_AFFINITY Cooperlake SINGLE_THREADED
        Core in use  :  Cooperlake
   Copyright (c) 2011-2014, The OpenBLAS Project


  ***********************************
  * Starting time: Wed May 20 11:54:07 2026
  * Host name:     c1-40
  * Process ID:    41667
  * Working dir.:  /cluster/projects/nn14654k/ylvaos/basis_set_n_funcs/functionals/lda_x/C4H6/out
  ***********************************

Using LibXC functional ID   1 : Slater exchange
[ 1]  P. A. M. Dirac.,  Math. Proc. Cambridge Philos. Soc. 26, 376 (1930)
[ 2]  F. Bloch.,  Z. Phys. 57, 545 (1929)
Using LibXC functional ID   1 : Slater exchange
[ 1]  P. A. M. Dirac.,  Math. Proc. Cambridge Philos. Soc. 26, 376 (1930)
[ 2]  F. Bloch.,  Z. Phys. 57, 545 (1929)
Your calculation utilizes LibXC
by S. Lehtola, C. Steigemann, M. J. T. Oliveira & M. A. L. Marques
Please cite in your paper:
Lehtola, S.; Steigemann, C.; Oliveira, M.J.T.; Marques, M. A. L. Software X, 7, (2018), 1.
   

================================================================================

----- Orbital basis set information -----
Your calculation utilizes the basis: def2-QZVP
   F. Weigend and R. Ahlrichs, Phys. Chem. Chem. Phys. 7, 3297 (2005).

================================================================================
                                        WARNINGS
                       Please study these warnings very carefully!
================================================================================


================================================================================
                                       INPUT FILE
================================================================================
NAME = /cluster/projects/nn14654k/ylvaos/basis_set_n_funcs/functionals/lda_x/C4H6/inp/C4H6_lda_x_def2qzvp.inp
|  1> ! dft def2-QZVP TightSCF
|  2> %pal nprocs 8 end
|  3> 
|  4> %loc
|  5>   LocMet NewBoys
|  6>   Occ true
|  7> end
|  8> 
|  9> %method
| 10>   exchange lda_x
| 11>   correlation None
| 12> end
| 13> 
| 14> %elprop
| 15>   Dipole true
| 16>   Quadrupole true
| 17> end
| 18> 
| 19> * xyz 0 1
| 20> C    0.000000000000   0.000000000000   1.632000000000
| 21> C    0.000000000000   0.000000000000   0.300000000000
| 22> C    0.000000000000   0.771000000000  -0.936300000000
| 23> C    0.000000000000  -0.771000000000  -0.936300000000
| 24> H    0.000000000000   0.914000000000   2.222200000000
| 25> H    0.000000000000  -0.914000000000   2.222200000000
| 26> H    0.912300000000   1.305900000000  -1.200300000000
| 27> H   -0.912300000000   1.305900000000  -1.200300000000
| 28> H   -0.912300000000  -1.305900000000  -1.200300000000
| 29> H    0.912300000000  -1.305900000000  -1.200300000000
| 30> *
| 31> 
| 32> 
| 33>                          ****END OF INPUT****
================================================================================

                       ****************************
                       * Single Point Calculation *
                       ****************************

---------------------------------
CARTESIAN COORDINATES (ANGSTROEM)
---------------------------------
  C      0.000000    0.000000    1.632000
  C      0.000000    0.000000    0.300000
  C      0.000000    0.771000   -0.936300
  C      0.000000   -0.771000   -0.936300
  H      0.000000    0.914000    2.222200
  H      0.000000   -0.914000    2.222200
  H      0.912300    1.305900   -1.200300
  H     -0.912300    1.305900   -1.200300
  H     -0.912300   -1.305900   -1.200300
  H      0.912300   -1.305900   -1.200300

----------------------------
CARTESIAN COORDINATES (A.U.)
----------------------------
  NO LB      ZA    FRAG     MASS         X           Y           Z
   0 C     6.0000    0    12.011    0.000000    0.000000    3.084033
   1 C     6.0000    0    12.011    0.000000    0.000000    0.566918
   2 C     6.0000    0    12.011    0.000000    1.456979   -1.769351
   3 C     6.0000    0    12.011    0.000000   -1.456979   -1.769351
   4 H     1.0000    0     1.008    0.000000    1.727210    4.199349
   5 H     1.0000    0     1.008    0.000000   -1.727210    4.199349
   6 H     1.0000    0     1.008    1.723997    2.467793   -2.268238
   7 H     1.0000    0     1.008   -1.723997    2.467793   -2.268238
   8 H     1.0000    0     1.008   -1.723997   -2.467793   -2.268238
   9 H     1.0000    0     1.008    1.723997   -2.467793   -2.268238

--------------------------------
INTERNAL COORDINATES (ANGSTROEM)
--------------------------------
 C      0   0   0     0.000000000000     0.00000000     0.00000000
 C      1   0   0     1.332000000000     0.00000000     0.00000000
 C      2   1   0     1.457010188708   148.05088964     0.00000000
 C      2   1   3     1.457010188708   148.05088964   180.00000000
 H      1   2   3     1.087994503663   122.85166680     0.00000000
 H      1   2   3     1.087994503663   122.85166680   180.00000000
 H      3   2   1     1.090002431190   117.72260444    70.99760541
 H      3   2   1     1.090002431190   117.72260444   289.00239459
 H      4   2   1     1.090002431190   117.72260444    70.99760541
 H      4   2   1     1.090002431190   117.72260444   289.00239459

---------------------------
INTERNAL COORDINATES (A.U.)
---------------------------
 C      0   0   0     0.000000000000     0.00000000     0.00000000
 C      1   0   0     2.517115210383     0.00000000     0.00000000
 C      2   1   0     2.753350230992   148.05088964     0.00000000
 C      2   1   3     2.753350230992   148.05088964   180.00000000
 H      1   2   3     2.056011647134   122.85166680     0.00000000
 H      1   2   3     2.056011647134   122.85166680   180.00000000
 H      3   2   1     2.059806080257   117.72260444    70.99760541
 H      3   2   1     2.059806080257   117.72260444   289.00239459
 H      4   2   1     2.059806080257   117.72260444    70.99760541
 H      4   2   1     2.059806080257   117.72260444   289.00239459

---------------------
BASIS SET INFORMATION
---------------------
There are 2 groups of distinct atoms

 Group   1 Type C   : 15s8p3d2f1g contracted to 7s4p3d2f1g pattern {8211111/5111/111/11/1}
 Group   2 Type H   : 7s3p2d1f contracted to 4s3p2d1f pattern {4111/111/11/1}

Atom   0C    basis set group =>   1
Atom   1C    basis set group =>   1
Atom   2C    basis set group =>   1
Atom   3C    basis set group =>   1
Atom   4H    basis set group =>   2
Atom   5H    basis set group =>   2
Atom   6H    basis set group =>   2
Atom   7H    basis set group =>   2
Atom   8H    basis set group =>   2
Atom   9H    basis set group =>   2


           ************************************************************
           *        Program running with 8 parallel MPI-processes     *
           *              working on a common directory               *
           ************************************************************
------------------------------------------------------------------------------
                             ORCA STARTUP CALCULATIONS
------------------------------------------------------------------------------
------------------------------------------------------------------------------
                   ___                                                        
                  /   \      - P O W E R E D   B Y -                         
                 /     \                                                     
                 |  |  |   _    _      __       _____    __    __             
                 |  |  |  | |  | |    /  \     |  _  \  |  |  /  |          
                  \  \/   | |  | |   /    \    | | | |  |  | /  /          
                 / \  \   | |__| |  /  /\  \   | |_| |  |  |/  /          
                |  |  |   |  __  | /  /__\  \  |    /   |      \           
                |  |  |   | |  | | |   __   |  |    \   |  |\   \          
                \     /   | |  | | |  |  |  |  | |\  \  |  | \   \       
                 \___/    |_|  |_| |__|  |__|  |_| \__\ |__|  \__/        
                                                                              
                      - O R C A' S   B I G   F R I E N D -                    
                                      &                                       
                       - I N T E G R A L  F E E D E R -                       
                                                                              
 v1 FN, 2020, v2 2021, v3 2022-2024                                           
------------------------------------------------------------------------------


----------------------
SHARK INTEGRAL PACKAGE
----------------------

Number of atoms                             ...     10
Number of basis functions                   ...    408
Number of shells                            ...    128
Maximum angular momentum                    ...      4
Integral batch strategy                     ... SHARK/LIBINT Hybrid
RI-J (if used) integral strategy            ... SPLIT-RIJ (Revised 2003 algorithm where possible)
Printlevel                                  ...      1
Contraction scheme used                     ... SEGMENTED contraction
Prescreening option                         ... SCHWARTZ
   Thresh                                   ... 2.500e-11
   Tcut                                     ... 2.500e-12
   Tpresel                                  ... 2.500e-12 
Coulomb Range Separation                    ... NOT USED
Exchange Range Separation                   ... NOT USED
Multipole approximations                    ... NOT USED
Finite Nucleus Model                        ... NOT USED
CABS basis                                  ... NOT available
Auxiliary Coulomb fitting basis             ... NOT available
Auxiliary J/K fitting basis                 ... NOT available
Auxiliary Correlation fitting basis         ... NOT available
Auxiliary 'external' fitting basis          ... NOT available

Checking pre-screening integrals            ... done (  0.0 sec) Dimension = 128
   => SHARK Basis and OBASIS are compatible. Storing Pre-screening
Shell pair information
Shell pair cut-off parameter TPreSel        ...   2.5e-12
Total number of shell pairs                 ...      8256
Shell pairs after pre-screening             ...      7738
Total number of primitive shell pairs       ...     19107
Primitive shell pairs kept                  ...     14829
          la=0 lb=0:   1246 shell pairs
          la=1 lb=0:   1660 shell pairs
          la=1 lb=1:    575 shell pairs
          la=2 lb=0:   1152 shell pairs
          la=2 lb=1:    770 shell pairs
          la=2 lb=2:    282 shell pairs
          la=3 lb=0:    672 shell pairs
          la=3 lb=1:    458 shell pairs
          la=3 lb=2:    316 shell pairs
          la=3 lb=3:    101 shell pairs
          la=4 lb=0:    208 shell pairs
          la=4 lb=1:    136 shell pairs
          la=4 lb=2:     96 shell pairs
          la=4 lb=3:     56 shell pairs
          la=4 lb=4:     10 shell pairs

Checking whether 4 symmetric matrices of dimension 408 fit in memory
:Max Core in MB      =   4096.00
 MB in use           =     12.97
 MB left             =   4083.03
 MB needed           =      2.55
 Data fit in memory  = YES
Calculating Nuclear repulsion               ... done (  0.0 sec) ENN=    109.249345578353 Eh

Diagonalization of the overlap matrix:
Smallest eigenvalue                        ... 5.265e-05
Time for diagonalization                   ...    0.013 sec
Threshold for overlap eigenvalues          ... 1.000e-07
Number of eigenvalues below threshold      ... 0
Time for construction of square roots      ...    0.008 sec
Total time needed                          ...    0.023 sec

-------------------
DFT GRID GENERATION
-------------------

General Integration Accuracy     IntAcc      ... 4.388
Radial Grid Type                 RadialGrid  ... OptM3 with GC (2021)
Angular Grid (max. ang.)         AngularGrid ... 4 (Lebedev-302)
Angular grid pruning method      GridPruning ... 4 (adaptive)
Weight generation scheme         WeightScheme... mBecke (2022)
Basis function cutoff            BFCut       ... 1.0000e-11
Integration weight cutoff        WCut        ... 1.0000e-14
Partially contracted basis set               ... off
Rotationally invariant grid construction     ... off
Angular grids for H and He will be reduced by one unit
Diffuse basis detected: some atoms will have their outermost
                        angular grid increased by 1.

Total number of grid points                  ...    44804
Total number of batches                      ...      705
Average number of points per batch           ...       63
Average number of grid points per atom       ...     4480
Grids setup in   0.1 sec
Initializing property integral containers    ... done (  0.0 sec)

SHARK setup successfully completed in   0.3 seconds

Maximum memory used throughout the entire STARTUP-calculation: 26.1 MB


           ************************************************************
           *        Program running with 8 parallel MPI-processes     *
           *              working on a common directory               *
           ************************************************************
-------------------------------------------------------------------------------
                                 ORCA GUESS
                   Start orbitals & Density for SCF / CASSCF
-------------------------------------------------------------------------------

------------
SCF SETTINGS
------------
Hamiltonian:
 Density Functional     Method          .... DFT(GTOs)
  Functional kind                       .... Exchange
  Functional name                       .... Slater exchange
  Functional family                     .... LDA
  Functional refs                              
    [ 0] P. A. M. Dirac.,  Math. Proc. Cambridge Philos. Soc. 26, 376 (1930), doi: 10.1017/S0305004100016108
    [ 1] F. Bloch.,  Z. Phys. 57, 545 (1929), doi: 10.1007/BF01340281
  Functional external parameters        .... 0
 Correlation Functional Correlation     .... No Correlation
 Gradients option       PostSCFGGA      .... off


General Settings:
 Integral files         IntName         .... /cluster/projects/nn14654k/ylvaos/basis_set_n_funcs/functionals/lda_x/C4H6/inp/C4H6_lda_x_def2qzvp
 Hartree-Fock type      HFTyp           .... RHF
 Total Charge           Charge          ....    0
 Multiplicity           Mult            ....    1
 Number of Electrons    NEL             ....   30
 Basis Dimension        Dim             ....  408
 Nuclear Repulsion      ENuc            ....    109.2493455784 Eh

Convergence Acceleration:
 AO-DIIS                CNVDIIS         .... on
   Start iteration      DIISMaxIt       ....    12
   Startup error        DIISStart       ....  0.200000
   # of expansion vecs  DIISMaxEq       ....     5
   Bias factor          DIISBfac        ....   1.050
   Max. coefficient     DIISMaxC        ....  10.000
 MO-DIIS                CNVKDIIS        .... off
 Trust-Rad. Augm. Hess. CNVTRAH         .... auto
   Auto Start mean grad. ratio tolernc. ....  1.125000
   Auto Start start iteration           ....    50
   Auto Start num. interpolation iter.  ....    10
   Max. Number of Micro iterations      ....    24
   Max. Number of Macro iterations      .... Maxiter - #DIIS iter
   Number of Davidson start vectors     ....     2
   Converg. threshold    (grad. norm)   ....   1.000e-05
   Grad. Scal. Fac. for Micro threshold ....   0.100
   Minimum threshold for Micro iter.    ....   1.000e-02
   NR start threshold (gradient norm)   ....   1.000e-04
   Initial trust radius                 ....   0.400
   Minimum AH scaling param. (alpha)    ....   1.000
   Maximum AH scaling param. (alpha)    .... 1000.000
   Quad. conv. algorithm                .... NR
   White noise on init. David. guess    .... on
   Maximum white noise                  ....   0.010
   Pseudo random numbers                .... off
   Inactive MOs                         .... canonical
   Orbital update algorithm             .... Taylor
   Preconditioner                       .... Diag
   Full preconditioner red. dimension   ....   250
 SOSCF                 CNVSOSCF           .... on
   Start iteration     SOSCFMaxIt         ....   150
   Startup grad/error  SOSCFStart         ....  0.003300
   Hessian update      SOSCFHessUp        .... L-BFGS
   Autom. constraints  SOSCFAutoConstrain .... off
 Level Shifting         CNVShift        .... on
   Level shift para.    LevelShift      ....    0.2500
   Turn off err/grad.   ShiftErr        ....    0.0010
 Zerner damping         CNVZerner       .... off
 Static damping         CNVDamp         .... on
   Fraction old density DampFac         ....    0.7000
   Max. Damping (<1)    DampMax         ....    0.9800
   Min. Damping (>=0)   DampMin         ....    0.0000
   Turn off err/grad.   DampErr         ....    0.1000

SCF Procedure:
 Maximum # iterations   MaxIter         ....   125
 SCF integral mode      SCFMode         .... Direct
   Integral package                     .... SHARK and LIBINT hybrid scheme
 Reset frequency        DirectResetFreq ....    20
 Integral Threshold     Thresh          ....  2.500e-11 Eh
 Primitive CutOff       TCut            ....  2.500e-12 Eh

Convergence Tolerance:
 Convergence Check Mode ConvCheckMode   .... Total+1el-Energy
 Convergence forced     ConvForced      .... 0
 Energy Change          TolE            ....  1.000e-08 Eh
 1-El. energy change                    ....  1.000e-05 Eh
 Orbital Gradient       TolG            ....  1.000e-05
 Orbital Rotation angle TolX            ....  1.000e-05
 DIIS Error             TolErr          ....  5.000e-07

------------------------------
INITIAL GUESS: MODEL POTENTIAL
------------------------------
Loading Hartree-Fock densities                     ... done
Calculating cut-offs                               ... done
Initializing the effective Hamiltonian             ... done
Setting up the integral package (SHARK)            ... done
Starting the Coulomb interaction                   ... done (   0.0 sec)
Making the grid                                    ... done (   0.0 sec)
Mapping shells                                     ... done
Starting the XC term evaluation                    ... done (   0.0 sec)
  promolecular density results
     # of electrons  =     29.996285088
     EX              =    -20.075320876
     EC              =      0.000000000
     EX+EC           =    -20.075320876
Transforming the Hamiltonian                       ... done (   0.0 sec)
Diagonalizing the Hamiltonian                      ... done (   0.0 sec)
Back transforming the eigenvectors                 ... done (   0.0 sec)
Now organizing SCF variables                       ... done
                      ------------------
                      INITIAL GUESS DONE (   0.1 sec)
                      ------------------
             **** ENERGY FILE WAS UPDATED (/cluster/projects/nn14654k/ylvaos/basis_set_n_funcs/functionals/lda_x/C4H6/inp/C4H6_lda_x_def2qzvp.en.tmp) ****
Finished Guess after   0.2 sec
Maximum memory used throughout the entire GUESS-calculation: 24.0 MB


           ************************************************************
           *        Program running with 8 parallel MPI-processes     *
           *              working on a common directory               *
           ************************************************************

-------------------------------------------------------------------------------------------
                                      ORCA LEAN-SCF
                              memory conserving SCF solver
-------------------------------------------------------------------------------------------

----------------------------------------D-I-I-S--------------------------------------------
Iteration    Energy (Eh)           Delta-E    RMSDP     MaxDP     DIISErr   Damp  Time(sec)
-------------------------------------------------------------------------------------------
               ***  Starting incremental Fock matrix formation  ***
    1    -152.5665268261033702     0.00e+00  1.40e-03  2.10e-02  1.81e-01  0.700   5.3
    2    -152.6257499858234610    -5.92e-02  1.13e-03  1.63e-02  8.29e-02  0.700   5.0
                               ***Turning on AO-DIIS***
    3    -152.6462474573058898    -2.05e-02  6.00e-04  7.51e-03  2.15e-02  0.700   4.9
    4    -152.6580249440214061    -1.18e-02  1.14e-03  1.49e-02  1.15e-02  0.000   4.6
    5    -152.6850533662873772    -2.70e-02  2.62e-04  3.05e-03  6.75e-03  0.000   4.9
                              *** Initializing SOSCF ***
---------------------------------------S-O-S-C-F--------------------------------------
Iteration    Energy (Eh)           Delta-E    RMSDP     MaxDP     MaxGrad    Time(sec)
--------------------------------------------------------------------------------------
    6    -152.6853737950548293    -3.20e-04  1.54e-04  1.88e-03  1.89e-03     4.8
               *** Restarting incremental Fock matrix formation ***
    7    -152.6853952179728822    -2.14e-05  1.51e-04  2.03e-03  3.13e-04     5.1
    8    -152.6853944973098578     7.21e-07  3.32e-05  3.72e-04  4.33e-04     4.4
    9    -152.6853977451314677    -3.25e-06  4.31e-05  5.72e-04  2.46e-04     4.0
   10    -152.6853971660275420     5.79e-07  7.66e-06  1.99e-04  3.20e-04     4.0
   11    -152.6853981329535372    -9.67e-07  1.53e-05  2.02e-04  3.71e-05     3.7
   12    -152.6853981341998860    -1.25e-09  4.05e-06  5.29e-05  4.07e-05     3.8
                 **** Energy Check signals convergence ****

               *****************************************************
               *                     SUCCESS                       *
               *           SCF CONVERGED AFTER  12 CYCLES          *
               *****************************************************

             **** ENERGY FILE WAS UPDATED (/cluster/projects/nn14654k/ylvaos/basis_set_n_funcs/functionals/lda_x/C4H6/inp/C4H6_lda_x_def2qzvp.en.tmp) ****

----------------
TOTAL SCF ENERGY
----------------

Total Energy       :       -152.68539815658681 Eh           -4154.78091 eV

Components:
Nuclear Repulsion  :        109.24934557835338 Eh            2972.82583 eV
Electronic Energy  :       -261.93474373494018 Eh           -7127.60674 eV
One Electron Energy:       -423.86273703160907 Eh          -11533.89145 eV
Two Electron Energy:        161.92799329666886 Eh            4406.28471 eV

Virial components:
Potential Energy   :       -305.55984872874490 Eh           -8314.70620 eV
Kinetic Energy     :        152.87445057215808 Eh            4159.92529 eV
Virial Ratio       :          1.99876334851989

DFT components:
N(Alpha)           :       14.999993431526 electrons
N(Beta)            :       14.999993431526 electrons
N(Total)           :       29.999986863052 electrons
E(X)               :      -20.391875174032 Eh       
E(C)               :        0.000000000000 Eh       
E(XC)              :      -20.391875174032 Eh       

---------------
SCF CONVERGENCE
---------------

  Last Energy change         ...    1.2463e-09  Tolerance :   1.0000e-08
  Last MAX-Density change    ...    5.2924e-05  Tolerance :   1.0000e-07
  Last RMS-Density change    ...    4.0543e-06  Tolerance :   5.0000e-09
  Last DIIS Error            ...    1.8878e-03  Tolerance :   5.0000e-07
  Last Orbital Gradient      ...    4.0658e-05  Tolerance :   1.0000e-05
  Last Orbital Rotation      ...    5.4485e-05  Tolerance :   1.0000e-05


----------------
ORBITAL ENERGIES
----------------

  NO   OCC          E(Eh)            E(eV) 
   0   2.0000      -9.734223      -264.8817 
   1   2.0000      -9.727353      -264.6947 
   2   2.0000      -9.727235      -264.6915 
   3   2.0000      -9.710503      -264.2362 
   4   2.0000      -0.746441       -20.3117 
   5   2.0000      -0.596064       -16.2197 
   6   2.0000      -0.503924       -13.7125 
   7   2.0000      -0.433340       -11.7918 
   8   2.0000      -0.389742       -10.6054 
   9   2.0000      -0.376971       -10.2579 
  10   2.0000      -0.335391        -9.1265 
  11   2.0000      -0.283145        -7.7048 
  12   2.0000      -0.238425        -6.4879 
  13   2.0000      -0.213946        -5.8218 
  14   2.0000      -0.189381        -5.1533 
  15   0.0000      -0.002148        -0.0584 
  16   0.0000       0.035046         0.9536 
  17   0.0000       0.053783         1.4635 
  18   0.0000       0.062969         1.7135 
  19   0.0000       0.088466         2.4073 
  20   0.0000       0.089605         2.4383 
  21   0.0000       0.094748         2.5782 
  22   0.0000       0.118364         3.2208 
  23   0.0000       0.124428         3.3859 
  24   0.0000       0.136890         3.7250 
  25   0.0000       0.160698         4.3728 
*Only the first 10 virtual orbitals were printed.

                    ********************************
                    * MULLIKEN POPULATION ANALYSIS *
                    ********************************

-----------------------
MULLIKEN ATOMIC CHARGES
-----------------------
   0 C :   -0.222117
   1 C :    0.099540
   2 C :   -0.210025
   3 C :   -0.210028
   4 H :    0.078854
   5 H :    0.078855
   6 H :    0.096230
   7 H :    0.096230
   8 H :    0.096231
   9 H :    0.096231
Sum of atomic charges:   -0.0000000

--------------------------------
MULLIKEN REDUCED ORBITAL CHARGES
--------------------------------
  0 C s       :     3.314933  s :     3.314933
      pz      :     0.875888  p :     2.823381
      px      :     0.992896
      py      :     0.954597
      dz2     :     0.000682  d :     0.074958
      dxz     :     0.010129
      dyz     :     0.061357
      dx2y2   :     0.002639
      dxy     :     0.000150
      f0      :     0.000661  f :     0.008416
      f+1     :     0.001920
      f-1     :     0.005723
      f+2     :     0.000248
      f-2     :     0.000078
      f+3     :    -0.000031
      f-3     :    -0.000183
      g0      :     0.000032  g :     0.000429
      g+1     :     0.000196
      g-1     :     0.000257
      g+2     :     0.000002
      g-2     :    -0.000002
      g+3     :    -0.000008
      g-3     :    -0.000059
      g+4     :     0.000010
      g-4     :    -0.000000

  1 C s       :     3.261127  s :     3.261127
      pz      :     0.641983  p :     2.455630
      px      :     0.920938
      py      :     0.892709
      dz2     :     0.039337  d :     0.165569
      dxz     :     0.045837
      dyz     :     0.060416
      dx2y2   :     0.009481
      dxy     :     0.010497
      f0      :     0.005766  f :     0.016489
      f+1     :     0.002942
      f-1     :     0.002394
      f+2     :     0.002257
      f-2     :     0.002899
      f+3     :     0.000244
      f-3     :    -0.000014
      g0      :     0.000499  g :     0.001645
      g+1     :     0.000302
      g-1     :     0.000378
      g+2     :     0.000175
      g-2     :     0.000200
      g+3     :     0.000061
      g-3     :     0.000021
      g+4     :     0.000007
      g-4     :     0.000003

  2 C s       :     3.248868  s :     3.248868
      pz      :     1.001969  p :     2.860655
      px      :     0.981714
      py      :     0.876972
      dz2     :     0.018945  d :     0.085353
      dxz     :     0.016174
      dyz     :     0.019992
      dx2y2   :     0.011729
      dxy     :     0.018513
      f0      :     0.003535  f :     0.014391
      f+1     :     0.001577
      f-1     :     0.001047
      f+2     :     0.002585
      f-2     :     0.001429
      f+3     :     0.002775
      f-3     :     0.001443
      g0      :     0.000081  g :     0.000759
      g+1     :     0.000011
      g-1     :     0.000202
      g+2     :     0.000065
      g-2     :     0.000089
      g+3     :     0.000042
      g-3     :     0.000136
      g+4     :     0.000068
      g-4     :     0.000065

  3 C s       :     3.248868  s :     3.248868
      pz      :     1.001970  p :     2.860658
      px      :     0.981715
      py      :     0.876973
      dz2     :     0.018945  d :     0.085353
      dxz     :     0.016174
      dyz     :     0.019992
      dx2y2   :     0.011729
      dxy     :     0.018513
      f0      :     0.003535  f :     0.014391
      f+1     :     0.001577
      f-1     :     0.001047
      f+2     :     0.002585
      f-2     :     0.001429
      f+3     :     0.002775
      f-3     :     0.001443
      g0      :     0.000081  g :     0.000759
      g+1     :     0.000011
      g-1     :     0.000202
      g+2     :     0.000065
      g-2     :     0.000089
      g+3     :     0.000042
      g-3     :     0.000136
      g+4     :     0.000068
      g-4     :     0.000065

  4 H s       :     0.875898  s :     0.875898
      pz      :     0.009110  p :     0.039853
      px      :     0.018434
      py      :     0.012310
      dz2     :     0.001445  d :     0.005105
      dxz     :     0.000919
      dyz     :     0.000546
      dx2y2   :     0.000638
      dxy     :     0.001557
      f0      :     0.000017  f :     0.000290
      f+1     :     0.000004
      f-1     :     0.000111
      f+2     :     0.000001
      f-2     :     0.000071
      f+3     :     0.000065
      f-3     :     0.000020

  5 H s       :     0.875897  s :     0.875897
      pz      :     0.009110  p :     0.039853
      px      :     0.018434
      py      :     0.012310
      dz2     :     0.001445  d :     0.005105
      dxz     :     0.000919
      dyz     :     0.000546
      dx2y2   :     0.000638
      dxy     :     0.001557
      f0      :     0.000017  f :     0.000290
      f+1     :     0.000004
      f-1     :     0.000111
      f+2     :     0.000001
      f-2     :     0.000071
      f+3     :     0.000065
      f-3     :     0.000020

  6 H s       :     0.852575  s :     0.852575
      pz      :     0.017276  p :     0.045135
      px      :     0.011300
      py      :     0.016558
      dz2     :     0.000831  d :     0.005758
      dxz     :     0.001417
      dyz     :     0.000762
      dx2y2   :     0.001772
      dxy     :     0.000976
      f0      :     0.000022  f :     0.000302
      f+1     :     0.000058
      f-1     :     0.000035
      f+2     :     0.000024
      f-2     :     0.000044
      f+3     :     0.000108
      f-3     :     0.000010

  7 H s       :     0.852575  s :     0.852575
      pz      :     0.017276  p :     0.045134
      px      :     0.011300
      py      :     0.016558
      dz2     :     0.000831  d :     0.005758
      dxz     :     0.001417
      dyz     :     0.000762
      dx2y2   :     0.001772
      dxy     :     0.000976
      f0      :     0.000022  f :     0.000302
      f+1     :     0.000058
      f-1     :     0.000035
      f+2     :     0.000024
      f-2     :     0.000044
      f+3     :     0.000108
      f-3     :     0.000010

  8 H s       :     0.852574  s :     0.852574
      pz      :     0.017276  p :     0.045134
      px      :     0.011300
      py      :     0.016558
      dz2     :     0.000831  d :     0.005758
      dxz     :     0.001417
      dyz     :     0.000762
      dx2y2   :     0.001772
      dxy     :     0.000976
      f0      :     0.000022  f :     0.000302
      f+1     :     0.000058
      f-1     :     0.000035
      f+2     :     0.000024
      f-2     :     0.000044
      f+3     :     0.000108
      f-3     :     0.000010

  9 H s       :     0.852575  s :     0.852575
      pz      :     0.017276  p :     0.045134
      px      :     0.011300
      py      :     0.016558
      dz2     :     0.000831  d :     0.005758
      dxz     :     0.001417
      dyz     :     0.000762
      dx2y2   :     0.001772
      dxy     :     0.000976
      f0      :     0.000022  f :     0.000302
      f+1     :     0.000058
      f-1     :     0.000035
      f+2     :     0.000024
      f-2     :     0.000044
      f+3     :     0.000108
      f-3     :     0.000010



                     *******************************
                     * LOEWDIN POPULATION ANALYSIS *
                     *******************************

----------------------
LOEWDIN ATOMIC CHARGES
----------------------
   0 C :    0.179134
   1 C :   -0.120871
   2 C :    0.154679
   3 C :    0.154679
   4 H :   -0.080214
   5 H :   -0.080214
   6 H :   -0.051798
   7 H :   -0.051798
   8 H :   -0.051798
   9 H :   -0.051798

-------------------------------
LOEWDIN REDUCED ORBITAL CHARGES
-------------------------------
  0 C s       :     2.626393  s :     2.626393
      pz      :     1.019903  p :     2.815758
      px      :     0.824203
      py      :     0.971652
      dz2     :     0.074339  d :     0.308688
      dxz     :     0.041127
      dyz     :     0.173951
      dx2y2   :     0.019013
      dxy     :     0.000258
      f0      :     0.013867  f :     0.061589
      f+1     :     0.013135
      f-1     :     0.026351
      f+2     :     0.004940
      f-2     :     0.000154
      f+3     :     0.000860
      f-3     :     0.002282
      g0      :     0.002363  g :     0.008437
      g+1     :     0.001816
      g-1     :     0.003093
      g+2     :     0.000083
      g-2     :     0.000005
      g+3     :     0.000175
      g-3     :     0.000646
      g+4     :     0.000256
      g-4     :     0.000000

  1 C s       :     2.591176  s :     2.591176
      pz      :     1.056882  p :     2.694732
      px      :     0.759378
      py      :     0.878472
      dz2     :     0.203794  d :     0.675795
      dxz     :     0.170049
      dyz     :     0.217010
      dx2y2   :     0.035777
      dxy     :     0.049164
      f0      :     0.048289  f :     0.140767
      f+1     :     0.017206
      f-1     :     0.034357
      f+2     :     0.014327
      f-2     :     0.022440
      f+3     :     0.003425
      f-3     :     0.000722
      g0      :     0.005978  g :     0.018402
      g+1     :     0.002927
      g-1     :     0.004707
      g+2     :     0.001418
      g-2     :     0.001983
      g+3     :     0.000885
      g-3     :     0.000361
      g+4     :     0.000062
      g-4     :     0.000081

  2 C s       :     2.550808  s :     2.550808
      pz      :     0.895559  p :     2.717686
      px      :     0.952780
      py      :     0.869347
      dz2     :     0.083259  d :     0.461051
      dxz     :     0.059572
      dyz     :     0.114502
      dx2y2   :     0.069245
      dxy     :     0.134473
      f0      :     0.026357  f :     0.107377
      f+1     :     0.010089
      f-1     :     0.010269
      f+2     :     0.024609
      f-2     :     0.008673
      f+3     :     0.014518
      f-3     :     0.012861
      g0      :     0.000880  g :     0.008399
      g+1     :     0.000481
      g-1     :     0.002443
      g+2     :     0.000797
      g-2     :     0.000874
      g+3     :     0.000289
      g-3     :     0.001336
      g+4     :     0.000367
      g-4     :     0.000931

  3 C s       :     2.550808  s :     2.550808
      pz      :     0.895559  p :     2.717687
      px      :     0.952780
      py      :     0.869347
      dz2     :     0.083259  d :     0.461051
      dxz     :     0.059572
      dyz     :     0.114502
      dx2y2   :     0.069245
      dxy     :     0.134473
      f0      :     0.026357  f :     0.107377
      f+1     :     0.010089
      f-1     :     0.010269
      f+2     :     0.024609
      f-2     :     0.008673
      f+3     :     0.014518
      f-3     :     0.012861
      g0      :     0.000880  g :     0.008399
      g+1     :     0.000481
      g-1     :     0.002443
      g+2     :     0.000797
      g-2     :     0.000874
      g+3     :     0.000289
      g-3     :     0.001336
      g+4     :     0.000367
      g-4     :     0.000931

  4 H s       :     0.805747  s :     0.805747
      pz      :     0.059067  p :     0.202341
      px      :     0.059594
      py      :     0.083680
      dz2     :     0.015016  d :     0.062913
      dxz     :     0.007332
      dyz     :     0.015627
      dx2y2   :     0.011507
      dxy     :     0.013433
      f0      :     0.000798  f :     0.009212
      f+1     :     0.000082
      f-1     :     0.002900
      f+2     :     0.001643
      f-2     :     0.001571
      f+3     :     0.001164
      f-3     :     0.001054

  5 H s       :     0.805747  s :     0.805747
      pz      :     0.059067  p :     0.202341
      px      :     0.059594
      py      :     0.083680
      dz2     :     0.015016  d :     0.062913
      dxz     :     0.007332
      dyz     :     0.015627
      dx2y2   :     0.011507
      dxy     :     0.013433
      f0      :     0.000798  f :     0.009212
      f+1     :     0.000082
      f-1     :     0.002900
      f+2     :     0.001643
      f-2     :     0.001571
      f+3     :     0.001164
      f-3     :     0.001054

  6 H s       :     0.782088  s :     0.782088
      pz      :     0.062083  p :     0.196159
      px      :     0.079486
      py      :     0.054590
      dz2     :     0.008525  d :     0.064119
      dxz     :     0.015271
      dyz     :     0.006763
      dx2y2   :     0.018942
      dxy     :     0.014618
      f0      :     0.000817  f :     0.009432
      f+1     :     0.001445
      f-1     :     0.000671
      f+2     :     0.000653
      f-2     :     0.001574
      f+3     :     0.002587
      f-3     :     0.001686

  7 H s       :     0.782088  s :     0.782088
      pz      :     0.062083  p :     0.196159
      px      :     0.079486
      py      :     0.054590
      dz2     :     0.008525  d :     0.064119
      dxz     :     0.015271
      dyz     :     0.006763
      dx2y2   :     0.018942
      dxy     :     0.014618
      f0      :     0.000817  f :     0.009432
      f+1     :     0.001445
      f-1     :     0.000671
      f+2     :     0.000653
      f-2     :     0.001574
      f+3     :     0.002587
      f-3     :     0.001686

  8 H s       :     0.782088  s :     0.782088
      pz      :     0.062083  p :     0.196159
      px      :     0.079486
      py      :     0.054590
      dz2     :     0.008525  d :     0.064119
      dxz     :     0.015271
      dyz     :     0.006763
      dx2y2   :     0.018942
      dxy     :     0.014618
      f0      :     0.000817  f :     0.009432
      f+1     :     0.001445
      f-1     :     0.000671
      f+2     :     0.000653
      f-2     :     0.001574
      f+3     :     0.002587
      f-3     :     0.001686

  9 H s       :     0.782088  s :     0.782088
      pz      :     0.062083  p :     0.196159
      px      :     0.079486
      py      :     0.054590
      dz2     :     0.008525  d :     0.064119
      dxz     :     0.015271
      dyz     :     0.006763
      dx2y2   :     0.018942
      dxy     :     0.014618
      f0      :     0.000817  f :     0.009432
      f+1     :     0.001445
      f-1     :     0.000671
      f+2     :     0.000653
      f-2     :     0.001574
      f+3     :     0.002587
      f-3     :     0.001686



                      *****************************
                      * MAYER POPULATION ANALYSIS *
                      *****************************

  NA   - Mulliken gross atomic population
  ZA   - Total nuclear charge
  QA   - Mulliken gross atomic charge
  VA   - Mayer's total valence
  BVA  - Mayer's bonded valence
  FA   - Mayer's free valence

  ATOM       NA         ZA         QA         VA         BVA        FA
  0 C      6.2221     6.0000    -0.2221     3.8827     3.8827    -0.0000
  1 C      5.9005     6.0000     0.0995     3.8227     3.8227    -0.0000
  2 C      6.2100     6.0000    -0.2100     3.9051     3.9051    -0.0000
  3 C      6.2100     6.0000    -0.2100     3.9051     3.9051    -0.0000
  4 H      0.9211     1.0000     0.0789     1.0096     1.0096    -0.0000
  5 H      0.9211     1.0000     0.0789     1.0096     1.0096    -0.0000
  6 H      0.9038     1.0000     0.0962     1.0218     1.0218    -0.0000
  7 H      0.9038     1.0000     0.0962     1.0218     1.0218    -0.0000
  8 H      0.9038     1.0000     0.0962     1.0218     1.0218    -0.0000
  9 H      0.9038     1.0000     0.0962     1.0218     1.0218     0.0000

  Mayer bond orders larger than 0.100000
B(  0-C ,  1-C ) :   1.8241 B(  0-C ,  4-H ) :   0.9541 B(  0-C ,  5-H ) :   0.9541 
B(  1-C ,  2-C ) :   0.9463 B(  1-C ,  3-C ) :   0.9463 B(  2-C ,  3-C ) :   0.9328 
B(  2-C ,  6-H ) :   0.9637 B(  2-C ,  7-H ) :   0.9637 B(  3-C ,  8-H ) :   0.9637 
B(  3-C ,  9-H ) :   0.9637 

-------
TIMINGS
-------

Total SCF time: 0 days 0 hours 0 min 58 sec 

Total time                  ....      58.317 sec
Sum of individual times     ....      54.908 sec  ( 94.2%)

SCF preparation             ....       0.136 sec  (  0.2%)
Fock matrix formation       ....      54.092 sec  ( 92.8%)
  Startup                   ....       0.015 sec  (  0.0% of F)
  Coulomb formation         ....      56.337 sec  (104.1% of F)
  XC integration            ....       0.924 sec  (  1.7% of F)
    Basis function eval.    ....       0.091 sec  (  9.8% of XC)
    Density eval.           ....       0.248 sec  ( 26.9% of XC)
    XC-Functional eval.     ....       0.012 sec  (  1.3% of XC)
    XC-Potential eval.      ....       0.351 sec  ( 38.0% of XC)
Diagonalization             ....       0.000 sec  (  0.0%)
Density matrix formation    ....       0.098 sec  (  0.2%)
Total Energy calculation    ....       0.032 sec  (  0.1%)
Population analysis         ....       0.032 sec  (  0.1%)
Orbital Transformation      ....       0.064 sec  (  0.1%)
Orbital Orthonormalization  ....       0.000 sec  (  0.0%)
DIIS solution               ....       0.256 sec  (  0.4%)
SOSCF solution              ....       0.199 sec  (  0.3%)
Finished LeanSCF after  58.4 sec

Maximum memory used throughout the entire LEANSCF-calculation: 39.2 MB


           ************************************************************
           *        Program running with 8 parallel MPI-processes     *
           *              working on a common directory               *
           ************************************************************

------------------------------------------------------------------------------
                         ORCA PROPERTY INTEGRAL CALCULATIONS
------------------------------------------------------------------------------

GBWName                                   ... /cluster/projects/nn14654k/ylvaos/basis_set_n_funcs/functionals/lda_x/C4H6/inp/C4H6_lda_x_def2qzvp.gbw
Number of atoms                           ...     10
Number of basis functions                 ...    408
Max core memory                           ...   4096 MB

Dipole integrals                          ... YES
Quadrupole integrals                      ... YES
Linear momentum integrals                 ...  NO
Angular momentum integrals                ...  NO
Higher moments length integrals           ...  NO
Higher moments velocity integrals         ...  NO
Kinetic energy integrals                  ...  NO
GIAO right hand sides                     ...  NO
GIAO dipole derivative integrals          ...  NO
SOC integrals                             ...  NO
EPR diamagnetic integrals (GIAO)          ...  NO
EPR gauge integrals                       ...  NO
Field gradient integrals                  ...  NO (   0 nuclei)
Spin-dipole/Fermi contact integrals       ...  NO (   0 nuclei)
Contact density integrals                 ...  NO (   0 nuclei)
Nucleus-orbit integrals                   ...  NO (   0 nuclei)
Geometric perturbations                   ...  NO (  10 nuclei)

Choice of electric origin   ... Center of mass
Position of electric origin ... (  0.0000,  0.0000,  0.0124) 
Choice of magnetic origin   ... GIAO
Position of magnetic origin ... (  0.0000,  0.0000,  0.0000) 

Calculating integrals                     ... Electric Dipole (Length)     done (  0.0 sec)
Calculating integrals                     ... Electric Quadrupole (Length) done (  0.0 sec)

Property integrals calculated in   0.0 sec

Maximum memory used throughout the entire PROPINT-calculation: 27.1 MB
------------------------------------------------------------------------------
                           ORCA ORBITAL LOCALIZATION
------------------------------------------------------------------------------

Input orbitals are from                  ... /cluster/projects/nn14654k/ylvaos/basis_set_n_funcs/functionals/lda_x/C4H6/inp/C4H6_lda_x_def2qzvp.gbw
Output orbitals are to                   ... /cluster/projects/nn14654k/ylvaos/basis_set_n_funcs/functionals/lda_x/C4H6/inp/C4H6_lda_x_def2qzvp.loc
Max. number of iterations                ... 128
Localizations seeded randomly            ... on
Convergence tolerance                    ... 1.000e-06
Threshold for strong local MOs           ... 9.500e-01
Threshold for bond MOs                   ... 8.500e-01
Operator                                 ... 0
Orbital range for localization           ... 4 to 14
Localization criterion                   ... NEW-BOYS
Doing the dipole integrals               ... o.k.
Initial value of the localization sum :    55.442384
ITERATION   0 : L=   80.7606991143 DL=  2.53e+01 (AVERGE_DL)=    0.6784784498 
ITERATION   1 : L=   85.9879821347 DL=  5.23e+00 (AVERGE_DL)=    0.3082880300 
ITERATION   2 : L=   86.1092462830 DL=  1.21e-01 (AVERGE_DL)=    0.0469553266 
ITERATION   3 : L=   86.1098827070 DL=  6.36e-04 (AVERGE_DL)=    0.0034016681 
ITERATION   4 : L=   86.1098931893 DL=  1.05e-05 (AVERGE_DL)=    0.0004365617 
ITERATION   5 : L=   86.1098932973 DL=  1.08e-07 (AVERGE_DL)=    0.0000443263 
LOCALIZATION SUM CONVERGED


--------------------------------------------------------------------------------
                    LOCALIZED MOLECULAR ORBITAL COMPOSITIONS
--------------------------------------------------------------------------------

The Mulliken populations for each LMO on each atom are computed
The LMO`s will be ordered according to atom index and type
  (A) Strongly localized MO`s have populations of >=0.950 on one atom
  (B) Two center bond orbitals have populations of >=0.850 on two atoms
  (C) Other MO`s are considered to be `delocalized`

FOUND  -   0 strongly local MO`s
       -  11 two center bond MO`s
       -   0 significantly delocalized MO`s

Bond-like localized orbitals:
MO  14:   9H  -   0.458077  and   3C  -   0.554068
MO  13:   8H  -   0.458077  and   3C  -   0.554069
MO  12:   7H  -   0.458077  and   2C  -   0.554068
MO  11:   6H  -   0.458077  and   2C  -   0.554068
MO  10:   5H  -   0.473367  and   0C  -   0.538316
MO   9:   4H  -   0.473368  and   0C  -   0.538315
MO   8:   3C  -   0.505063  and   2C  -   0.505062
MO   7:   3C  -   0.542309  and   1C  -   0.499246
MO   6:   2C  -   0.542308  and   1C  -   0.499247
MO   5:   1C  -   0.494305  and   0C  -   0.521331
MO   4:   1C  -   0.494305  and   0C  -   0.521331
Localized MO's were stored in: /cluster/projects/nn14654k/ylvaos/basis_set_n_funcs/functionals/lda_x/C4H6/inp/C4H6_lda_x_def2qzvp.loc

-------------------------   --------------------
FINAL SINGLE POINT ENERGY      -152.685398156587
-------------------------   --------------------



           ************************************************************
           *        Program running with 8 parallel MPI-processes     *
           *              working on a common directory               *
           ************************************************************

------------------------------------------------------------------------------
                              ORCA PROPERTY CALCULATIONS
------------------------------------------------------------------------------

GBWName                                 ... /cluster/projects/nn14654k/ylvaos/basis_set_n_funcs/functionals/lda_x/C4H6/inp/C4H6_lda_x_def2qzvp.gbw
Number of atoms                         ...     10
Number of basis functions               ...    408
Max core memory                         ...   4096 MB

Electric properties:
Dipole moment                           ... YES
Quadrupole moment                       ... YES
Static polarizability (Dipole/Dipole)   ...  NO
Static polarizability (Dipole/Quad.)    ...  NO
Static polarizability (Quad./Quad.)     ...  NO
Static polarizability (Velocity)        ...  NO
Static hyperpolarizability              ...  NO

Atomic electric properties:
Dipole moment                           ...  NO
Quadrupole moment                       ...  NO
Static polarizability                   ...  NO

Choice of electric origin               ... Center of mass
Position of electric origin             ...     0.000000     0.000000     0.012360

General magnetic properties:
Magnetizability                         ...  NO

EPR properties:
g-Tensor (aka g-matrix)                 ...  NO
Zero-Field splitting spin-orbit         ...  NO
Zero-field splitting spin-spin          ...  NO
Hyperfine couplings                     ...  NO (   0 nuclei)
Quadrupole couplings                    ...  NO (   0 nuclei)
Contact density                         ...  NO (   0 nuclei)

NMR properties:
Chemical shifts                         ...  NO (   0 nuclei)
Spin-rotation constants                 ...  NO (   0 nuclei)
Spin-spin couplings                     ...  NO (   0 nuclei,    0 pairs)

Choice of magnetic origin               ... GIAO
Position of magnetic origin             ...     0.000000     0.000000     0.000000

Properties with geometric perturbations:
SCF Hessian                             ...  NO
IR spectrum                             ...  NO
VCD spectrum                            ...  NO
X-ray spectroscopy properties:
SCF XES/XAS/RIXS spectra                ...  NO

SCF SOC stabilization energy            ...  NO
Diagonal Born-Oppenheimer correction    ...  NO

-------------
DIPOLE MOMENT
-------------

Method             : SCF
Type of density    : Electron Density
Multiplicity       :   1
Irrep              :   0
Energy             :  -152.6853981565868139 Eh
Basis              : AO
                                X                 Y                 Z
Electronic contribution:     -0.000000004       0.000000024       0.187786501
Nuclear contribution   :      0.000000000       0.000000000      -0.371559272
                        -----------------------------------------
Total Dipole Moment    :     -0.000000004       0.000000024      -0.183772771
                        -----------------------------------------
Magnitude (a.u.)       :      0.183772771
Magnitude (Debye)      :      0.467113261



--------------------
Rotational spectrum 
--------------------
 
Rotational constants in cm-1:             0.643527             0.230144             0.181788 
Rotational constants in MHz :         19292.450199          6899.535423          5449.866904 

Dipole components along the rotational axes: 
x,y,z [a.u.] :    -0.183773     0.000000    -0.000000 
x,y,z [Debye]:    -0.467113     0.000000    -0.000000 

 

Dipole moment calculation done in   0.0 sec 

-----------------
QUADRUPOLE MOMENT
-----------------

Method             : SCF
Type of density    : Electron Density
Multiplicity       :   1
Irrep              :   0
Energy             :  -152.6853981565868139 Eh
Basis              : AO

                XX              YY              ZZ              XY              XZ              YZ
  NUC       11.888664720    55.799971245   152.416444257     0.000000000     0.000000000     0.000000000
  EL       -31.613120022   -74.506768358  -171.861720056    -0.000000014     0.000000022    -0.000000076
  TOT      -19.724455302   -18.706797114   -19.445275799    -0.000000014     0.000000022    -0.000000076 (a.u.)
           -26.530066957   -25.161281890   -26.154560978    -0.000000019     0.000000030    -0.000000102 (Buckingham)

diagonalized tensor:
           -19.724455302   -19.445275799   -18.706797114 (a.u.)
           -26.530066957   -26.154560978   -25.161281890 (Buckingham)
            -1.744291046    -0.617773108     2.362064154 (traceless form in Buckingham)

            -1.000000000     0.000000080    -0.000000014
            -0.000000014     0.000000103     1.000000000
             0.000000080     1.000000000    -0.000000103
        
Isotropic quadrupole :   -19.292176072

Quadrupole moment calculation done in   0.0 sec (  0.0 sec for integrals)

Maximum memory used throughout the entire PROP-calculation: 23.6 MB

--------------------------------
SUGGESTED CITATIONS FOR THIS RUN
--------------------------------

Below you find a list of papers that are relevant to this ORCA run
We neither can nor want to force you to cite these papers, but we appreciate if you do
You receive ORCA, which is the product of decades of hard work by many enthusiastic individuals, for free
The only thing we kindly ask in return is that you cite our papers,
We deeply appreciate it, if you show your appreciation for ORCA by not just citing the generic ORCA reference.

Please note that relegating all ORCA citations to the supporting information does *not* help us.
SI sections are not indexed - citations you put there will not count into any citation statistics
But we need these citations in order to attract the funding resources that allow us to do what we are doing

Therefore, if you are a happy ORCA user, please consider citing a few of the papers listed below in the main body of your paper

In addition to the list printed below, the program has created the file /cluster/projects/nn14654k/ylvaos/basis_set_n_funcs/functionals/lda_x/C4H6/inp/C4H6_lda_x_def2qzvp.bibtex that contains the list in bibtex format
You can import this file easily into all common literature databanks and citation aid programs

It goes without saying that in many instances, there are alternative algorithms to achieve similar
results as the ones you have gotten from ORCA. It is, of course, also the case that in some instances
ORCA just re-implements algorithms worked out by others. We are fully aware of that and we are also
fully appreciative of our colleagues work. Hence this citation list should not be read as indicating
that the listed papers, which are focused on our own work, are the only ones worth citing. It simply
meant to make it easier for users to cite ORCA specific papers. It is not a substitute for doing your
own literature research and citing the relevant literature in a scientifically appropriate manner.

List of essential papers. We consider these as the minimum necessary citations

  1. Neese, F.
     Software update: the ORCA program system, version 6.0
     WIRES Comput. Molec. Sci. 2025 15(1), e70019
     doi.org/10.1002/wcms.70019

List of papers to cite with high priority. The work reported in these papers was absolutely
necessary for this run to complete.
Our perspective: the developers of density functionals and basis sets usually get cited in chemistry papers
Good! But without the algorithms to do something with them, the functionals or basis sets would not do anything.
Hence, in our opinion, the algorithm design and method developments papers are equally worthy of getting cited

  1. Lehtola, S.; Steigemann, C.; Oliveira, M.; Marques, M.
     Recent developments in Libxc - A comprehensive library of functionals for density functional theory
     Software X 2018 7 , 
     doi.org/10.1016/j.softx.2017.11.002
  2. Neese, F.
     The SHARK Integral Generation and Digestion System
     J. Comp. Chem. 2022 44(3), 381
     doi.org/10.1002/jcc.26942

List of suggested additional citations. These are papers that are important in the 'surrounding' of 
of this run, or papers that preceded the highly important papers. If you like your results we are grateful for a citation.

  1. Neese, F.
     The ORCA program system
     WIRES Comput. Molec. Sci. 2012 2(1), 73-78
     doi.org/10.1002/wcms.81
  2. Neese, F.
     Software update: the ORCA program system, version 4.0
     WIRES Comput. Molec. Sci. 2018 8(1), 1-6
     doi.org/10.1002/wcms.1327
  3. Neese, F.; Wennmohs, F.; Becker, U.; Riplinger, C.
     The ORCA quantum chemistry program package
     J. Chem. Phys. 2020 152(22), 224108
     doi.org/10.1063/5.0004608
  4. Neese, F.
     Software update: The ORCA program system—Version 5.0
     WIRES Comput. Molec. Sci. 2022 12(1), e1606
     doi.org/10.1002/wcms.1606

List of optional additional citations

  1. Neese, F.
     Approximate second-order SCF convergence for spin unrestricted wavefunctions
     Chem. Phys. Lett. 2000 325(1-3), 93-98
     doi.org/10.1016/s0009-2614(00)00662-x

Timings for individual modules:

Sum of individual times          ...       60.137 sec (=   1.002 min)
Startup calculation              ...        0.574 sec (=   0.010 min)   1.0 %
SCF iterations                   ...       58.972 sec (=   0.983 min)  98.1 %
Property integrals               ...        0.297 sec (=   0.005 min)   0.5 %
Property calculations            ...        0.280 sec (=   0.005 min)   0.5 %
Orbital localization             ...        0.014 sec (=   0.000 min)   0.0 %
                             ****ORCA TERMINATED NORMALLY****
TOTAL RUN TIME: 0 days 0 hours 1 minutes 0 seconds 802 msec
