
                                 *****************
                                 * O   R   C   A *
                                 *****************

                                            #,                                       
                                            ###                                      
                                            ####                                     
                                            #####                                    
                                            ######                                   
                                           ########,                                 
                                     ,,################,,,,,                         
                               ,,#################################,,                 
                          ,,##########################################,,             
                       ,#########################################, ''#####,          
                    ,#############################################,,   '####,        
                  ,##################################################,,,,####,       
                ,###########''''           ''''###############################       
              ,#####''   ,,,,##########,,,,          '''####'''          '####       
            ,##' ,,,,###########################,,,                        '##       
           ' ,,###''''                  '''############,,,                           
         ,,##''                                '''############,,,,        ,,,,,,###''
      ,#''                                            '''#######################'''  
     '                                                          ''''####''''         
             ,#######,   #######,   ,#######,      ##                                
            ,#'     '#,  ##    ##  ,#'     '#,    #''#        ,####,    ,#,          
            ##       ##  ##   ,#'  ##            #'  '#       #'       ,# #          
            ##       ##  #######   ##           ,######,      #####,      #          
            '#,     ,#'  ##    ##  '#,     ,#' ,#      #,     #,   #      #          
             '#######'   ##     ##  '#######'  #'      '#     '####' #    #          



                #########################################################
                #                        -***-                          #
                #          Department of theory and spectroscopy        #
                #                                                       #
                #                      Frank Neese                      #
                #                                                       #
                #     Directorship, Architecture, Infrastructure        #
                #                    SHARK, DRIVERS                     #
                #        Core code/Algorithms in most modules           #
                #                                                       #
                #        Max Planck Institute fuer Kohlenforschung      #
                #                Kaiser Wilhelm Platz 1                 #
                #                 D-45470 Muelheim/Ruhr                 #
                #                      Germany                          #
                #                                                       #
                #                  All rights reserved                  #
                #                        -***-                          #
                #########################################################


                         Program Version 6.1.1  -  RELEASE   -
                                (GIT: $487d211c$)
                          ($2025-11-21 10:33:24 +0100$)


 With contributions from (in alphabetic order):
[Max-Planck-Institut fuer Kohlenforschung]                               
  Daniel Aravena         : Magnetic Suceptibility                        
  Michael Atanasov       : Ab Initio Ligand Field Theory (pilot matlab implementation)
  Alexander A. Auer      : GIAO ZORA, VPT2 properties, NMR spectrum      
  Ute Becker             : All parallelization in ORCA, NUMFREQ, NUMCALC 
  Giovanni Bistoni       : ED, misc. LED, open-shell LED, HFLD           
  Dmytro Bykov           : pre 5.0 version of the SCF Hessian            
  Marcos Casanova-Páez   : Triplet and SCS-CIS(D). UHF-(DLPNO)-IP/EA/STEOM-CCSD. UHF-CVS-IP/STEOM-CCSD   
  Vijay G. Chilkuri      : MRCI spin determinant printing, contributions to CSF-ICE 
  Pauline Colinet        : FMM embedding                                 
  Dipayan Datta          : RHF DLPNO-CCSD density                        
  Achintya Kumar Dutta   : EOM-CC, STEOM-CC                              
  Nicolas Foglia         : Exact transition moments, OPA infrastructure, MCD improvements    
  Dmitry Ganyushin       : Spin-Orbit,Spin-Spin,Magnetic field MRCI      
  Miquel Garcia-Rates    : C-PCM and meta-GGA Hessian, CCSD/C-PCM, Gaussian charge scheme 
  Tiago L. C. Gouveia    : GS-ROHF, GS-ROCIS                             
  Yang Guo               : DLPNO-NEVPT2, F12-NEVPT2, CIM, IAO-localization        
  Andreas Hansen         : Spin unrestricted coupled pair/coupled cluster methods 
  Ingolf Harden          : AUTO-CI MPn and infrastructure                
  Benjamin Helmich-Paris : MC-RPA, TRAH-(SCF,CASSCF), AVAS, COSX integrals, SCF dyn. polar., MC-PDFT, srDFT 
  Lee Huntington         : MR-EOM, pCC                                   
  Robert Izsak           : Overlap fitted RIJCOSX, COSX-SCS-MP3, EOM     
  Riya Kayal             : Wick's Theorem for AUTO-CI, AUTO-CI UHF-CCSDT 
  Emily Kempfer          : AUTO-CI RHF CISDT and CCSDT, approximate NEVPT4
  Christian Kollmar      : KDIIS, OOCD, Brueckner-CCSD(T), CCSD density, CASPT2, CASPT2-K, improved NEVPT2 
  Axel Koslowski         : Symmetry handling                             
  Simone Kossmann        : meta-GGA functionals, TD-DFT gradient, OOMP2, (MP2 Hessian; deprecated post 5.0) 
  Lucas Lang             : DCDCAS, Hyperfine gauge corrections, ICE-SOC+SSC
  Marvin Lechner         : AUTO-CI (C++ implementation), FIC-MRCC        
  Spencer Leger          : CASSCF response                               
  Dagmar Lenk            : GEPOL surface, SMD, ORCA-2-JSON               
  Dimitrios Liakos       : Extrapolation schemes; Compound Job, Property file
  Dimitrios Manganas     : Further ROCIS development; embedding schemes. LFT, Crystal Embedding 
  Dimitrios Pantazis     : SARC Basis sets                               
  Anastasios Papadopoulos: AUTO-CI, single reference methods and gradients 
  Taras Petrenko         : pre 6.0 DFT Hessian and TD-DFT gradient,  ECA, NRVS 
  Petra Pikulova         : Analytic Raman intensities                    
  Peter Pinski           : DLPNO-MP2, DLPNO-MP2 Gradient                 
  Shashank Vittal Rao    : ES-AILFT, MagRelax                            
  Christoph Reimann      : Effective Core Potentials                     
  Marius Retegan         : Local ZFS, SOC                                
  Christoph Riplinger    : Optimizer, TS searches, QM/MM, DLPNO-CCSD(T), (RO)-DLPNO pert. Triples 
  Michael Roemelt        : Original ROCIS implementation, recursive CI coupling coefficients
  Masaaki Saitow         : Open-shell DLPNO-CCSD energy and density      
  Barbara Sandhoefer     : DKH picture change effects                    
  Yorick L. A. Schmerwitz: GMF and freeze-and-release deltaSCF, NEB S-IDPP initial path                    
  Kantharuban Sivalingam : CASSCF convergence/infrastructure, NEVPT2, NEVPT3, NEVPT4(SD), FIC-MRCI and CEPA variants
  Bernardo de Souza      : ESD, SOC TD-DFT                               
  Georgi L. Stoychev     : AutoAux, RI-MP2 NMR, DLPNO-MP2 response, X2C  
  Van Anh Tran           : RI-MP2 g-tensors                              
  Willem Van den Heuvel  : Paramagnetic NMR                              
  Zikuan Wang            : NOTCH, Electric field optimization            
  Frank Wennmohs         : Technical directorship and infrastructure     
  Hang Xu                : AUTO-CI-Response properties                   
                                                                         
[FACCTs GmbH]                                                            
  Markus Bursch, Nicolas Foglia, Miquel Garcia-Rates, Ingolf Harden, Hagen Neugebauer, Anastasios Papadopoulos, 
  Christoph Riplinger, Bernardo de Souza, Georgi L. Stoychev                                                    
                                                                 
  APM, various basis sets, CI-OPT, improved COSX, DLPNO-Multilevel,           
  DOCKER, DRACO, updates on ESD, Fragmentator, GOAT, IRC, LR-CPCM, L-BFGS, MBIS, meta-GGA TD-DFT gradient, ML-optimized integration grids, 
  MM, NACMEs, nearIR, NEB, NEB-TS, NL-DFT gradient (VV10), 2- and 3-layer-ONIOM, interface openCOSMO-RS, QMMM,   
  Crystal-QMMM, RESP, rigid body optimization, SF, symmetry and pop. for TD-DFT, various functionals, SOLVATOR                                   
                                                                         
[Other institutions]                                                     
  V. Asgeirsson          : NEB                                           
  Christoph Bannwarth    : sTDA-DFT, sTD-DFT, PBEh-3c, B97-3c, D3        
  Giovanni Bistoni       : ETS/NOCV, ADLD/ADEX, COVALED                  
  Martin Brehm           : Molecular dynamics                            
  Ronald Cardenas        : ETS/NOCV                                      
  Martina Colucci        : COVALED                                       
  Sebastian Ehlert       : rSCAN, r2SCAN, r2SCAN-3c, D4, dhf basis sets  
  Marvin Friede          : D4 for Fr, Ra, Ac-Lr                          
  Lars Goerigk           : TD-DFT with DH, B97 family of functionals     
  Stefan Grimme          : VdW corrections, initial TS optimization, DFT functionals, gCP, sTDA/sTD-DF 
  Waldemar Hujo          : DFT-NL                                        
  H. Jonsson             : NEB                                           
  Holger Kruse           : gCP                                           
  Marcel Mueller         : wB97X-3c, vDZP basis set                      
  Hagen Neugebauer       : wr2SCAN, Native XTB                           
  Gianluca Regni         : ADLD/ADEX                                     
  Tobias Risthaus        : pre 6.0 range-separated hybrid DFT and stability analysis
  Lukas Wittmann         : regularized MP2, r2SCAN double-hybrids, wr2SCAN        
                                                                         
We gratefully acknowledge several colleagues who have allowed us to      
interface, adapt or use parts of their codes:                            
  Ed Valeev, F. Pavosevic, A. Kumar             : LibInt (2-el integral package), F12 methods 
  Garnet Chan, S. Sharma, J. Yang, R. Olivares  : DMRG                   
  Ulf Ekstrom                                   : XCFun DFT Library      
  Mihaly Kallay                                 : mrcc  (arbitrary order and MRCC methods)
  Frank Weinhold                                : gennbo (NPA and NBO analysis)           
  Simon Mueller                                 : openCOSMO-RS                            
  Christopher J. Cramer and Donald G. Truhlar   : smd solvation model                     
  S Lehtola, MJT Oliveira, MAL Marques          : LibXC Library                           
  Liviu Ungur et al                             : ANISO software                          


 Your calculation uses the libint2 library for the computation of 2-el integrals
 For citations please refer to: http://libint.valeyev.net

 Your ORCA version has been built with support for libXC version: 7.0.0
 For citations please refer to: https://libxc.gitlab.io

 This ORCA versions uses:
   CBLAS   interface :  Fast vector & matrix operations
   LAPACKE interface :  Fast linear algebra routines
   SCALAPACK package :  Parallel linear algebra routines
   Shared memory     :  Shared parallel matrices
   BLAS/LAPACK       :  OpenBLAS 0.3.29  USE64BITINT DYNAMIC_ARCH NO_AFFINITY Cooperlake SINGLE_THREADED
        Core in use  :  Cooperlake
   Copyright (c) 2011-2014, The OpenBLAS Project


  ***********************************
  * Starting time: Tue May 12 10:32:01 2026
  * Host name:     c1-129
  * Process ID:    1293879
  * Working dir.:  /cluster/projects/nn14654k/ylvaos/basis_set_n_funcs/functionals/lda_x/C4H6/out
  ***********************************

Using LibXC functional ID   1 : Slater exchange
[ 1]  P. A. M. Dirac.,  Math. Proc. Cambridge Philos. Soc. 26, 376 (1930)
[ 2]  F. Bloch.,  Z. Phys. 57, 545 (1929)
Using LibXC functional ID   1 : Slater exchange
[ 1]  P. A. M. Dirac.,  Math. Proc. Cambridge Philos. Soc. 26, 376 (1930)
[ 2]  F. Bloch.,  Z. Phys. 57, 545 (1929)
Your calculation utilizes LibXC
by S. Lehtola, C. Steigemann, M. J. T. Oliveira & M. A. L. Marques
Please cite in your paper:
Lehtola, S.; Steigemann, C.; Oliveira, M.J.T.; Marques, M. A. L. Software X, 7, (2018), 1.
   

================================================================================

----- Orbital basis set information -----
Your calculation utilizes the basis: def2-SVP
   F. Weigend and R. Ahlrichs, Phys. Chem. Chem. Phys. 7, 3297 (2005).

================================================================================
                                        WARNINGS
                       Please study these warnings very carefully!
================================================================================


================================================================================
                                       INPUT FILE
================================================================================
NAME = /cluster/projects/nn14654k/ylvaos/basis_set_n_funcs/functionals/lda_x/C4H6/inp/C4H6_lda_x_def2svp.inp
|  1> ! dft def2-SVP TightSCF
|  2> %pal nprocs 8 end
|  3> 
|  4> %loc
|  5>   LocMet NewBoys
|  6>   Occ true
|  7> end
|  8> 
|  9> %method
| 10>   exchange lda_x
| 11> end
| 12> 
| 13> %elprop
| 14>   Dipole true
| 15> end
| 16> 
| 17> * xyz 0 1
| 18> C    0.000000000000   0.000000000000   1.632000000000
| 19> C    0.000000000000   0.000000000000   0.300000000000
| 20> C    0.000000000000   0.771000000000  -0.936300000000
| 21> C    0.000000000000  -0.771000000000  -0.936300000000
| 22> H    0.000000000000   0.914000000000   2.222200000000
| 23> H    0.000000000000  -0.914000000000   2.222200000000
| 24> H    0.912300000000   1.305900000000  -1.200300000000
| 25> H   -0.912300000000   1.305900000000  -1.200300000000
| 26> H   -0.912300000000  -1.305900000000  -1.200300000000
| 27> H    0.912300000000  -1.305900000000  -1.200300000000
| 28> *
| 29> 
| 30> 
| 31>                          ****END OF INPUT****
================================================================================

                       ****************************
                       * Single Point Calculation *
                       ****************************

---------------------------------
CARTESIAN COORDINATES (ANGSTROEM)
---------------------------------
  C      0.000000    0.000000    1.632000
  C      0.000000    0.000000    0.300000
  C      0.000000    0.771000   -0.936300
  C      0.000000   -0.771000   -0.936300
  H      0.000000    0.914000    2.222200
  H      0.000000   -0.914000    2.222200
  H      0.912300    1.305900   -1.200300
  H     -0.912300    1.305900   -1.200300
  H     -0.912300   -1.305900   -1.200300
  H      0.912300   -1.305900   -1.200300

----------------------------
CARTESIAN COORDINATES (A.U.)
----------------------------
  NO LB      ZA    FRAG     MASS         X           Y           Z
   0 C     6.0000    0    12.011    0.000000    0.000000    3.084033
   1 C     6.0000    0    12.011    0.000000    0.000000    0.566918
   2 C     6.0000    0    12.011    0.000000    1.456979   -1.769351
   3 C     6.0000    0    12.011    0.000000   -1.456979   -1.769351
   4 H     1.0000    0     1.008    0.000000    1.727210    4.199349
   5 H     1.0000    0     1.008    0.000000   -1.727210    4.199349
   6 H     1.0000    0     1.008    1.723997    2.467793   -2.268238
   7 H     1.0000    0     1.008   -1.723997    2.467793   -2.268238
   8 H     1.0000    0     1.008   -1.723997   -2.467793   -2.268238
   9 H     1.0000    0     1.008    1.723997   -2.467793   -2.268238

--------------------------------
INTERNAL COORDINATES (ANGSTROEM)
--------------------------------
 C      0   0   0     0.000000000000     0.00000000     0.00000000
 C      1   0   0     1.332000000000     0.00000000     0.00000000
 C      2   1   0     1.457010188708   148.05088964     0.00000000
 C      2   1   3     1.457010188708   148.05088964   180.00000000
 H      1   2   3     1.087994503663   122.85166680     0.00000000
 H      1   2   3     1.087994503663   122.85166680   180.00000000
 H      3   2   1     1.090002431190   117.72260444    70.99760541
 H      3   2   1     1.090002431190   117.72260444   289.00239459
 H      4   2   1     1.090002431190   117.72260444    70.99760541
 H      4   2   1     1.090002431190   117.72260444   289.00239459

---------------------------
INTERNAL COORDINATES (A.U.)
---------------------------
 C      0   0   0     0.000000000000     0.00000000     0.00000000
 C      1   0   0     2.517115210383     0.00000000     0.00000000
 C      2   1   0     2.753350230992   148.05088964     0.00000000
 C      2   1   3     2.753350230992   148.05088964   180.00000000
 H      1   2   3     2.056011647134   122.85166680     0.00000000
 H      1   2   3     2.056011647134   122.85166680   180.00000000
 H      3   2   1     2.059806080257   117.72260444    70.99760541
 H      3   2   1     2.059806080257   117.72260444   289.00239459
 H      4   2   1     2.059806080257   117.72260444    70.99760541
 H      4   2   1     2.059806080257   117.72260444   289.00239459

---------------------
BASIS SET INFORMATION
---------------------
There are 2 groups of distinct atoms

 Group   1 Type C   : 7s4p1d contracted to 3s2p1d pattern {511/31/1}
 Group   2 Type H   : 4s1p contracted to 2s1p pattern {31/1}

Atom   0C    basis set group =>   1
Atom   1C    basis set group =>   1
Atom   2C    basis set group =>   1
Atom   3C    basis set group =>   1
Atom   4H    basis set group =>   2
Atom   5H    basis set group =>   2
Atom   6H    basis set group =>   2
Atom   7H    basis set group =>   2
Atom   8H    basis set group =>   2
Atom   9H    basis set group =>   2


           ************************************************************
           *        Program running with 8 parallel MPI-processes     *
           *              working on a common directory               *
           ************************************************************
------------------------------------------------------------------------------
                             ORCA STARTUP CALCULATIONS
------------------------------------------------------------------------------
------------------------------------------------------------------------------
                   ___                                                        
                  /   \      - P O W E R E D   B Y -                         
                 /     \                                                     
                 |  |  |   _    _      __       _____    __    __             
                 |  |  |  | |  | |    /  \     |  _  \  |  |  /  |          
                  \  \/   | |  | |   /    \    | | | |  |  | /  /          
                 / \  \   | |__| |  /  /\  \   | |_| |  |  |/  /          
                |  |  |   |  __  | /  /__\  \  |    /   |      \           
                |  |  |   | |  | | |   __   |  |    \   |  |\   \          
                \     /   | |  | | |  |  |  |  | |\  \  |  | \   \       
                 \___/    |_|  |_| |__|  |__|  |_| \__\ |__|  \__/        
                                                                              
                      - O R C A' S   B I G   F R I E N D -                    
                                      &                                       
                       - I N T E G R A L  F E E D E R -                       
                                                                              
 v1 FN, 2020, v2 2021, v3 2022-2024                                           
------------------------------------------------------------------------------


----------------------
SHARK INTEGRAL PACKAGE
----------------------

Number of atoms                             ...     10
Number of basis functions                   ...     86
Number of shells                            ...     42
Maximum angular momentum                    ...      2
Integral batch strategy                     ... SHARK/LIBINT Hybrid
RI-J (if used) integral strategy            ... SPLIT-RIJ (Revised 2003 algorithm where possible)
Printlevel                                  ...      1
Contraction scheme used                     ... SEGMENTED contraction
Prescreening option                         ... SCHWARTZ
   Thresh                                   ... 2.500e-11
   Tcut                                     ... 2.500e-12
   Tpresel                                  ... 2.500e-12 
Coulomb Range Separation                    ... NOT USED
Exchange Range Separation                   ... NOT USED
Multipole approximations                    ... NOT USED
Finite Nucleus Model                        ... NOT USED
CABS basis                                  ... NOT available
Auxiliary Coulomb fitting basis             ... NOT available
Auxiliary J/K fitting basis                 ... NOT available
Auxiliary Correlation fitting basis         ... NOT available
Auxiliary 'external' fitting basis          ... NOT available

Checking pre-screening integrals            ... done (  0.0 sec) Dimension = 42
   => SHARK Basis and OBASIS are compatible. Storing Pre-screening
Shell pair information
Shell pair cut-off parameter TPreSel        ...   2.5e-12
Total number of shell pairs                 ...       903
Shell pairs after pre-screening             ...       899
Total number of primitive shell pairs       ...      3151
Primitive shell pairs kept                  ...      2602
          la=0 lb=0:    298 shell pairs
          la=1 lb=0:    334 shell pairs
          la=1 lb=1:    105 shell pairs
          la=2 lb=0:     96 shell pairs
          la=2 lb=1:     56 shell pairs
          la=2 lb=2:     10 shell pairs

Checking whether 4 symmetric matrices of dimension 86 fit in memory
:Max Core in MB      =   4096.00
 MB in use           =      2.36
 MB left             =   4093.64
 MB needed           =      0.11
 Data fit in memory  = YES
Calculating Nuclear repulsion               ... done (  0.0 sec) ENN=    109.249345578353 Eh

Diagonalization of the overlap matrix:
Smallest eigenvalue                        ... 1.699e-03
Time for diagonalization                   ...    0.001 sec
Threshold for overlap eigenvalues          ... 1.000e-07
Number of eigenvalues below threshold      ... 0
Time for construction of square roots      ...    0.002 sec
Total time needed                          ...    0.004 sec

-------------------
DFT GRID GENERATION
-------------------

General Integration Accuracy     IntAcc      ... 4.388
Radial Grid Type                 RadialGrid  ... OptM3 with GC (2021)
Angular Grid (max. ang.)         AngularGrid ... 4 (Lebedev-302)
Angular grid pruning method      GridPruning ... 4 (adaptive)
Weight generation scheme         WeightScheme... mBecke (2022)
Basis function cutoff            BFCut       ... 1.0000e-11
Integration weight cutoff        WCut        ... 1.0000e-14
Partially contracted basis set               ... off
Rotationally invariant grid construction     ... off
Angular grids for H and He will be reduced by one unit

Total number of grid points                  ...    43682
Total number of batches                      ...      687
Average number of points per batch           ...       63
Average number of grid points per atom       ...     4368
Grids setup in   0.1 sec
Initializing property integral containers    ... done (  0.0 sec)

SHARK setup successfully completed in   0.2 seconds

Maximum memory used throughout the entire STARTUP-calculation: 10.7 MB


           ************************************************************
           *        Program running with 8 parallel MPI-processes     *
           *              working on a common directory               *
           ************************************************************
-------------------------------------------------------------------------------
                                 ORCA GUESS
                   Start orbitals & Density for SCF / CASSCF
-------------------------------------------------------------------------------

------------
SCF SETTINGS
------------
Hamiltonian:
 Density Functional     Method          .... DFT(GTOs)
  Functional kind                       .... Exchange
  Functional name                       .... Slater exchange
  Functional family                     .... LDA
  Functional refs                              
    [ 0] P. A. M. Dirac.,  Math. Proc. Cambridge Philos. Soc. 26, 376 (1930), doi: 10.1017/S0305004100016108
    [ 1] F. Bloch.,  Z. Phys. 57, 545 (1929), doi: 10.1007/BF01340281
  Functional external parameters        .... 0
 Correlation Functional Correlation     .... VWN-5
 Gradients option       PostSCFGGA      .... off


General Settings:
 Integral files         IntName         .... /cluster/projects/nn14654k/ylvaos/basis_set_n_funcs/functionals/lda_x/C4H6/inp/C4H6_lda_x_def2svp
 Hartree-Fock type      HFTyp           .... RHF
 Total Charge           Charge          ....    0
 Multiplicity           Mult            ....    1
 Number of Electrons    NEL             ....   30
 Basis Dimension        Dim             ....   86
 Nuclear Repulsion      ENuc            ....    109.2493455784 Eh

Convergence Acceleration:
 AO-DIIS                CNVDIIS         .... on
   Start iteration      DIISMaxIt       ....    12
   Startup error        DIISStart       ....  0.200000
   # of expansion vecs  DIISMaxEq       ....     5
   Bias factor          DIISBfac        ....   1.050
   Max. coefficient     DIISMaxC        ....  10.000
 MO-DIIS                CNVKDIIS        .... off
 Trust-Rad. Augm. Hess. CNVTRAH         .... auto
   Auto Start mean grad. ratio tolernc. ....  1.125000
   Auto Start start iteration           ....    50
   Auto Start num. interpolation iter.  ....    10
   Max. Number of Micro iterations      ....    24
   Max. Number of Macro iterations      .... Maxiter - #DIIS iter
   Number of Davidson start vectors     ....     2
   Converg. threshold    (grad. norm)   ....   1.000e-05
   Grad. Scal. Fac. for Micro threshold ....   0.100
   Minimum threshold for Micro iter.    ....   1.000e-02
   NR start threshold (gradient norm)   ....   1.000e-04
   Initial trust radius                 ....   0.400
   Minimum AH scaling param. (alpha)    ....   1.000
   Maximum AH scaling param. (alpha)    .... 1000.000
   Quad. conv. algorithm                .... NR
   White noise on init. David. guess    .... on
   Maximum white noise                  ....   0.010
   Pseudo random numbers                .... off
   Inactive MOs                         .... canonical
   Orbital update algorithm             .... Taylor
   Preconditioner                       .... Diag
   Full preconditioner red. dimension   ....   250
 SOSCF                 CNVSOSCF           .... on
   Start iteration     SOSCFMaxIt         ....   150
   Startup grad/error  SOSCFStart         ....  0.003300
   Hessian update      SOSCFHessUp        .... L-BFGS
   Autom. constraints  SOSCFAutoConstrain .... off
 Level Shifting         CNVShift        .... on
   Level shift para.    LevelShift      ....    0.2500
   Turn off err/grad.   ShiftErr        ....    0.0010
 Zerner damping         CNVZerner       .... off
 Static damping         CNVDamp         .... on
   Fraction old density DampFac         ....    0.7000
   Max. Damping (<1)    DampMax         ....    0.9800
   Min. Damping (>=0)   DampMin         ....    0.0000
   Turn off err/grad.   DampErr         ....    0.1000

SCF Procedure:
 Maximum # iterations   MaxIter         ....   125
 SCF integral mode      SCFMode         .... Direct
   Integral package                     .... SHARK and LIBINT hybrid scheme
 Reset frequency        DirectResetFreq ....    20
 Integral Threshold     Thresh          ....  2.500e-11 Eh
 Primitive CutOff       TCut            ....  2.500e-12 Eh

Convergence Tolerance:
 Convergence Check Mode ConvCheckMode   .... Total+1el-Energy
 Convergence forced     ConvForced      .... 0
 Energy Change          TolE            ....  1.000e-08 Eh
 1-El. energy change                    ....  1.000e-05 Eh
 Orbital Gradient       TolG            ....  1.000e-05
 Orbital Rotation angle TolX            ....  1.000e-05
 DIIS Error             TolErr          ....  5.000e-07

------------------------------
INITIAL GUESS: MODEL POTENTIAL
------------------------------
Loading Hartree-Fock densities                     ... done
Calculating cut-offs                               ... done
Initializing the effective Hamiltonian             ... done
Setting up the integral package (SHARK)            ... done
Starting the Coulomb interaction                   ... done (   0.0 sec)
Making the grid                                    ... done (   0.0 sec)
Mapping shells                                     ... done
Starting the XC term evaluation                    ... done (   0.0 sec)
  promolecular density results
     # of electrons  =     29.996209296
     EX              =    -20.075319558
     EC              =     -1.852098693
     EX+EC           =    -21.927418251
Transforming the Hamiltonian                       ... done (   0.0 sec)
Diagonalizing the Hamiltonian                      ... done (   0.0 sec)
Back transforming the eigenvectors                 ... done (   0.0 sec)
Now organizing SCF variables                       ... done
                      ------------------
                      INITIAL GUESS DONE (   0.1 sec)
                      ------------------
             **** ENERGY FILE WAS UPDATED (/cluster/projects/nn14654k/ylvaos/basis_set_n_funcs/functionals/lda_x/C4H6/inp/C4H6_lda_x_def2svp.en.tmp) ****
Finished Guess after   0.2 sec
Maximum memory used throughout the entire GUESS-calculation: 4.7 MB


           ************************************************************
           *        Program running with 8 parallel MPI-processes     *
           *              working on a common directory               *
           ************************************************************

-------------------------------------------------------------------------------------------
                                      ORCA LEAN-SCF
                              memory conserving SCF solver
-------------------------------------------------------------------------------------------

----------------------------------------D-I-I-S--------------------------------------------
Iteration    Energy (Eh)           Delta-E    RMSDP     MaxDP     DIISErr   Damp  Time(sec)
-------------------------------------------------------------------------------------------
               ***  Starting incremental Fock matrix formation  ***
    1    -154.2690088240254340     0.00e+00  1.27e-02  6.40e-02  1.60e-01  0.700   0.1
    2    -154.3232749884040231    -5.43e-02  9.26e-03  3.86e-02  8.08e-02  0.700   0.1
                               ***Turning on AO-DIIS***
    3    -154.3433214809184051    -2.00e-02  3.45e-03  1.25e-02  2.63e-02  0.700   0.1
    4    -154.3547652592533836    -1.14e-02  4.94e-03  1.82e-02  9.82e-03  0.000   0.1
    5    -154.3801872964497193    -2.54e-02  1.26e-03  4.86e-03  5.67e-03  0.000   0.1
                              *** Initializing SOSCF ***
---------------------------------------S-O-S-C-F--------------------------------------
Iteration    Energy (Eh)           Delta-E    RMSDP     MaxDP     MaxGrad    Time(sec)
--------------------------------------------------------------------------------------
    6    -154.3803712113556799    -1.84e-04  4.67e-04  1.66e-03  1.04e-03     0.1
               *** Restarting incremental Fock matrix formation ***
    7    -154.3803823380030167    -1.11e-05  3.29e-04  1.79e-03  4.19e-04     0.1
    8    -154.3803792416814531     3.10e-06  1.56e-04  1.33e-03  9.29e-04     0.1
    9    -154.3803837400362227    -4.50e-06  9.83e-05  3.35e-04  1.12e-04     0.1
   10    -154.3803835604773553     1.80e-07  4.77e-05  2.29e-04  1.54e-04     0.1
   11    -154.3803839040600678    -3.44e-07  1.26e-05  4.47e-05  9.99e-06     0.1
   12    -154.3803839027732465     1.29e-09  6.05e-06  2.60e-05  1.59e-05     0.1
                 **** Energy Check signals convergence ****

               *****************************************************
               *                     SUCCESS                       *
               *           SCF CONVERGED AFTER  12 CYCLES          *
               *****************************************************

             **** ENERGY FILE WAS UPDATED (/cluster/projects/nn14654k/ylvaos/basis_set_n_funcs/functionals/lda_x/C4H6/inp/C4H6_lda_x_def2svp.en.tmp) ****

----------------
TOTAL SCF ENERGY
----------------

Total Energy       :       -154.38038390642720 Eh           -4200.90382 eV

Components:
Nuclear Repulsion  :        109.24934557835338 Eh            2972.82583 eV
Electronic Energy  :       -263.62972948478057 Eh           -7173.72964 eV
One Electron Energy:       -424.12826496685381 Eh          -11541.11683 eV
Two Electron Energy:        160.49853548207324 Eh            4367.38718 eV

Virial components:
Potential Energy   :       -307.67568138873446 Eh           -8372.28093 eV
Kinetic Energy     :        153.29529748230723 Eh            4171.37711 eV
Virial Ratio       :          2.00707840646087

DFT components:
N(Alpha)           :       14.999999211131 electrons
N(Beta)            :       14.999999211131 electrons
N(Total)           :       29.999998422262 electrons
E(X)               :      -20.468393189074 Eh       
E(C)               :       -1.882213760902 Eh       
E(XC)              :      -22.350606949977 Eh       

---------------
SCF CONVERGENCE
---------------

  Last Energy change         ...   -1.2868e-09  Tolerance :   1.0000e-08
  Last MAX-Density change    ...    2.5973e-05  Tolerance :   1.0000e-07
  Last RMS-Density change    ...    6.0549e-06  Tolerance :   5.0000e-09
  Last DIIS Error            ...    1.0414e-03  Tolerance :   5.0000e-07
  Last Orbital Gradient      ...    1.5941e-05  Tolerance :   1.0000e-05
  Last Orbital Rotation      ...    1.3330e-05  Tolerance :   1.0000e-05


----------------
ORBITAL ENERGIES
----------------

  NO   OCC          E(Eh)            E(eV) 
   0   2.0000      -9.799527      -266.6587 
   1   2.0000      -9.796125      -266.5661 
   2   2.0000      -9.795916      -266.5604 
   3   2.0000      -9.779139      -266.1039 
   4   2.0000      -0.783424       -21.3181 
   5   2.0000      -0.631704       -17.1895 
   6   2.0000      -0.541044       -14.7226 
   7   2.0000      -0.472628       -12.8609 
   8   2.0000      -0.431147       -11.7321 
   9   2.0000      -0.419232       -11.4079 
  10   2.0000      -0.377514       -10.2727 
  11   2.0000      -0.325975        -8.8702 
  12   2.0000      -0.279839        -7.6148 
  13   2.0000      -0.256546        -6.9810 
  14   2.0000      -0.228319        -6.2129 
  15   0.0000      -0.033161        -0.9024 
  16   0.0000       0.054372         1.4795 
  17   0.0000       0.070072         1.9068 
  18   0.0000       0.083608         2.2751 
  19   0.0000       0.093030         2.5315 
  20   0.0000       0.101386         2.7589 
  21   0.0000       0.149761         4.0752 
  22   0.0000       0.150667         4.0999 
  23   0.0000       0.200196         5.4476 
  24   0.0000       0.228446         6.2163 
  25   0.0000       0.277211         7.5433 
*Only the first 10 virtual orbitals were printed.

                    ********************************
                    * MULLIKEN POPULATION ANALYSIS *
                    ********************************

-----------------------
MULLIKEN ATOMIC CHARGES
-----------------------
   0 C :   -0.133633
   1 C :   -0.051209
   2 C :   -0.127230
   3 C :   -0.127230
   4 H :    0.047149
   5 H :    0.047149
   6 H :    0.086251
   7 H :    0.086251
   8 H :    0.086251
   9 H :    0.086251
Sum of atomic charges:   -0.0000000

--------------------------------
MULLIKEN REDUCED ORBITAL CHARGES
--------------------------------
  0 C s       :     3.136440  s :     3.136440
      pz      :     1.029010  p :     2.973268
      px      :     1.036592
      py      :     0.907665
      dz2     :     0.005859  d :     0.023926
      dxz     :     0.004389
      dyz     :     0.011898
      dx2y2   :     0.001773
      dxy     :     0.000006

  1 C s       :     3.174606  s :     3.174606
      pz      :     0.749815  p :     2.831054
      px      :     0.989156
      py      :     1.092084
      dz2     :     0.014791  d :     0.045548
      dxz     :     0.009681
      dyz     :     0.016396
      dx2y2   :     0.001949
      dxy     :     0.002730

  2 C s       :     3.046143  s :     3.046143
      pz      :     1.052098  p :     3.047524
      px      :     1.043301
      py      :     0.952125
      dz2     :     0.007477  d :     0.033563
      dxz     :     0.003632
      dyz     :     0.007991
      dx2y2   :     0.006401
      dxy     :     0.008063

  3 C s       :     3.046143  s :     3.046143
      pz      :     1.052098  p :     3.047524
      px      :     1.043301
      py      :     0.952125
      dz2     :     0.007477  d :     0.033563
      dxz     :     0.003632
      dyz     :     0.007991
      dx2y2   :     0.006401
      dxy     :     0.008063

  4 H s       :     0.930896  s :     0.930896
      pz      :     0.006483  p :     0.021955
      px      :     0.005247
      py      :     0.010225

  5 H s       :     0.930896  s :     0.930896
      pz      :     0.006483  p :     0.021955
      px      :     0.005247
      py      :     0.010225

  6 H s       :     0.892422  s :     0.892422
      pz      :     0.005642  p :     0.021327
      px      :     0.009876
      py      :     0.005808

  7 H s       :     0.892422  s :     0.892422
      pz      :     0.005642  p :     0.021327
      px      :     0.009876
      py      :     0.005808

  8 H s       :     0.892422  s :     0.892422
      pz      :     0.005642  p :     0.021327
      px      :     0.009876
      py      :     0.005808

  9 H s       :     0.892422  s :     0.892422
      pz      :     0.005642  p :     0.021327
      px      :     0.009876
      py      :     0.005808



                     *******************************
                     * LOEWDIN POPULATION ANALYSIS *
                     *******************************

----------------------
LOEWDIN ATOMIC CHARGES
----------------------
   0 C :   -0.102286
   1 C :   -0.036484
   2 C :   -0.070537
   3 C :   -0.070537
   4 H :    0.038460
   5 H :    0.038460
   6 H :    0.050731
   7 H :    0.050731
   8 H :    0.050731
   9 H :    0.050731

-------------------------------
LOEWDIN REDUCED ORBITAL CHARGES
-------------------------------
  0 C s       :     2.879322  s :     2.879322
      pz      :     1.071391  p :     3.155390
      px      :     1.022501
      py      :     1.061498
      dz2     :     0.019171  d :     0.067573
      dxz     :     0.009407
      dyz     :     0.034192
      dx2y2   :     0.004799
      dxy     :     0.000004

  1 C s       :     2.834779  s :     2.834779
      pz      :     1.050900  p :     3.083228
      px      :     0.953100
      py      :     1.079228
      dz2     :     0.041905  d :     0.118476
      dxz     :     0.022222
      dyz     :     0.045110
      dx2y2   :     0.004589
      dxy     :     0.004651

  2 C s       :     2.822134  s :     2.822134
      pz      :     1.099621  p :     3.162087
      px      :     1.082190
      py      :     0.980276
      dz2     :     0.018297  d :     0.086316
      dxz     :     0.009085
      dyz     :     0.020738
      dx2y2   :     0.017587
      dxy     :     0.020609

  3 C s       :     2.822134  s :     2.822134
      pz      :     1.099621  p :     3.162087
      px      :     1.082190
      py      :     0.980276
      dz2     :     0.018297  d :     0.086316
      dxz     :     0.009085
      dyz     :     0.020738
      dx2y2   :     0.017587
      dxy     :     0.020609

  4 H s       :     0.892542  s :     0.892542
      pz      :     0.019064  p :     0.068998
      px      :     0.015894
      py      :     0.034040

  5 H s       :     0.892542  s :     0.892542
      pz      :     0.019064  p :     0.068998
      px      :     0.015894
      py      :     0.034040

  6 H s       :     0.879253  s :     0.879253
      pz      :     0.018130  p :     0.070016
      px      :     0.032970
      py      :     0.018915

  7 H s       :     0.879253  s :     0.879253
      pz      :     0.018130  p :     0.070016
      px      :     0.032970
      py      :     0.018915

  8 H s       :     0.879253  s :     0.879253
      pz      :     0.018130  p :     0.070016
      px      :     0.032970
      py      :     0.018915

  9 H s       :     0.879253  s :     0.879253
      pz      :     0.018130  p :     0.070016
      px      :     0.032970
      py      :     0.018915



                      *****************************
                      * MAYER POPULATION ANALYSIS *
                      *****************************

  NA   - Mulliken gross atomic population
  ZA   - Total nuclear charge
  QA   - Mulliken gross atomic charge
  VA   - Mayer's total valence
  BVA  - Mayer's bonded valence
  FA   - Mayer's free valence

  ATOM       NA         ZA         QA         VA         BVA        FA
  0 C      6.1336     6.0000    -0.1336     3.9181     3.9181    -0.0000
  1 C      6.0512     6.0000    -0.0512     4.0879     4.0879     0.0000
  2 C      6.1272     6.0000    -0.1272     3.9515     3.9515    -0.0000
  3 C      6.1272     6.0000    -0.1272     3.9515     3.9515    -0.0000
  4 H      0.9529     1.0000     0.0471     0.9746     0.9746    -0.0000
  5 H      0.9529     1.0000     0.0471     0.9746     0.9746    -0.0000
  6 H      0.9137     1.0000     0.0863     0.9768     0.9768    -0.0000
  7 H      0.9137     1.0000     0.0863     0.9768     0.9768     0.0000
  8 H      0.9137     1.0000     0.0863     0.9768     0.9768     0.0000
  9 H      0.9137     1.0000     0.0863     0.9768     0.9768    -0.0000

  Mayer bond orders larger than 0.100000
B(  0-C ,  1-C ) :   2.0212 B(  0-C ,  4-H ) :   0.9271 B(  0-C ,  5-H ) :   0.9271 
B(  1-C ,  2-C ) :   0.9841 B(  1-C ,  3-C ) :   0.9841 B(  2-C ,  3-C ) :   1.0639 
B(  2-C ,  6-H ) :   0.9299 B(  2-C ,  7-H ) :   0.9299 B(  3-C ,  8-H ) :   0.9299 
B(  3-C ,  9-H ) :   0.9299 

-------
TIMINGS
-------

Total SCF time: 0 days 0 hours 0 min 0 sec 

Total time                  ....       0.977 sec
Sum of individual times     ....       0.909 sec  ( 93.1%)

SCF preparation             ....       0.115 sec  ( 11.7%)
Fock matrix formation       ....       0.607 sec  ( 62.2%)
  Startup                   ....       0.007 sec  (  1.2% of F)
  Coulomb formation         ....       0.282 sec  ( 46.4% of F)
  XC integration            ....       0.268 sec  ( 44.2% of F)
    Basis function eval.    ....       0.039 sec  ( 14.5% of XC)
    Density eval.           ....       0.023 sec  (  8.5% of XC)
    XC-Functional eval.     ....       0.020 sec  (  7.4% of XC)
    XC-Potential eval.      ....       0.022 sec  (  8.4% of XC)
Diagonalization             ....       0.000 sec  (  0.0%)
Density matrix formation    ....       0.036 sec  (  3.7%)
Total Energy calculation    ....       0.012 sec  (  1.3%)
Population analysis         ....       0.013 sec  (  1.3%)
Orbital Transformation      ....       0.014 sec  (  1.4%)
Orbital Orthonormalization  ....       0.000 sec  (  0.0%)
DIIS solution               ....       0.045 sec  (  4.7%)
SOSCF solution              ....       0.066 sec  (  6.8%)
Finished LeanSCF after   1.0 sec

Maximum memory used throughout the entire LEANSCF-calculation: 7.3 MB
------------------------------------------------------------------------------
                           ORCA ORBITAL LOCALIZATION
------------------------------------------------------------------------------

Input orbitals are from                  ... /cluster/projects/nn14654k/ylvaos/basis_set_n_funcs/functionals/lda_x/C4H6/inp/C4H6_lda_x_def2svp.gbw
Output orbitals are to                   ... /cluster/projects/nn14654k/ylvaos/basis_set_n_funcs/functionals/lda_x/C4H6/inp/C4H6_lda_x_def2svp.loc
Max. number of iterations                ... 128
Localizations seeded randomly            ... on
Convergence tolerance                    ... 1.000e-06
Threshold for strong local MOs           ... 9.500e-01
Threshold for bond MOs                   ... 8.500e-01
Operator                                 ... 0
Orbital range for localization           ... 4 to 14
Localization criterion                   ... NEW-BOYS
Doing the dipole integrals               ... o.k.
Initial value of the localization sum :    54.886332
ITERATION   0 : L=   81.5201103282 DL=  2.66e+01 (AVERGE_DL)=    0.6958811066 
ITERATION   1 : L=   86.3296244377 DL=  4.81e+00 (AVERGE_DL)=    0.2957122099 
ITERATION   2 : L=   86.4666638797 DL=  1.37e-01 (AVERGE_DL)=    0.0499161920 
ITERATION   3 : L=   86.4675382777 DL=  8.74e-04 (AVERGE_DL)=    0.0039872478 
ITERATION   4 : L=   86.4675524669 DL=  1.42e-05 (AVERGE_DL)=    0.0005079225 
ITERATION   5 : L=   86.4675526190 DL=  1.52e-07 (AVERGE_DL)=    0.0000525997 
LOCALIZATION SUM CONVERGED


--------------------------------------------------------------------------------
                    LOCALIZED MOLECULAR ORBITAL COMPOSITIONS
--------------------------------------------------------------------------------

The Mulliken populations for each LMO on each atom are computed
The LMO`s will be ordered according to atom index and type
  (A) Strongly localized MO`s have populations of >=0.950 on one atom
  (B) Two center bond orbitals have populations of >=0.850 on two atoms
  (C) Other MO`s are considered to be `delocalized`

FOUND  -   0 strongly local MO`s
       -  11 two center bond MO`s
       -   0 significantly delocalized MO`s

Bond-like localized orbitals:
MO  14:   9H  -   0.467825  and   3C  -   0.516248
MO  13:   8H  -   0.467825  and   3C  -   0.516248
MO  12:   7H  -   0.467825  and   2C  -   0.516248
MO  11:   6H  -   0.467825  and   2C  -   0.516248
MO  10:   5H  -   0.492595  and   0C  -   0.494478
MO   9:   4H  -   0.492595  and   0C  -   0.494478
MO   8:   3C  -   0.522767  and   2C  -   0.522767
MO   7:   3C  -   0.550916  and   1C  -   0.510275
MO   6:   2C  -   0.550915  and   1C  -   0.510275
MO   5:   1C  -   0.476408  and   0C  -   0.542881
MO   4:   1C  -   0.476408  and   0C  -   0.542881
Localized MO's were stored in: /cluster/projects/nn14654k/ylvaos/basis_set_n_funcs/functionals/lda_x/C4H6/inp/C4H6_lda_x_def2svp.loc

-------------------------   --------------------
FINAL SINGLE POINT ENERGY      -154.380383906427
-------------------------   --------------------



           ************************************************************
           *        Program running with 8 parallel MPI-processes     *
           *              working on a common directory               *
           ************************************************************

------------------------------------------------------------------------------
                              ORCA PROPERTY CALCULATIONS
------------------------------------------------------------------------------

GBWName                                 ... /cluster/projects/nn14654k/ylvaos/basis_set_n_funcs/functionals/lda_x/C4H6/inp/C4H6_lda_x_def2svp.gbw
Number of atoms                         ...     10
Number of basis functions               ...     86
Max core memory                         ...   4096 MB

Electric properties:
Dipole moment                           ... YES
Quadrupole moment                       ...  NO
Static polarizability (Dipole/Dipole)   ...  NO
Static polarizability (Dipole/Quad.)    ...  NO
Static polarizability (Quad./Quad.)     ...  NO
Static polarizability (Velocity)        ...  NO
Static hyperpolarizability              ...  NO

Atomic electric properties:
Dipole moment                           ...  NO
Quadrupole moment                       ...  NO
Static polarizability                   ...  NO

Choice of electric origin               ... Center of mass
Position of electric origin             ...     0.000000     0.000000     0.012360

General magnetic properties:
Magnetizability                         ...  NO

EPR properties:
g-Tensor (aka g-matrix)                 ...  NO
Zero-Field splitting spin-orbit         ...  NO
Zero-field splitting spin-spin          ...  NO
Hyperfine couplings                     ...  NO (   0 nuclei)
Quadrupole couplings                    ...  NO (   0 nuclei)
Contact density                         ...  NO (   0 nuclei)

NMR properties:
Chemical shifts                         ...  NO (   0 nuclei)
Spin-rotation constants                 ...  NO (   0 nuclei)
Spin-spin couplings                     ...  NO (   0 nuclei,    0 pairs)

Choice of magnetic origin               ... GIAO
Position of magnetic origin             ...     0.000000     0.000000     0.000000

Properties with geometric perturbations:
SCF Hessian                             ...  NO
IR spectrum                             ...  NO
VCD spectrum                            ...  NO
X-ray spectroscopy properties:
SCF XES/XAS/RIXS spectra                ...  NO

SCF SOC stabilization energy            ...  NO
Diagonal Born-Oppenheimer correction    ...  NO

-------------
DIPOLE MOMENT
-------------

Method             : SCF
Type of density    : Electron Density
Multiplicity       :   1
Irrep              :   0
Energy             :  -154.3803839064271983 Eh
Basis              : AO
                                X                 Y                 Z
Electronic contribution:      0.000000001       0.000000011       0.224839855
Nuclear contribution   :      0.000000000       0.000000000      -0.371559272
                        -----------------------------------------
Total Dipole Moment    :      0.000000001       0.000000011      -0.146719417
                        -----------------------------------------
Magnitude (a.u.)       :      0.146719417
Magnitude (Debye)      :      0.372931120



--------------------
Rotational spectrum 
--------------------
 
Rotational constants in cm-1:             0.643527             0.230144             0.181788 
Rotational constants in MHz :         19292.450199          6899.535423          5449.866904 

Dipole components along the rotational axes: 
x,y,z [a.u.] :    -0.146719     0.000000     0.000000 
x,y,z [Debye]:    -0.372931     0.000000     0.000000 

 

Dipole moment calculation done in   0.0 sec 

Maximum memory used throughout the entire PROP-calculation: 2.7 MB

--------------------------------
SUGGESTED CITATIONS FOR THIS RUN
--------------------------------

Below you find a list of papers that are relevant to this ORCA run
We neither can nor want to force you to cite these papers, but we appreciate if you do
You receive ORCA, which is the product of decades of hard work by many enthusiastic individuals, for free
The only thing we kindly ask in return is that you cite our papers,
We deeply appreciate it, if you show your appreciation for ORCA by not just citing the generic ORCA reference.

Please note that relegating all ORCA citations to the supporting information does *not* help us.
SI sections are not indexed - citations you put there will not count into any citation statistics
But we need these citations in order to attract the funding resources that allow us to do what we are doing

Therefore, if you are a happy ORCA user, please consider citing a few of the papers listed below in the main body of your paper

In addition to the list printed below, the program has created the file /cluster/projects/nn14654k/ylvaos/basis_set_n_funcs/functionals/lda_x/C4H6/inp/C4H6_lda_x_def2svp.bibtex that contains the list in bibtex format
You can import this file easily into all common literature databanks and citation aid programs

It goes without saying that in many instances, there are alternative algorithms to achieve similar
results as the ones you have gotten from ORCA. It is, of course, also the case that in some instances
ORCA just re-implements algorithms worked out by others. We are fully aware of that and we are also
fully appreciative of our colleagues work. Hence this citation list should not be read as indicating
that the listed papers, which are focused on our own work, are the only ones worth citing. It simply
meant to make it easier for users to cite ORCA specific papers. It is not a substitute for doing your
own literature research and citing the relevant literature in a scientifically appropriate manner.

List of essential papers. We consider these as the minimum necessary citations

  1. Neese, F.
     Software update: the ORCA program system, version 6.0
     WIRES Comput. Molec. Sci. 2025 15(1), e70019
     doi.org/10.1002/wcms.70019

List of papers to cite with high priority. The work reported in these papers was absolutely
necessary for this run to complete.
Our perspective: the developers of density functionals and basis sets usually get cited in chemistry papers
Good! But without the algorithms to do something with them, the functionals or basis sets would not do anything.
Hence, in our opinion, the algorithm design and method developments papers are equally worthy of getting cited

  1. Lehtola, S.; Steigemann, C.; Oliveira, M.; Marques, M.
     Recent developments in Libxc - A comprehensive library of functionals for density functional theory
     Software X 2018 7 , 
     doi.org/10.1016/j.softx.2017.11.002
  2. Neese, F.
     The SHARK Integral Generation and Digestion System
     J. Comp. Chem. 2022 44(3), 381
     doi.org/10.1002/jcc.26942

List of suggested additional citations. These are papers that are important in the 'surrounding' of 
of this run, or papers that preceded the highly important papers. If you like your results we are grateful for a citation.

  1. Neese, F.
     The ORCA program system
     WIRES Comput. Molec. Sci. 2012 2(1), 73-78
     doi.org/10.1002/wcms.81
  2. Neese, F.
     Software update: the ORCA program system, version 4.0
     WIRES Comput. Molec. Sci. 2018 8(1), 1-6
     doi.org/10.1002/wcms.1327
  3. Neese, F.; Wennmohs, F.; Becker, U.; Riplinger, C.
     The ORCA quantum chemistry program package
     J. Chem. Phys. 2020 152(22), 224108
     doi.org/10.1063/5.0004608
  4. Neese, F.
     Software update: The ORCA program system—Version 5.0
     WIRES Comput. Molec. Sci. 2022 12(1), e1606
     doi.org/10.1002/wcms.1606

List of optional additional citations

  1. Neese, F.
     Approximate second-order SCF convergence for spin unrestricted wavefunctions
     Chem. Phys. Lett. 2000 325(1-3), 93-98
     doi.org/10.1016/s0009-2614(00)00662-x

Timings for individual modules:

Sum of individual times          ...        8.682 sec (=   0.145 min)
Startup calculation              ...        2.356 sec (=   0.039 min)  27.1 %
SCF iterations                   ...        4.580 sec (=   0.076 min)  52.7 %
Property calculations            ...        1.728 sec (=   0.029 min)  19.9 %
Orbital localization             ...        0.018 sec (=   0.000 min)   0.2 %
                             ****ORCA TERMINATED NORMALLY****
TOTAL RUN TIME: 0 days 0 hours 0 minutes 10 seconds 955 msec
