
                                 *****************
                                 * O   R   C   A *
                                 *****************

                                            #,                                       
                                            ###                                      
                                            ####                                     
                                            #####                                    
                                            ######                                   
                                           ########,                                 
                                     ,,################,,,,,                         
                               ,,#################################,,                 
                          ,,##########################################,,             
                       ,#########################################, ''#####,          
                    ,#############################################,,   '####,        
                  ,##################################################,,,,####,       
                ,###########''''           ''''###############################       
              ,#####''   ,,,,##########,,,,          '''####'''          '####       
            ,##' ,,,,###########################,,,                        '##       
           ' ,,###''''                  '''############,,,                           
         ,,##''                                '''############,,,,        ,,,,,,###''
      ,#''                                            '''#######################'''  
     '                                                          ''''####''''         
             ,#######,   #######,   ,#######,      ##                                
            ,#'     '#,  ##    ##  ,#'     '#,    #''#        ,####,    ,#,          
            ##       ##  ##   ,#'  ##            #'  '#       #'       ,# #          
            ##       ##  #######   ##           ,######,      #####,      #          
            '#,     ,#'  ##    ##  '#,     ,#' ,#      #,     #,   #      #          
             '#######'   ##     ##  '#######'  #'      '#     '####' #    #          



                #########################################################
                #                        -***-                          #
                #          Department of theory and spectroscopy        #
                #                                                       #
                #                      Frank Neese                      #
                #                                                       #
                #     Directorship, Architecture, Infrastructure        #
                #                    SHARK, DRIVERS                     #
                #        Core code/Algorithms in most modules           #
                #                                                       #
                #        Max Planck Institute fuer Kohlenforschung      #
                #                Kaiser Wilhelm Platz 1                 #
                #                 D-45470 Muelheim/Ruhr                 #
                #                      Germany                          #
                #                                                       #
                #                  All rights reserved                  #
                #                        -***-                          #
                #########################################################


                         Program Version 6.1.1  -  RELEASE   -
                                (GIT: $487d211c$)
                          ($2025-11-21 10:33:24 +0100$)


 With contributions from (in alphabetic order):
[Max-Planck-Institut fuer Kohlenforschung]                               
  Daniel Aravena         : Magnetic Suceptibility                        
  Michael Atanasov       : Ab Initio Ligand Field Theory (pilot matlab implementation)
  Alexander A. Auer      : GIAO ZORA, VPT2 properties, NMR spectrum      
  Ute Becker             : All parallelization in ORCA, NUMFREQ, NUMCALC 
  Giovanni Bistoni       : ED, misc. LED, open-shell LED, HFLD           
  Dmytro Bykov           : pre 5.0 version of the SCF Hessian            
  Marcos Casanova-Páez   : Triplet and SCS-CIS(D). UHF-(DLPNO)-IP/EA/STEOM-CCSD. UHF-CVS-IP/STEOM-CCSD   
  Vijay G. Chilkuri      : MRCI spin determinant printing, contributions to CSF-ICE 
  Pauline Colinet        : FMM embedding                                 
  Dipayan Datta          : RHF DLPNO-CCSD density                        
  Achintya Kumar Dutta   : EOM-CC, STEOM-CC                              
  Nicolas Foglia         : Exact transition moments, OPA infrastructure, MCD improvements    
  Dmitry Ganyushin       : Spin-Orbit,Spin-Spin,Magnetic field MRCI      
  Miquel Garcia-Rates    : C-PCM and meta-GGA Hessian, CCSD/C-PCM, Gaussian charge scheme 
  Tiago L. C. Gouveia    : GS-ROHF, GS-ROCIS                             
  Yang Guo               : DLPNO-NEVPT2, F12-NEVPT2, CIM, IAO-localization        
  Andreas Hansen         : Spin unrestricted coupled pair/coupled cluster methods 
  Ingolf Harden          : AUTO-CI MPn and infrastructure                
  Benjamin Helmich-Paris : MC-RPA, TRAH-(SCF,CASSCF), AVAS, COSX integrals, SCF dyn. polar., MC-PDFT, srDFT 
  Lee Huntington         : MR-EOM, pCC                                   
  Robert Izsak           : Overlap fitted RIJCOSX, COSX-SCS-MP3, EOM     
  Riya Kayal             : Wick's Theorem for AUTO-CI, AUTO-CI UHF-CCSDT 
  Emily Kempfer          : AUTO-CI RHF CISDT and CCSDT, approximate NEVPT4
  Christian Kollmar      : KDIIS, OOCD, Brueckner-CCSD(T), CCSD density, CASPT2, CASPT2-K, improved NEVPT2 
  Axel Koslowski         : Symmetry handling                             
  Simone Kossmann        : meta-GGA functionals, TD-DFT gradient, OOMP2, (MP2 Hessian; deprecated post 5.0) 
  Lucas Lang             : DCDCAS, Hyperfine gauge corrections, ICE-SOC+SSC
  Marvin Lechner         : AUTO-CI (C++ implementation), FIC-MRCC        
  Spencer Leger          : CASSCF response                               
  Dagmar Lenk            : GEPOL surface, SMD, ORCA-2-JSON               
  Dimitrios Liakos       : Extrapolation schemes; Compound Job, Property file
  Dimitrios Manganas     : Further ROCIS development; embedding schemes. LFT, Crystal Embedding 
  Dimitrios Pantazis     : SARC Basis sets                               
  Anastasios Papadopoulos: AUTO-CI, single reference methods and gradients 
  Taras Petrenko         : pre 6.0 DFT Hessian and TD-DFT gradient,  ECA, NRVS 
  Petra Pikulova         : Analytic Raman intensities                    
  Peter Pinski           : DLPNO-MP2, DLPNO-MP2 Gradient                 
  Shashank Vittal Rao    : ES-AILFT, MagRelax                            
  Christoph Reimann      : Effective Core Potentials                     
  Marius Retegan         : Local ZFS, SOC                                
  Christoph Riplinger    : Optimizer, TS searches, QM/MM, DLPNO-CCSD(T), (RO)-DLPNO pert. Triples 
  Michael Roemelt        : Original ROCIS implementation, recursive CI coupling coefficients
  Masaaki Saitow         : Open-shell DLPNO-CCSD energy and density      
  Barbara Sandhoefer     : DKH picture change effects                    
  Yorick L. A. Schmerwitz: GMF and freeze-and-release deltaSCF, NEB S-IDPP initial path                    
  Kantharuban Sivalingam : CASSCF convergence/infrastructure, NEVPT2, NEVPT3, NEVPT4(SD), FIC-MRCI and CEPA variants
  Bernardo de Souza      : ESD, SOC TD-DFT                               
  Georgi L. Stoychev     : AutoAux, RI-MP2 NMR, DLPNO-MP2 response, X2C  
  Van Anh Tran           : RI-MP2 g-tensors                              
  Willem Van den Heuvel  : Paramagnetic NMR                              
  Zikuan Wang            : NOTCH, Electric field optimization            
  Frank Wennmohs         : Technical directorship and infrastructure     
  Hang Xu                : AUTO-CI-Response properties                   
                                                                         
[FACCTs GmbH]                                                            
  Markus Bursch, Nicolas Foglia, Miquel Garcia-Rates, Ingolf Harden, Hagen Neugebauer, Anastasios Papadopoulos, 
  Christoph Riplinger, Bernardo de Souza, Georgi L. Stoychev                                                    
                                                                 
  APM, various basis sets, CI-OPT, improved COSX, DLPNO-Multilevel,           
  DOCKER, DRACO, updates on ESD, Fragmentator, GOAT, IRC, LR-CPCM, L-BFGS, MBIS, meta-GGA TD-DFT gradient, ML-optimized integration grids, 
  MM, NACMEs, nearIR, NEB, NEB-TS, NL-DFT gradient (VV10), 2- and 3-layer-ONIOM, interface openCOSMO-RS, QMMM,   
  Crystal-QMMM, RESP, rigid body optimization, SF, symmetry and pop. for TD-DFT, various functionals, SOLVATOR                                   
                                                                         
[Other institutions]                                                     
  V. Asgeirsson          : NEB                                           
  Christoph Bannwarth    : sTDA-DFT, sTD-DFT, PBEh-3c, B97-3c, D3        
  Giovanni Bistoni       : ETS/NOCV, ADLD/ADEX, COVALED                  
  Martin Brehm           : Molecular dynamics                            
  Ronald Cardenas        : ETS/NOCV                                      
  Martina Colucci        : COVALED                                       
  Sebastian Ehlert       : rSCAN, r2SCAN, r2SCAN-3c, D4, dhf basis sets  
  Marvin Friede          : D4 for Fr, Ra, Ac-Lr                          
  Lars Goerigk           : TD-DFT with DH, B97 family of functionals     
  Stefan Grimme          : VdW corrections, initial TS optimization, DFT functionals, gCP, sTDA/sTD-DF 
  Waldemar Hujo          : DFT-NL                                        
  H. Jonsson             : NEB                                           
  Holger Kruse           : gCP                                           
  Marcel Mueller         : wB97X-3c, vDZP basis set                      
  Hagen Neugebauer       : wr2SCAN, Native XTB                           
  Gianluca Regni         : ADLD/ADEX                                     
  Tobias Risthaus        : pre 6.0 range-separated hybrid DFT and stability analysis
  Lukas Wittmann         : regularized MP2, r2SCAN double-hybrids, wr2SCAN        
                                                                         
We gratefully acknowledge several colleagues who have allowed us to      
interface, adapt or use parts of their codes:                            
  Ed Valeev, F. Pavosevic, A. Kumar             : LibInt (2-el integral package), F12 methods 
  Garnet Chan, S. Sharma, J. Yang, R. Olivares  : DMRG                   
  Ulf Ekstrom                                   : XCFun DFT Library      
  Mihaly Kallay                                 : mrcc  (arbitrary order and MRCC methods)
  Frank Weinhold                                : gennbo (NPA and NBO analysis)           
  Simon Mueller                                 : openCOSMO-RS                            
  Christopher J. Cramer and Donald G. Truhlar   : smd solvation model                     
  S Lehtola, MJT Oliveira, MAL Marques          : LibXC Library                           
  Liviu Ungur et al                             : ANISO software                          


 Your calculation uses the libint2 library for the computation of 2-el integrals
 For citations please refer to: http://libint.valeyev.net

 Your ORCA version has been built with support for libXC version: 7.0.0
 For citations please refer to: https://libxc.gitlab.io

 This ORCA versions uses:
   CBLAS   interface :  Fast vector & matrix operations
   LAPACKE interface :  Fast linear algebra routines
   SCALAPACK package :  Parallel linear algebra routines
   Shared memory     :  Shared parallel matrices
   BLAS/LAPACK       :  OpenBLAS 0.3.29  USE64BITINT DYNAMIC_ARCH NO_AFFINITY Cooperlake SINGLE_THREADED
        Core in use  :  Cooperlake
   Copyright (c) 2011-2014, The OpenBLAS Project


  ***********************************
  * Starting time: Wed May 20 11:54:07 2026
  * Host name:     c1-39
  * Process ID:    1451874
  * Working dir.:  /cluster/projects/nn14654k/ylvaos/basis_set_n_funcs/functionals/lda_x/C4H6/out
  ***********************************

Using LibXC functional ID   1 : Slater exchange
[ 1]  P. A. M. Dirac.,  Math. Proc. Cambridge Philos. Soc. 26, 376 (1930)
[ 2]  F. Bloch.,  Z. Phys. 57, 545 (1929)
Using LibXC functional ID   1 : Slater exchange
[ 1]  P. A. M. Dirac.,  Math. Proc. Cambridge Philos. Soc. 26, 376 (1930)
[ 2]  F. Bloch.,  Z. Phys. 57, 545 (1929)
Your calculation utilizes LibXC
by S. Lehtola, C. Steigemann, M. J. T. Oliveira & M. A. L. Marques
Please cite in your paper:
Lehtola, S.; Steigemann, C.; Oliveira, M.J.T.; Marques, M. A. L. Software X, 7, (2018), 1.
   

================================================================================

----- Orbital basis set information -----
Your calculation utilizes the basis: aug-cc-pVQZ 
    H, B-Ne : Obtained from the ccRepo (grant-hill.group.shef.ac.uk/ccrepo) Feb. 2017
              R. A. Kendall, T. H. Dunning, Jr., R. J. Harrison, J. Chem. Phys. 96, 6796 (1992)
         He : Obtained from the ccRepo (grant-hill.group.shef.ac.uk/ccrepo) Feb. 2017
              D. E. Woon, T. H. Dunning, Jr., J. Chem. Phys. 100, 2975 (1994)
  Li-Be, Na : Obtained from the ccRepo (grant-hill.group.shef.ac.uk/ccrepo) Feb. 2017
              B. P. Prascher, D. E. Woon, K. A. Peterson, T. H. Dunning, Jr., A. K. Wilson, Theor. Chem. Acc. 128, 69 (2011)
         Mg : Obtained from the Peterson Research Group Website (tyr0.chem.wsu.edu/~kipeters) Feb. 2017
              B. P. Prascher, D. E. Woon, K. A. Peterson, T. H. Dunning, Jr., A. K. Wilson, Theor. Chem. Acc. 128, 69 (2011)
      Al-Ar : Obtained from the ccRepo (grant-hill.group.shef.ac.uk/ccrepo) Feb. 2017
              D. E. Woon, T. H. Dunning, Jr., J. Chem. Phys. 98, 1358 (1993)
      Sc-Zn : Obtained from the ccRepo (grant-hill.group.shef.ac.uk/ccrepo) Feb. 2017
              N. B. Balabanov, K. A. Peterson, J. Chem. Phys. 123, 064107 (2005)
              N. B. Balabanov, K. A. Peterson, J. Chem. Phys. 125, 074110 (2006)
      Ga-Kr : Obtained from the ccRepo (grant-hill.group.shef.ac.uk/ccrepo) Feb. 2017
              A. K. Wilson, D. E. Woon, K. A. Peterson, T. H. Dunning, Jr., J. Chem. Phys. 110, 7667 (1999)

================================================================================
                                        WARNINGS
                       Please study these warnings very carefully!
================================================================================


================================================================================
                                       INPUT FILE
================================================================================
NAME = /cluster/projects/nn14654k/ylvaos/basis_set_n_funcs/functionals/lda_x/C4H6/inp/C4H6_lda_x_augccpvqz.inp
|  1> ! dft aug-cc-pVQZ TightSCF
|  2> %pal nprocs 8 end
|  3> 
|  4> %loc
|  5>   LocMet NewBoys
|  6>   Occ true
|  7> end
|  8> 
|  9> %method
| 10>   exchange lda_x
| 11>   correlation None
| 12> end
| 13> 
| 14> %elprop
| 15>   Dipole true
| 16>   Quadrupole true
| 17> end
| 18> 
| 19> * xyz 0 1
| 20> C    0.000000000000   0.000000000000   1.632000000000
| 21> C    0.000000000000   0.000000000000   0.300000000000
| 22> C    0.000000000000   0.771000000000  -0.936300000000
| 23> C    0.000000000000  -0.771000000000  -0.936300000000
| 24> H    0.000000000000   0.914000000000   2.222200000000
| 25> H    0.000000000000  -0.914000000000   2.222200000000
| 26> H    0.912300000000   1.305900000000  -1.200300000000
| 27> H   -0.912300000000   1.305900000000  -1.200300000000
| 28> H   -0.912300000000  -1.305900000000  -1.200300000000
| 29> H    0.912300000000  -1.305900000000  -1.200300000000
| 30> *
| 31> 
| 32> 
| 33>                          ****END OF INPUT****
================================================================================

                       ****************************
                       * Single Point Calculation *
                       ****************************

---------------------------------
CARTESIAN COORDINATES (ANGSTROEM)
---------------------------------
  C      0.000000    0.000000    1.632000
  C      0.000000    0.000000    0.300000
  C      0.000000    0.771000   -0.936300
  C      0.000000   -0.771000   -0.936300
  H      0.000000    0.914000    2.222200
  H      0.000000   -0.914000    2.222200
  H      0.912300    1.305900   -1.200300
  H     -0.912300    1.305900   -1.200300
  H     -0.912300   -1.305900   -1.200300
  H      0.912300   -1.305900   -1.200300

----------------------------
CARTESIAN COORDINATES (A.U.)
----------------------------
  NO LB      ZA    FRAG     MASS         X           Y           Z
   0 C     6.0000    0    12.011    0.000000    0.000000    3.084033
   1 C     6.0000    0    12.011    0.000000    0.000000    0.566918
   2 C     6.0000    0    12.011    0.000000    1.456979   -1.769351
   3 C     6.0000    0    12.011    0.000000   -1.456979   -1.769351
   4 H     1.0000    0     1.008    0.000000    1.727210    4.199349
   5 H     1.0000    0     1.008    0.000000   -1.727210    4.199349
   6 H     1.0000    0     1.008    1.723997    2.467793   -2.268238
   7 H     1.0000    0     1.008   -1.723997    2.467793   -2.268238
   8 H     1.0000    0     1.008   -1.723997   -2.467793   -2.268238
   9 H     1.0000    0     1.008    1.723997   -2.467793   -2.268238

--------------------------------
INTERNAL COORDINATES (ANGSTROEM)
--------------------------------
 C      0   0   0     0.000000000000     0.00000000     0.00000000
 C      1   0   0     1.332000000000     0.00000000     0.00000000
 C      2   1   0     1.457010188708   148.05088964     0.00000000
 C      2   1   3     1.457010188708   148.05088964   180.00000000
 H      1   2   3     1.087994503663   122.85166680     0.00000000
 H      1   2   3     1.087994503663   122.85166680   180.00000000
 H      3   2   1     1.090002431190   117.72260444    70.99760541
 H      3   2   1     1.090002431190   117.72260444   289.00239459
 H      4   2   1     1.090002431190   117.72260444    70.99760541
 H      4   2   1     1.090002431190   117.72260444   289.00239459

---------------------------
INTERNAL COORDINATES (A.U.)
---------------------------
 C      0   0   0     0.000000000000     0.00000000     0.00000000
 C      1   0   0     2.517115210383     0.00000000     0.00000000
 C      2   1   0     2.753350230992   148.05088964     0.00000000
 C      2   1   3     2.753350230992   148.05088964   180.00000000
 H      1   2   3     2.056011647134   122.85166680     0.00000000
 H      1   2   3     2.056011647134   122.85166680   180.00000000
 H      3   2   1     2.059806080257   117.72260444    70.99760541
 H      3   2   1     2.059806080257   117.72260444   289.00239459
 H      4   2   1     2.059806080257   117.72260444    70.99760541
 H      4   2   1     2.059806080257   117.72260444   289.00239459

---------------------
BASIS SET INFORMATION
---------------------
There are 2 groups of distinct atoms

 Group   1 Type C   : 22s7p4d3f2g contracted to 6s5p4d3f2g pattern {991111/31111/1111/111/11}
 Group   2 Type H   : 7s4p3d2f contracted to 5s4p3d2f pattern {31111/1111/111/11}

Atom   0C    basis set group =>   1
Atom   1C    basis set group =>   1
Atom   2C    basis set group =>   1
Atom   3C    basis set group =>   1
Atom   4H    basis set group =>   2
Atom   5H    basis set group =>   2
Atom   6H    basis set group =>   2
Atom   7H    basis set group =>   2
Atom   8H    basis set group =>   2
Atom   9H    basis set group =>   2


           ************************************************************
           *        Program running with 8 parallel MPI-processes     *
           *              working on a common directory               *
           ************************************************************
------------------------------------------------------------------------------
                             ORCA STARTUP CALCULATIONS
------------------------------------------------------------------------------
------------------------------------------------------------------------------
                   ___                                                        
                  /   \      - P O W E R E D   B Y -                         
                 /     \                                                     
                 |  |  |   _    _      __       _____    __    __             
                 |  |  |  | |  | |    /  \     |  _  \  |  |  /  |          
                  \  \/   | |  | |   /    \    | | | |  |  | /  /          
                 / \  \   | |__| |  /  /\  \   | |_| |  |  |/  /          
                |  |  |   |  __  | /  /__\  \  |    /   |      \           
                |  |  |   | |  | | |   __   |  |    \   |  |\   \          
                \     /   | |  | | |  |  |  |  | |\  \  |  | \   \       
                 \___/    |_|  |_| |__|  |__|  |_| \__\ |__|  \__/        
                                                                              
                      - O R C A' S   B I G   F R I E N D -                    
                                      &                                       
                       - I N T E G R A L  F E E D E R -                       
                                                                              
 v1 FN, 2020, v2 2021, v3 2022-2024                                           
------------------------------------------------------------------------------


----------------------
SHARK INTEGRAL PACKAGE
----------------------

Number of atoms                             ...     10
Number of basis functions                   ...    624
Number of shells                            ...    192
Maximum angular momentum                    ...      4
Integral batch strategy                     ... SHARK/LIBINT Hybrid
RI-J (if used) integral strategy            ... SPLIT-RIJ (Revised 2003 algorithm where possible)
Printlevel                                  ...      1
Contraction scheme used                     ... PARTIAL GENERAL contraction
Prescreening option                         ... SCHWARTZ
   Thresh                                   ... 2.500e-11
   Tcut                                     ... 2.500e-12
   Tpresel                                  ... 2.500e-12 
Coulomb Range Separation                    ... NOT USED
Exchange Range Separation                   ... NOT USED
Multipole approximations                    ... NOT USED
Finite Nucleus Model                        ... NOT USED
CABS basis                                  ... NOT available
Auxiliary Coulomb fitting basis             ... NOT available
Auxiliary J/K fitting basis                 ... NOT available
Auxiliary Correlation fitting basis         ... NOT available
Auxiliary 'external' fitting basis          ... NOT available

Checking pre-screening integrals            ... done (  0.0 sec) Dimension = 192
Save PGC pre-screening integrals            ... done (  0.0 sec) Dimension = 192
Calculate PGC overlap integrals             ... done (  0.0 sec) Dimension = 164
Calculating pre-screening integrals (ORCA)  ... done (  0.1 sec) Dimension = 164
Shell pair information
Shell pair cut-off parameter TPreSel        ...   2.5e-12
Total number of shell pairs                 ...     18528
Shell pairs after pre-screening             ...     17064
Total number of primitive shell pairs       ...     22608
Primitive shell pairs kept                  ...     19829
          la=0 lb=0:   2745 shell pairs
          la=1 lb=0:   3310 shell pairs
          la=1 lb=1:    964 shell pairs
          la=2 lb=0:   2560 shell pairs
          la=2 lb=1:   1444 shell pairs
          la=2 lb=2:    577 shell pairs
          la=3 lb=0:   1834 shell pairs
          la=3 lb=1:   1036 shell pairs
          la=3 lb=2:    796 shell pairs
          la=3 lb=3:    296 shell pairs
          la=4 lb=0:    650 shell pairs
          la=4 lb=1:    352 shell pairs
          la=4 lb=2:    272 shell pairs
          la=4 lb=3:    192 shell pairs
          la=4 lb=4:     36 shell pairs

Checking whether 4 symmetric matrices of dimension 624 fit in memory
:Max Core in MB      =   4096.00
 MB in use           =     24.28
 MB left             =   4071.72
 MB needed           =      5.95
 Data fit in memory  = YES
Calculating Nuclear repulsion               ... done (  0.0 sec) ENN=    109.249345578353 Eh

Diagonalization of the overlap matrix:
Smallest eigenvalue                        ... 2.286e-06
Time for diagonalization                   ...    0.026 sec
Threshold for overlap eigenvalues          ... 1.000e-07
Number of eigenvalues below threshold      ... 0
Time for construction of square roots      ...    0.015 sec
Total time needed                          ...    0.044 sec

-------------------
DFT GRID GENERATION
-------------------

General Integration Accuracy     IntAcc      ... 4.388
Radial Grid Type                 RadialGrid  ... OptM3 with GC (2021)
Angular Grid (max. ang.)         AngularGrid ... 4 (Lebedev-302)
Angular grid pruning method      GridPruning ... 4 (adaptive)
Weight generation scheme         WeightScheme... mBecke (2022)
Basis function cutoff            BFCut       ... 1.0000e-11
Integration weight cutoff        WCut        ... 1.0000e-14
Partially contracted basis set               ... off
Rotationally invariant grid construction     ... off
Angular grids for H and He will be reduced by one unit
Diffuse basis detected: some atoms will have their outermost
                        angular grid increased by 1.

Total number of grid points                  ...    46048
Total number of batches                      ...      725
Average number of points per batch           ...       63
Average number of grid points per atom       ...     4605

---------------------
SHARK GRID GENERATION
---------------------

General Integration Accuracy     IntAcc      ... 4.388
Radial Grid Type                 RadialGrid  ... OptM3 with GC (2021)
Angular Grid (max. ang.)         AngularGrid ... 4 (Lebedev-302)
Angular grid pruning method      GridPruning ... 4 (adaptive)
Weight generation scheme         WeightScheme... mBecke (2022)
Basis function cutoff            BFCut       ... 1.0000e-11
Integration weight cutoff        WCut        ... 1.0000e-14
Partially contracted basis set               ... off
Rotationally invariant grid construction     ... off
Angular grids for H and He will be reduced by one unit
Diffuse basis detected: some atoms will have their outermost
                        angular grid increased by 1.
Steep s-basis detected: some atoms will have their radial
                        grid points doubled.

Total number of grid points                  ...    71641
Total number of batches                      ...     1124
Average number of points per batch           ...       63
Average number of grid points per atom       ...     7164
Grids setup in   0.5 sec
Initializing property integral containers    ... done (  0.0 sec)

SHARK setup successfully completed in   1.0 seconds

Maximum memory used throughout the entire STARTUP-calculation: 50.3 MB


           ************************************************************
           *        Program running with 8 parallel MPI-processes     *
           *              working on a common directory               *
           ************************************************************
-------------------------------------------------------------------------------
                                 ORCA GUESS
                   Start orbitals & Density for SCF / CASSCF
-------------------------------------------------------------------------------

------------
SCF SETTINGS
------------
Hamiltonian:
 Density Functional     Method          .... DFT(GTOs)
  Functional kind                       .... Exchange
  Functional name                       .... Slater exchange
  Functional family                     .... LDA
  Functional refs                              
    [ 0] P. A. M. Dirac.,  Math. Proc. Cambridge Philos. Soc. 26, 376 (1930), doi: 10.1017/S0305004100016108
    [ 1] F. Bloch.,  Z. Phys. 57, 545 (1929), doi: 10.1007/BF01340281
  Functional external parameters        .... 0
 Correlation Functional Correlation     .... No Correlation
 Gradients option       PostSCFGGA      .... off


General Settings:
 Integral files         IntName         .... /cluster/projects/nn14654k/ylvaos/basis_set_n_funcs/functionals/lda_x/C4H6/inp/C4H6_lda_x_augccpvqz
 Hartree-Fock type      HFTyp           .... RHF
 Total Charge           Charge          ....    0
 Multiplicity           Mult            ....    1
 Number of Electrons    NEL             ....   30
 Basis Dimension        Dim             ....  596
 Nuclear Repulsion      ENuc            ....    109.2493455784 Eh

Convergence Acceleration:
 AO-DIIS                CNVDIIS         .... on
   Start iteration      DIISMaxIt       ....    12
   Startup error        DIISStart       ....  0.200000
   # of expansion vecs  DIISMaxEq       ....     5
   Bias factor          DIISBfac        ....   1.050
   Max. coefficient     DIISMaxC        ....  10.000
 MO-DIIS                CNVKDIIS        .... off
 Trust-Rad. Augm. Hess. CNVTRAH         .... auto
   Auto Start mean grad. ratio tolernc. ....  1.125000
   Auto Start start iteration           ....    50
   Auto Start num. interpolation iter.  ....    10
   Max. Number of Micro iterations      ....    24
   Max. Number of Macro iterations      .... Maxiter - #DIIS iter
   Number of Davidson start vectors     ....     2
   Converg. threshold    (grad. norm)   ....   1.000e-05
   Grad. Scal. Fac. for Micro threshold ....   0.100
   Minimum threshold for Micro iter.    ....   1.000e-02
   NR start threshold (gradient norm)   ....   1.000e-04
   Initial trust radius                 ....   0.400
   Minimum AH scaling param. (alpha)    ....   1.000
   Maximum AH scaling param. (alpha)    .... 1000.000
   Quad. conv. algorithm                .... NR
   White noise on init. David. guess    .... on
   Maximum white noise                  ....   0.010
   Pseudo random numbers                .... off
   Inactive MOs                         .... canonical
   Orbital update algorithm             .... Taylor
   Preconditioner                       .... Diag
   Full preconditioner red. dimension   ....   250
 SOSCF                 CNVSOSCF           .... on
   Start iteration     SOSCFMaxIt         ....   150
   Startup grad/error  SOSCFStart         ....  0.003300
   Hessian update      SOSCFHessUp        .... L-BFGS
   Autom. constraints  SOSCFAutoConstrain .... off
 Level Shifting         CNVShift        .... on
   Level shift para.    LevelShift      ....    0.2500
   Turn off err/grad.   ShiftErr        ....    0.0010
 Zerner damping         CNVZerner       .... off
 Static damping         CNVDamp         .... on
   Fraction old density DampFac         ....    0.7000
   Max. Damping (<1)    DampMax         ....    0.9800
   Min. Damping (>=0)   DampMin         ....    0.0000
   Turn off err/grad.   DampErr         ....    0.1000

SCF Procedure:
 Maximum # iterations   MaxIter         ....   125
 SCF integral mode      SCFMode         .... Direct
   Integral package                     .... SHARK and LIBINT hybrid scheme
 Reset frequency        DirectResetFreq ....    20
 Integral Threshold     Thresh          ....  2.500e-11 Eh
 Primitive CutOff       TCut            ....  2.500e-12 Eh

Convergence Tolerance:
 Convergence Check Mode ConvCheckMode   .... Total+1el-Energy
 Convergence forced     ConvForced      .... 0
 Energy Change          TolE            ....  1.000e-08 Eh
 1-El. energy change                    ....  1.000e-05 Eh
 Orbital Gradient       TolG            ....  1.000e-05
 Orbital Rotation angle TolX            ....  1.000e-05
 DIIS Error             TolErr          ....  5.000e-07

------------------------------
INITIAL GUESS: MODEL POTENTIAL
------------------------------
Loading Hartree-Fock densities                     ... done
Calculating cut-offs                               ... done
Initializing the effective Hamiltonian             ... done
Setting up the integral package (SHARK)            ... done
Starting the Coulomb interaction                   ... done (   0.2 sec)
Making the grid                                    ... done (   0.0 sec)
Mapping shells                                     ... done
Starting the XC term evaluation                    ... done (   0.0 sec)
  promolecular density results
     # of electrons  =     29.996393201
     EX              =    -20.075320856
     EC              =      0.000000000
     EX+EC           =    -20.075320856
Transforming the Hamiltonian                       ... done (   0.0 sec)
Diagonalizing the Hamiltonian                      ... done (   0.0 sec)
Back transforming the eigenvectors                 ... done (   0.0 sec)
Now organizing SCF variables                       ... done
                      ------------------
                      INITIAL GUESS DONE (   0.3 sec)
                      ------------------
             **** ENERGY FILE WAS UPDATED (/cluster/projects/nn14654k/ylvaos/basis_set_n_funcs/functionals/lda_x/C4H6/inp/C4H6_lda_x_augccpvqz.en.tmp) ****
Finished Guess after   0.5 sec
Maximum memory used throughout the entire GUESS-calculation: 41.5 MB


           ************************************************************
           *        Program running with 8 parallel MPI-processes     *
           *              working on a common directory               *
           ************************************************************

-------------------------------------------------------------------------------------------
                                      ORCA LEAN-SCF
                              memory conserving SCF solver
-------------------------------------------------------------------------------------------

----------------------------------------D-I-I-S--------------------------------------------
Iteration    Energy (Eh)           Delta-E    RMSDP     MaxDP     DIISErr   Damp  Time(sec)
-------------------------------------------------------------------------------------------
               ***  Starting incremental Fock matrix formation  ***
    1    -152.5642072162055456     0.00e+00  1.31e-03  3.73e-02  1.65e-01  0.700  21.6
    2    -152.6234017026523020    -5.92e-02  9.41e-04  2.68e-02  8.20e-02  0.700  20.7
                               ***Turning on AO-DIIS***
    3    -152.6438964088341663    -2.05e-02  4.58e-04  1.09e-02  2.42e-02  0.700  20.7
    4    -152.6557005681061696    -1.18e-02  9.04e-04  2.33e-02  1.02e-02  0.000  20.6
    5    -152.6826885546798280    -2.70e-02  1.39e-04  2.36e-03  7.09e-03  0.000  20.9
                              *** Initializing SOSCF ***
---------------------------------------S-O-S-C-F--------------------------------------
Iteration    Energy (Eh)           Delta-E    RMSDP     MaxDP     MaxGrad    Time(sec)
--------------------------------------------------------------------------------------
    6    -152.6829787974219812    -2.90e-04  5.96e-05  8.59e-04  1.84e-03    19.3
               *** Restarting incremental Fock matrix formation ***
    7    -152.6830019104482972    -2.31e-05  5.73e-05  1.08e-03  3.38e-04    21.6
    8    -152.6830008981739866     1.01e-06  1.84e-05  4.10e-04  4.33e-04    18.1
    9    -152.6830055976967628    -4.70e-06  1.47e-05  2.93e-04  1.83e-04    17.1
   10    -152.6830046945715367     9.03e-07  6.67e-06  1.71e-04  2.87e-04    16.9
   11    -152.6830059926610943    -1.30e-06  5.06e-06  1.54e-04  2.62e-05    16.2
   12    -152.6830059798360253     1.28e-08  2.14e-06  3.89e-05  3.62e-05    15.7
   13    -152.6830060147353834    -3.49e-08  4.40e-06  8.22e-05  4.34e-06    14.8
   14    -152.6830060145691164     1.66e-10  4.58e-06  9.53e-05  3.40e-06    15.2
                 **** Energy Check signals convergence ****

               *****************************************************
               *                     SUCCESS                       *
               *           SCF CONVERGED AFTER  14 CYCLES          *
               *****************************************************

             **** ENERGY FILE WAS UPDATED (/cluster/projects/nn14654k/ylvaos/basis_set_n_funcs/functionals/lda_x/C4H6/inp/C4H6_lda_x_augccpvqz.en.tmp) ****

----------------
TOTAL SCF ENERGY
----------------

Total Energy       :       -152.68300601526636 Eh           -4154.71582 eV

Components:
Nuclear Repulsion  :        109.24934557835338 Eh            2972.82583 eV
Electronic Energy  :       -261.93235159361973 Eh           -7127.54164 eV
One Electron Energy:       -423.86590791573849 Eh          -11533.97773 eV
Two Electron Energy:        161.93355632211873 Eh            4406.43609 eV

Virial components:
Potential Energy   :       -305.51959159111556 Eh           -8313.61074 eV
Kinetic Energy     :        152.83658557584920 Eh            4158.89493 eV
Virial Ratio       :          1.99899513876207

DFT components:
N(Alpha)           :       15.000005073945 electrons
N(Beta)            :       15.000005073945 electrons
N(Total)           :       30.000010147890 electrons
E(X)               :      -20.399783458995 Eh       
E(C)               :        0.000000000000 Eh       
E(XC)              :      -20.399783458995 Eh       

---------------
SCF CONVERGENCE
---------------

  Last Energy change         ...   -1.6627e-10  Tolerance :   1.0000e-08
  Last MAX-Density change    ...    9.5279e-05  Tolerance :   1.0000e-07
  Last RMS-Density change    ...    4.5829e-06  Tolerance :   5.0000e-09
  Last DIIS Error            ...    1.8358e-03  Tolerance :   5.0000e-07
  Last Orbital Gradient      ...    3.4031e-06  Tolerance :   1.0000e-05
  Last Orbital Rotation      ...    6.9400e-06  Tolerance :   1.0000e-05


----------------
ORBITAL ENERGIES
----------------

  NO   OCC          E(Eh)            E(eV) 
   0   2.0000      -9.731631      -264.8111 
   1   2.0000      -9.724925      -264.6287 
   2   2.0000      -9.724833      -264.6262 
   3   2.0000      -9.708039      -264.1692 
   4   2.0000      -0.746752       -20.3201 
   5   2.0000      -0.596440       -16.2300 
   6   2.0000      -0.504174       -13.7193 
   7   2.0000      -0.433604       -11.7990 
   8   2.0000      -0.389998       -10.6124 
   9   2.0000      -0.377300       -10.2668 
  10   2.0000      -0.335704        -9.1350 
  11   2.0000      -0.283359        -7.7106 
  12   2.0000      -0.238716        -6.4958 
  13   2.0000      -0.214238        -5.8297 
  14   2.0000      -0.189758        -5.1636 
  15   0.0000      -0.007280        -0.1981 
  16   0.0000       0.001088         0.0296 
  17   0.0000       0.015758         0.4288 
  18   0.0000       0.016684         0.4540 
  19   0.0000       0.031391         0.8542 
  20   0.0000       0.037602         1.0232 
  21   0.0000       0.045058         1.2261 
  22   0.0000       0.046963         1.2779 
  23   0.0000       0.058414         1.5895 
  24   0.0000       0.064020         1.7421 
  25   0.0000       0.069869         1.9012 
*Only the first 10 virtual orbitals were printed.

                    ********************************
                    * MULLIKEN POPULATION ANALYSIS *
                    ********************************

-----------------------
MULLIKEN ATOMIC CHARGES
-----------------------
   0 C :   -0.599072
   1 C :    0.030131
   2 C :   -0.655979
   3 C :   -0.655980
   4 H :    0.269061
   5 H :    0.268928
   6 H :    0.335739
   7 H :    0.335695
   8 H :    0.335727
   9 H :    0.335749
Sum of atomic charges:    0.0000000

--------------------------------
MULLIKEN REDUCED ORBITAL CHARGES
--------------------------------
  0 C s       :     3.222448  s :     3.222448
      pz      :     1.002524  p :     3.333123
      px      :     1.028512
      py      :     1.302088
      dz2     :     0.016400  d :     0.042285
      dxz     :     0.013142
      dyz     :    -0.005206
      dx2y2   :     0.016326
      dxy     :     0.001622
      f0      :    -0.001313  f :     0.000027
      f+1     :     0.001180
      f-1     :    -0.000785
      f+2     :    -0.000019
      f-2     :    -0.000652
      f+3     :     0.000144
      f-3     :     0.001471
      g0      :    -0.002685  g :     0.001190
      g+1     :     0.001040
      g-1     :     0.002271
      g+2     :     0.000410
      g-2     :     0.000000
      g+3     :     0.000013
      g-3     :     0.000151
      g+4     :    -0.000012
      g-4     :     0.000000

  1 C s       :     3.266261  s :     3.266261
      pz      :     0.908725  p :     2.849954
      px      :     0.927833
      py      :     1.013396
      dz2     :    -0.032637  d :    -0.100541
      dxz     :    -0.000216
      dyz     :    -0.069839
      dx2y2   :     0.001751
      dxy     :     0.000402
      f0      :    -0.012478  f :    -0.036105
      f+1     :     0.002025
      f-1     :    -0.024362
      f+2     :     0.002295
      f-2     :    -0.003707
      f+3     :     0.000010
      f-3     :     0.000111
      g0      :    -0.001774  g :    -0.009701
      g+1     :     0.001168
      g-1     :    -0.008643
      g+2     :    -0.001482
      g-2     :     0.000742
      g+3     :    -0.000163
      g-3     :     0.000419
      g+4     :     0.000053
      g-4     :    -0.000022

  2 C s       :     3.127732  s :     3.127732
      pz      :     1.071942  p :     3.380374
      px      :     1.295293
      py      :     1.013139
      dz2     :     0.029607  d :     0.134249
      dxz     :     0.006715
      dyz     :     0.008619
      dx2y2   :     0.028309
      dxy     :     0.061000
      f0      :     0.005789  f :     0.011029
      f+1     :    -0.000026
      f-1     :     0.000155
      f+2     :    -0.004929
      f-2     :     0.003804
      f+3     :     0.004966
      f-3     :     0.001270
      g0      :     0.000500  g :     0.002595
      g+1     :     0.000379
      g-1     :     0.000367
      g+2     :    -0.000855
      g-2     :     0.000364
      g+3     :     0.000333
      g-3     :     0.000542
      g+4     :     0.000601
      g-4     :     0.000363

  3 C s       :     3.127776  s :     3.127776
      pz      :     1.071925  p :     3.380333
      px      :     1.295287
      py      :     1.013121
      dz2     :     0.029606  d :     0.134248
      dxz     :     0.006718
      dyz     :     0.008618
      dx2y2   :     0.028302
      dxy     :     0.061003
      f0      :     0.005788  f :     0.011028
      f+1     :    -0.000026
      f-1     :     0.000154
      f+2     :    -0.004930
      f-2     :     0.003804
      f+3     :     0.004966
      f-3     :     0.001271
      g0      :     0.000500  g :     0.002595
      g+1     :     0.000379
      g-1     :     0.000367
      g+2     :    -0.000855
      g-2     :     0.000364
      g+3     :     0.000333
      g-3     :     0.000542
      g+4     :     0.000601
      g-4     :     0.000363

  4 H s       :     0.679784  s :     0.679784
      pz      :     0.012752  p :     0.049515
      px      :     0.024105
      py      :     0.012658
      dz2     :     0.001815  d :     0.002329
      dxz     :     0.000053
      dyz     :    -0.001337
      dx2y2   :    -0.000669
      dxy     :     0.002466
      f0      :     0.000107  f :    -0.000689
      f+1     :     0.000055
      f-1     :    -0.000187
      f+2     :    -0.000583
      f-2     :     0.000053
      f+3     :     0.000299
      f-3     :    -0.000434

  5 H s       :     0.679897  s :     0.679897
      pz      :     0.012761  p :     0.049537
      px      :     0.024106
      py      :     0.012671
      dz2     :     0.001814  d :     0.002327
      dxz     :     0.000053
      dyz     :    -0.001338
      dx2y2   :    -0.000669
      dxy     :     0.002466
      f0      :     0.000107  f :    -0.000689
      f+1     :     0.000055
      f-1     :    -0.000187
      f+2     :    -0.000583
      f-2     :     0.000053
      f+3     :     0.000299
      f-3     :    -0.000434

  6 H s       :     0.598150  s :     0.598150
      pz      :     0.018889  p :     0.063330
      px      :     0.024488
      py      :     0.019953
      dz2     :     0.000744  d :     0.003770
      dxz     :     0.000411
      dyz     :     0.000600
      dx2y2   :     0.002821
      dxy     :    -0.000806
      f0      :    -0.000057  f :    -0.000989
      f+1     :    -0.000173
      f-1     :     0.000093
      f+2     :     0.000103
      f-2     :    -0.000223
      f+3     :    -0.000211
      f-3     :    -0.000521

  7 H s       :     0.598192  s :     0.598192
      pz      :     0.018887  p :     0.063332
      px      :     0.024490
      py      :     0.019955
      dz2     :     0.000745  d :     0.003769
      dxz     :     0.000410
      dyz     :     0.000599
      dx2y2   :     0.002821
      dxy     :    -0.000806
      f0      :    -0.000057  f :    -0.000989
      f+1     :    -0.000173
      f-1     :     0.000093
      f+2     :     0.000103
      f-2     :    -0.000223
      f+3     :    -0.000211
      f-3     :    -0.000521

  8 H s       :     0.598166  s :     0.598166
      pz      :     0.018888  p :     0.063325
      px      :     0.024489
      py      :     0.019948
      dz2     :     0.000745  d :     0.003770
      dxz     :     0.000411
      dyz     :     0.000599
      dx2y2   :     0.002821
      dxy     :    -0.000805
      f0      :    -0.000057  f :    -0.000989
      f+1     :    -0.000173
      f-1     :     0.000093
      f+2     :     0.000103
      f-2     :    -0.000223
      f+3     :    -0.000211
      f-3     :    -0.000521

  9 H s       :     0.598137  s :     0.598137
      pz      :     0.018889  p :     0.063332
      px      :     0.024494
      py      :     0.019949
      dz2     :     0.000745  d :     0.003770
      dxz     :     0.000411
      dyz     :     0.000599
      dx2y2   :     0.002821
      dxy     :    -0.000806
      f0      :    -0.000057  f :    -0.000989
      f+1     :    -0.000173
      f-1     :     0.000093
      f+2     :     0.000103
      f-2     :    -0.000223
      f+3     :    -0.000210
      f-3     :    -0.000521



                     *******************************
                     * LOEWDIN POPULATION ANALYSIS *
                     *******************************

----------------------
LOEWDIN ATOMIC CHARGES
----------------------
   0 C :    0.787233
   1 C :   -0.075947
   2 C :    0.551592
   3 C :    0.551592
   4 H :   -0.360565
   5 H :   -0.360565
   6 H :   -0.273335
   7 H :   -0.273335
   8 H :   -0.273335
   9 H :   -0.273335

-------------------------------
LOEWDIN REDUCED ORBITAL CHARGES
-------------------------------
  0 C s       :     2.465771  s :     2.465771
      pz      :     0.806623  p :     2.119408
      px      :     0.551464
      py      :     0.761322
      dz2     :     0.106422  d :     0.382905
      dxz     :     0.054326
      dyz     :     0.195955
      dx2y2   :     0.023393
      dxy     :     0.002809
      f0      :     0.047347  f :     0.178563
      f+1     :     0.039734
      f-1     :     0.066419
      f+2     :     0.012855
      f-2     :     0.002872
      f+3     :     0.000432
      f-3     :     0.008906
      g0      :     0.019207  g :     0.066119
      g+1     :     0.013956
      g-1     :     0.026595
      g+2     :     0.001586
      g-2     :     0.000187
      g+3     :     0.000298
      g-3     :     0.003801
      g+4     :     0.000476
      g-4     :     0.000013

  1 C s       :     2.406694  s :     2.406694
      pz      :     0.869100  p :     2.061815
      px      :     0.538231
      py      :     0.654484
      dz2     :     0.268712  d :     0.926075
      dxz     :     0.230005
      dyz     :     0.314470
      dx2y2   :     0.038562
      dxy     :     0.074326
      f0      :     0.137362  f :     0.523266
      f+1     :     0.057981
      f-1     :     0.163482
      f+2     :     0.044102
      f-2     :     0.105827
      f+3     :     0.013079
      f-3     :     0.001432
      g0      :     0.044279  g :     0.158097
      g+1     :     0.017745
      g-1     :     0.037649
      g+2     :     0.015356
      g-2     :     0.027714
      g+3     :     0.010900
      g-3     :     0.002722
      g+4     :     0.000255
      g-4     :     0.001477

  2 C s       :     2.390536  s :     2.390536
      pz      :     0.634308  p :     1.991368
      px      :     0.709611
      py      :     0.647449
      dz2     :     0.124651  d :     0.613915
      dxz     :     0.082168
      dyz     :     0.138286
      dx2y2   :     0.092468
      dxy     :     0.176341
      f0      :     0.073878  f :     0.349548
      f+1     :     0.037919
      f-1     :     0.053708
      f+2     :     0.063271
      f-2     :     0.025670
      f+3     :     0.061032
      f-3     :     0.034071
      g0      :     0.010240  g :     0.103041
      g+1     :     0.005226
      g-1     :     0.027135
      g+2     :     0.009288
      g-2     :     0.010716
      g+3     :     0.003767
      g-3     :     0.013369
      g+4     :     0.006449
      g-4     :     0.016850

  3 C s       :     2.390536  s :     2.390536
      pz      :     0.634308  p :     1.991368
      px      :     0.709611
      py      :     0.647449
      dz2     :     0.124651  d :     0.613915
      dxz     :     0.082168
      dyz     :     0.138286
      dx2y2   :     0.092468
      dxy     :     0.176341
      f0      :     0.073878  f :     0.349548
      f+1     :     0.037919
      f-1     :     0.053708
      f+2     :     0.063271
      f-2     :     0.025670
      f+3     :     0.061032
      f-3     :     0.034071
      g0      :     0.010240  g :     0.103041
      g+1     :     0.005226
      g-1     :     0.027135
      g+2     :     0.009288
      g-2     :     0.010716
      g+3     :     0.003767
      g-3     :     0.013369
      g+4     :     0.006449
      g-4     :     0.016850

  4 H s       :     0.651341  s :     0.651341
      pz      :     0.095150  p :     0.334428
      px      :     0.091852
      py      :     0.147426
      dz2     :     0.067704  d :     0.257679
      dxz     :     0.031034
      dyz     :     0.058845
      dx2y2   :     0.058324
      dxy     :     0.041773
      f0      :     0.008558  f :     0.117117
      f+1     :     0.002889
      f-1     :     0.046717
      f+2     :     0.014858
      f-2     :     0.016819
      f+3     :     0.010958
      f-3     :     0.016318

  5 H s       :     0.651341  s :     0.651341
      pz      :     0.095150  p :     0.334428
      px      :     0.091852
      py      :     0.147426
      dz2     :     0.067704  d :     0.257679
      dxz     :     0.031034
      dyz     :     0.058845
      dx2y2   :     0.058324
      dxy     :     0.041773
      f0      :     0.008558  f :     0.117117
      f+1     :     0.002889
      f-1     :     0.046717
      f+2     :     0.014858
      f-2     :     0.016819
      f+3     :     0.010958
      f-3     :     0.016318

  6 H s       :     0.603767  s :     0.603767
      pz      :     0.084535  p :     0.301215
      px      :     0.128677
      py      :     0.088003
      dz2     :     0.038396  d :     0.249734
      dxz     :     0.048456
      dyz     :     0.030346
      dx2y2   :     0.084460
      dxy     :     0.048076
      f0      :     0.008167  f :     0.118620
      f+1     :     0.020360
      f-1     :     0.010875
      f+2     :     0.007659
      f-2     :     0.018966
      f+3     :     0.039796
      f-3     :     0.012797

  7 H s       :     0.603767  s :     0.603767
      pz      :     0.084535  p :     0.301215
      px      :     0.128677
      py      :     0.088003
      dz2     :     0.038396  d :     0.249734
      dxz     :     0.048456
      dyz     :     0.030346
      dx2y2   :     0.084460
      dxy     :     0.048076
      f0      :     0.008167  f :     0.118620
      f+1     :     0.020360
      f-1     :     0.010875
      f+2     :     0.007659
      f-2     :     0.018966
      f+3     :     0.039796
      f-3     :     0.012797

  8 H s       :     0.603767  s :     0.603767
      pz      :     0.084535  p :     0.301215
      px      :     0.128677
      py      :     0.088003
      dz2     :     0.038396  d :     0.249734
      dxz     :     0.048456
      dyz     :     0.030346
      dx2y2   :     0.084460
      dxy     :     0.048076
      f0      :     0.008167  f :     0.118620
      f+1     :     0.020360
      f-1     :     0.010875
      f+2     :     0.007659
      f-2     :     0.018966
      f+3     :     0.039796
      f-3     :     0.012797

  9 H s       :     0.603767  s :     0.603767
      pz      :     0.084535  p :     0.301215
      px      :     0.128677
      py      :     0.088003
      dz2     :     0.038396  d :     0.249734
      dxz     :     0.048456
      dyz     :     0.030346
      dx2y2   :     0.084460
      dxy     :     0.048076
      f0      :     0.008167  f :     0.118620
      f+1     :     0.020360
      f-1     :     0.010875
      f+2     :     0.007659
      f-2     :     0.018966
      f+3     :     0.039796
      f-3     :     0.012797



                      *****************************
                      * MAYER POPULATION ANALYSIS *
                      *****************************

  NA   - Mulliken gross atomic population
  ZA   - Total nuclear charge
  QA   - Mulliken gross atomic charge
  VA   - Mayer's total valence
  BVA  - Mayer's bonded valence
  FA   - Mayer's free valence

  ATOM       NA         ZA         QA         VA         BVA        FA
  0 C      6.5991     6.0000    -0.5991     3.5244     3.5244    -0.0000
  1 C      5.9699     6.0000     0.0301     3.4598     3.4598     0.0000
  2 C      6.6560     6.0000    -0.6560     3.8775     3.8775     0.0000
  3 C      6.6560     6.0000    -0.6560     3.8774     3.8774     0.0000
  4 H      0.7309     1.0000     0.2691     0.9302     0.9302    -0.0000
  5 H      0.7311     1.0000     0.2689     0.9304     0.9304    -0.0000
  6 H      0.6643     1.0000     0.3357     0.9528     0.9528     0.0000
  7 H      0.6643     1.0000     0.3357     0.9529     0.9529    -0.0000
  8 H      0.6643     1.0000     0.3357     0.9528     0.9528     0.0000
  9 H      0.6643     1.0000     0.3357     0.9528     0.9528    -0.0000

  Mayer bond orders larger than 0.100000
B(  0-C ,  1-C ) :   1.6047 B(  0-C ,  4-H ) :   0.9491 B(  0-C ,  5-H ) :   0.9492 
B(  1-C ,  2-C ) :   0.9740 B(  1-C ,  3-C ) :   0.9739 B(  2-C ,  3-C ) :   1.1669 
B(  2-C ,  6-H ) :   0.8331 B(  2-C ,  7-H ) :   0.8331 B(  3-C ,  8-H ) :   0.8331 
B(  3-C ,  9-H ) :   0.8331 

-------
TIMINGS
-------

Total SCF time: 0 days 0 hours 4 min 34 sec 

Total time                  ....     274.410 sec
Sum of individual times     ....     259.456 sec  ( 94.6%)

SCF preparation             ....       0.138 sec  (  0.1%)
Fock matrix formation       ....     257.802 sec  ( 93.9%)
  Startup                   ....       0.025 sec  (  0.0% of F)
  Coulomb formation         ....     270.067 sec  (104.8% of F)
  XC integration            ....       2.359 sec  (  0.9% of F)
    XC Preparation          ....       0.000 sec  (  0.0% of XC)
    Basis function eval.    ....       0.162 sec  (  6.9% of XC)
    Density eval.           ....       0.742 sec  ( 31.5% of XC)
    XC-Functional eval.     ....       0.013 sec  (  0.6% of XC)
    XC-Potential eval.      ....       1.159 sec  ( 49.1% of XC)
Diagonalization             ....       0.000 sec  (  0.0%)
Density matrix formation    ....       0.143 sec  (  0.1%)
Total Energy calculation    ....       0.057 sec  (  0.0%)
Population analysis         ....       0.053 sec  (  0.0%)
Orbital Transformation      ....       0.141 sec  (  0.1%)
Orbital Orthonormalization  ....       0.000 sec  (  0.0%)
DIIS solution               ....       0.643 sec  (  0.2%)
SOSCF solution              ....       0.479 sec  (  0.2%)
Finished LeanSCF after 274.5 sec

Maximum memory used throughout the entire LEANSCF-calculation: 52.3 MB


           ************************************************************
           *        Program running with 8 parallel MPI-processes     *
           *              working on a common directory               *
           ************************************************************

------------------------------------------------------------------------------
                         ORCA PROPERTY INTEGRAL CALCULATIONS
------------------------------------------------------------------------------

GBWName                                   ... /cluster/projects/nn14654k/ylvaos/basis_set_n_funcs/functionals/lda_x/C4H6/inp/C4H6_lda_x_augccpvqz.gbw
Number of atoms                           ...     10
Number of basis functions                 ...    624
Max core memory                           ...   4096 MB

Dipole integrals                          ... YES
Quadrupole integrals                      ... YES
Linear momentum integrals                 ...  NO
Angular momentum integrals                ...  NO
Higher moments length integrals           ...  NO
Higher moments velocity integrals         ...  NO
Kinetic energy integrals                  ...  NO
GIAO right hand sides                     ...  NO
GIAO dipole derivative integrals          ...  NO
SOC integrals                             ...  NO
EPR diamagnetic integrals (GIAO)          ...  NO
EPR gauge integrals                       ...  NO
Field gradient integrals                  ...  NO (   0 nuclei)
Spin-dipole/Fermi contact integrals       ...  NO (   0 nuclei)
Contact density integrals                 ...  NO (   0 nuclei)
Nucleus-orbit integrals                   ...  NO (   0 nuclei)
Geometric perturbations                   ...  NO (  10 nuclei)

Choice of electric origin   ... Center of mass
Position of electric origin ... (  0.0000,  0.0000,  0.0124) 
Choice of magnetic origin   ... GIAO
Position of magnetic origin ... (  0.0000,  0.0000,  0.0000) 

Calculating integrals                     ... Electric Dipole (Length)     done (  0.0 sec)
Calculating integrals                     ... Electric Quadrupole (Length) done (  0.0 sec)

Property integrals calculated in   0.1 sec

Maximum memory used throughout the entire PROPINT-calculation: 48.3 MB
------------------------------------------------------------------------------
                           ORCA ORBITAL LOCALIZATION
------------------------------------------------------------------------------

Input orbitals are from                  ... /cluster/projects/nn14654k/ylvaos/basis_set_n_funcs/functionals/lda_x/C4H6/inp/C4H6_lda_x_augccpvqz.gbw
Output orbitals are to                   ... /cluster/projects/nn14654k/ylvaos/basis_set_n_funcs/functionals/lda_x/C4H6/inp/C4H6_lda_x_augccpvqz.loc
Max. number of iterations                ... 128
Localizations seeded randomly            ... on
Convergence tolerance                    ... 1.000e-06
Threshold for strong local MOs           ... 9.500e-01
Threshold for bond MOs                   ... 8.500e-01
Operator                                 ... 0
Orbital range for localization           ... 4 to 14
Localization criterion                   ... NEW-BOYS
Doing the dipole integrals               ... o.k.
Initial value of the localization sum :    59.683398
ITERATION   0 : L=   85.0813321716 DL=  2.54e+01 (AVERGE_DL)=    0.6795444236 
ITERATION   1 : L=   86.0909061096 DL=  1.01e+00 (AVERGE_DL)=    0.1354839097 
ITERATION   2 : L=   86.0999443641 DL=  9.04e-03 (AVERGE_DL)=    0.0128192004 
ITERATION   3 : L=   86.1000120278 DL=  6.77e-05 (AVERGE_DL)=    0.0011091665 
ITERATION   4 : L=   86.1000125488 DL=  5.21e-07 (AVERGE_DL)=    0.0000973229 
LOCALIZATION SUM CONVERGED


--------------------------------------------------------------------------------
                    LOCALIZED MOLECULAR ORBITAL COMPOSITIONS
--------------------------------------------------------------------------------

The Mulliken populations for each LMO on each atom are computed
The LMO`s will be ordered according to atom index and type
  (A) Strongly localized MO`s have populations of >=0.950 on one atom
  (B) Two center bond orbitals have populations of >=0.850 on two atoms
  (C) Other MO`s are considered to be `delocalized`

FOUND  -   0 strongly local MO`s
       -  11 two center bond MO`s
       -   0 significantly delocalized MO`s

Bond-like localized orbitals:
MO  14:   9H  -   0.298820  and   3C  -   0.665866
MO  13:   8H  -   0.298841  and   3C  -   0.665812
MO  12:   7H  -   0.298837  and   2C  -   0.665843
MO  11:   6H  -   0.298826  and   2C  -   0.665838
MO  10:   5H  -   0.361611  and   0C  -   0.679974
MO   9:   4H  -   0.361591  and   0C  -   0.680006
MO   8:   3C  -   0.513206  and   2C  -   0.513183
MO   7:   3C  -   0.490942  and   1C  -   0.568802
MO   6:   2C  -   0.490934  and   1C  -   0.568806
MO   5:   1C  -   0.517078  and   0C  -   0.482531
MO   4:   1C  -   0.517074  and   0C  -   0.482533
Localized MO's were stored in: /cluster/projects/nn14654k/ylvaos/basis_set_n_funcs/functionals/lda_x/C4H6/inp/C4H6_lda_x_augccpvqz.loc

-------------------------   --------------------
FINAL SINGLE POINT ENERGY      -152.683006015266
-------------------------   --------------------



           ************************************************************
           *        Program running with 8 parallel MPI-processes     *
           *              working on a common directory               *
           ************************************************************

------------------------------------------------------------------------------
                              ORCA PROPERTY CALCULATIONS
------------------------------------------------------------------------------

GBWName                                 ... /cluster/projects/nn14654k/ylvaos/basis_set_n_funcs/functionals/lda_x/C4H6/inp/C4H6_lda_x_augccpvqz.gbw
Number of atoms                         ...     10
Number of basis functions               ...    624
Max core memory                         ...   4096 MB

Electric properties:
Dipole moment                           ... YES
Quadrupole moment                       ... YES
Static polarizability (Dipole/Dipole)   ...  NO
Static polarizability (Dipole/Quad.)    ...  NO
Static polarizability (Quad./Quad.)     ...  NO
Static polarizability (Velocity)        ...  NO
Static hyperpolarizability              ...  NO

Atomic electric properties:
Dipole moment                           ...  NO
Quadrupole moment                       ...  NO
Static polarizability                   ...  NO

Choice of electric origin               ... Center of mass
Position of electric origin             ...     0.000000     0.000000     0.012360

General magnetic properties:
Magnetizability                         ...  NO

EPR properties:
g-Tensor (aka g-matrix)                 ...  NO
Zero-Field splitting spin-orbit         ...  NO
Zero-field splitting spin-spin          ...  NO
Hyperfine couplings                     ...  NO (   0 nuclei)
Quadrupole couplings                    ...  NO (   0 nuclei)
Contact density                         ...  NO (   0 nuclei)

NMR properties:
Chemical shifts                         ...  NO (   0 nuclei)
Spin-rotation constants                 ...  NO (   0 nuclei)
Spin-spin couplings                     ...  NO (   0 nuclei,    0 pairs)

Choice of magnetic origin               ... GIAO
Position of magnetic origin             ...     0.000000     0.000000     0.000000

Properties with geometric perturbations:
SCF Hessian                             ...  NO
IR spectrum                             ...  NO
VCD spectrum                            ...  NO
X-ray spectroscopy properties:
SCF XES/XAS/RIXS spectra                ...  NO

SCF SOC stabilization energy            ...  NO
Diagonal Born-Oppenheimer correction    ...  NO

-------------
DIPOLE MOMENT
-------------

Method             : SCF
Type of density    : Electron Density
Multiplicity       :   1
Irrep              :   0
Energy             :  -152.6830060152663577 Eh
Basis              : AO
                                X                 Y                 Z
Electronic contribution:      0.000000027       0.000000017       0.187564093
Nuclear contribution   :      0.000000000       0.000000000      -0.371559272
                        -----------------------------------------
Total Dipole Moment    :      0.000000027       0.000000017      -0.183995178
                        -----------------------------------------
Magnitude (a.u.)       :      0.183995178
Magnitude (Debye)      :      0.467678576



--------------------
Rotational spectrum 
--------------------
 
Rotational constants in cm-1:             0.643527             0.230144             0.181788 
Rotational constants in MHz :         19292.450199          6899.535423          5449.866904 

Dipole components along the rotational axes: 
x,y,z [a.u.] :    -0.183995     0.000000     0.000000 
x,y,z [Debye]:    -0.467679     0.000000     0.000000 

 

Dipole moment calculation done in   0.0 sec 

-----------------
QUADRUPOLE MOMENT
-----------------

Method             : SCF
Type of density    : Electron Density
Multiplicity       :   1
Irrep              :   0
Energy             :  -152.6830060152663577 Eh
Basis              : AO

                XX              YY              ZZ              XY              XZ              YZ
  NUC       11.888664720    55.799971245   152.416444257     0.000000000     0.000000000     0.000000000
  EL       -31.658010566   -74.545011598  -171.911374860     0.000000057     0.000000018     0.000000025
  TOT      -19.769345845   -18.745040353   -19.494930602     0.000000057     0.000000018     0.000000025 (a.u.)
           -26.590446274   -25.212720356   -26.221348387     0.000000076     0.000000024     0.000000034 (Buckingham)

diagonalized tensor:
           -19.769345845   -19.494930602   -18.745040353 (a.u.)
           -26.590446274   -26.221348387   -25.212720356 (Buckingham)
            -1.746823805    -0.639530144     2.386353949 (traceless form in Buckingham)

             1.000000000     0.000000064     0.000000055
            -0.000000055    -0.000000034     1.000000000
            -0.000000064     1.000000000     0.000000034
        
Isotropic quadrupole :   -19.336438934

Quadrupole moment calculation done in   0.0 sec (  0.0 sec for integrals)

Maximum memory used throughout the entire PROP-calculation: 46.2 MB

--------------------------------
SUGGESTED CITATIONS FOR THIS RUN
--------------------------------

Below you find a list of papers that are relevant to this ORCA run
We neither can nor want to force you to cite these papers, but we appreciate if you do
You receive ORCA, which is the product of decades of hard work by many enthusiastic individuals, for free
The only thing we kindly ask in return is that you cite our papers,
We deeply appreciate it, if you show your appreciation for ORCA by not just citing the generic ORCA reference.

Please note that relegating all ORCA citations to the supporting information does *not* help us.
SI sections are not indexed - citations you put there will not count into any citation statistics
But we need these citations in order to attract the funding resources that allow us to do what we are doing

Therefore, if you are a happy ORCA user, please consider citing a few of the papers listed below in the main body of your paper

In addition to the list printed below, the program has created the file /cluster/projects/nn14654k/ylvaos/basis_set_n_funcs/functionals/lda_x/C4H6/inp/C4H6_lda_x_augccpvqz.bibtex that contains the list in bibtex format
You can import this file easily into all common literature databanks and citation aid programs

It goes without saying that in many instances, there are alternative algorithms to achieve similar
results as the ones you have gotten from ORCA. It is, of course, also the case that in some instances
ORCA just re-implements algorithms worked out by others. We are fully aware of that and we are also
fully appreciative of our colleagues work. Hence this citation list should not be read as indicating
that the listed papers, which are focused on our own work, are the only ones worth citing. It simply
meant to make it easier for users to cite ORCA specific papers. It is not a substitute for doing your
own literature research and citing the relevant literature in a scientifically appropriate manner.

List of essential papers. We consider these as the minimum necessary citations

  1. Neese, F.
     Software update: the ORCA program system, version 6.0
     WIRES Comput. Molec. Sci. 2025 15(1), e70019
     doi.org/10.1002/wcms.70019

List of papers to cite with high priority. The work reported in these papers was absolutely
necessary for this run to complete.
Our perspective: the developers of density functionals and basis sets usually get cited in chemistry papers
Good! But without the algorithms to do something with them, the functionals or basis sets would not do anything.
Hence, in our opinion, the algorithm design and method developments papers are equally worthy of getting cited

  1. Lehtola, S.; Steigemann, C.; Oliveira, M.; Marques, M.
     Recent developments in Libxc - A comprehensive library of functionals for density functional theory
     Software X 2018 7 , 
     doi.org/10.1016/j.softx.2017.11.002
  2. Neese, F.
     The SHARK Integral Generation and Digestion System
     J. Comp. Chem. 2022 44(3), 381
     doi.org/10.1002/jcc.26942

List of suggested additional citations. These are papers that are important in the 'surrounding' of 
of this run, or papers that preceded the highly important papers. If you like your results we are grateful for a citation.

  1. Neese, F.
     The ORCA program system
     WIRES Comput. Molec. Sci. 2012 2(1), 73-78
     doi.org/10.1002/wcms.81
  2. Neese, F.
     Software update: the ORCA program system, version 4.0
     WIRES Comput. Molec. Sci. 2018 8(1), 1-6
     doi.org/10.1002/wcms.1327
  3. Neese, F.; Wennmohs, F.; Becker, U.; Riplinger, C.
     The ORCA quantum chemistry program package
     J. Chem. Phys. 2020 152(22), 224108
     doi.org/10.1063/5.0004608
  4. Neese, F.
     Software update: The ORCA program system—Version 5.0
     WIRES Comput. Molec. Sci. 2022 12(1), e1606
     doi.org/10.1002/wcms.1606

List of optional additional citations

  1. Neese, F.
     Approximate second-order SCF convergence for spin unrestricted wavefunctions
     Chem. Phys. Lett. 2000 325(1-3), 93-98
     doi.org/10.1016/s0009-2614(00)00662-x

Timings for individual modules:

Sum of individual times          ...      277.336 sec (=   4.622 min)
Startup calculation              ...        1.264 sec (=   0.021 min)   0.5 %
SCF iterations                   ...      275.364 sec (=   4.589 min)  99.3 %
Property integrals               ...        0.384 sec (=   0.006 min)   0.1 %
Property calculations            ...        0.301 sec (=   0.005 min)   0.1 %
Orbital localization             ...        0.023 sec (=   0.000 min)   0.0 %
                             ****ORCA TERMINATED NORMALLY****
TOTAL RUN TIME: 0 days 0 hours 4 minutes 37 seconds 892 msec
