
                                 *****************
                                 * O   R   C   A *
                                 *****************

                                            #,                                       
                                            ###                                      
                                            ####                                     
                                            #####                                    
                                            ######                                   
                                           ########,                                 
                                     ,,################,,,,,                         
                               ,,#################################,,                 
                          ,,##########################################,,             
                       ,#########################################, ''#####,          
                    ,#############################################,,   '####,        
                  ,##################################################,,,,####,       
                ,###########''''           ''''###############################       
              ,#####''   ,,,,##########,,,,          '''####'''          '####       
            ,##' ,,,,###########################,,,                        '##       
           ' ,,###''''                  '''############,,,                           
         ,,##''                                '''############,,,,        ,,,,,,###''
      ,#''                                            '''#######################'''  
     '                                                          ''''####''''         
             ,#######,   #######,   ,#######,      ##                                
            ,#'     '#,  ##    ##  ,#'     '#,    #''#        ,####,    ,#,          
            ##       ##  ##   ,#'  ##            #'  '#       #'       ,# #          
            ##       ##  #######   ##           ,######,      #####,      #          
            '#,     ,#'  ##    ##  '#,     ,#' ,#      #,     #,   #      #          
             '#######'   ##     ##  '#######'  #'      '#     '####' #    #          



                #########################################################
                #                        -***-                          #
                #          Department of theory and spectroscopy        #
                #                                                       #
                #                      Frank Neese                      #
                #                                                       #
                #     Directorship, Architecture, Infrastructure        #
                #                    SHARK, DRIVERS                     #
                #        Core code/Algorithms in most modules           #
                #                                                       #
                #        Max Planck Institute fuer Kohlenforschung      #
                #                Kaiser Wilhelm Platz 1                 #
                #                 D-45470 Muelheim/Ruhr                 #
                #                      Germany                          #
                #                                                       #
                #                  All rights reserved                  #
                #                        -***-                          #
                #########################################################


                         Program Version 6.1.1  -  RELEASE   -
                                (GIT: $487d211c$)
                          ($2025-11-21 10:33:24 +0100$)


 With contributions from (in alphabetic order):
[Max-Planck-Institut fuer Kohlenforschung]                               
  Daniel Aravena         : Magnetic Suceptibility                        
  Michael Atanasov       : Ab Initio Ligand Field Theory (pilot matlab implementation)
  Alexander A. Auer      : GIAO ZORA, VPT2 properties, NMR spectrum      
  Ute Becker             : All parallelization in ORCA, NUMFREQ, NUMCALC 
  Giovanni Bistoni       : ED, misc. LED, open-shell LED, HFLD           
  Dmytro Bykov           : pre 5.0 version of the SCF Hessian            
  Marcos Casanova-Páez   : Triplet and SCS-CIS(D). UHF-(DLPNO)-IP/EA/STEOM-CCSD. UHF-CVS-IP/STEOM-CCSD   
  Vijay G. Chilkuri      : MRCI spin determinant printing, contributions to CSF-ICE 
  Pauline Colinet        : FMM embedding                                 
  Dipayan Datta          : RHF DLPNO-CCSD density                        
  Achintya Kumar Dutta   : EOM-CC, STEOM-CC                              
  Nicolas Foglia         : Exact transition moments, OPA infrastructure, MCD improvements    
  Dmitry Ganyushin       : Spin-Orbit,Spin-Spin,Magnetic field MRCI      
  Miquel Garcia-Rates    : C-PCM and meta-GGA Hessian, CCSD/C-PCM, Gaussian charge scheme 
  Tiago L. C. Gouveia    : GS-ROHF, GS-ROCIS                             
  Yang Guo               : DLPNO-NEVPT2, F12-NEVPT2, CIM, IAO-localization        
  Andreas Hansen         : Spin unrestricted coupled pair/coupled cluster methods 
  Ingolf Harden          : AUTO-CI MPn and infrastructure                
  Benjamin Helmich-Paris : MC-RPA, TRAH-(SCF,CASSCF), AVAS, COSX integrals, SCF dyn. polar., MC-PDFT, srDFT 
  Lee Huntington         : MR-EOM, pCC                                   
  Robert Izsak           : Overlap fitted RIJCOSX, COSX-SCS-MP3, EOM     
  Riya Kayal             : Wick's Theorem for AUTO-CI, AUTO-CI UHF-CCSDT 
  Emily Kempfer          : AUTO-CI RHF CISDT and CCSDT, approximate NEVPT4
  Christian Kollmar      : KDIIS, OOCD, Brueckner-CCSD(T), CCSD density, CASPT2, CASPT2-K, improved NEVPT2 
  Axel Koslowski         : Symmetry handling                             
  Simone Kossmann        : meta-GGA functionals, TD-DFT gradient, OOMP2, (MP2 Hessian; deprecated post 5.0) 
  Lucas Lang             : DCDCAS, Hyperfine gauge corrections, ICE-SOC+SSC
  Marvin Lechner         : AUTO-CI (C++ implementation), FIC-MRCC        
  Spencer Leger          : CASSCF response                               
  Dagmar Lenk            : GEPOL surface, SMD, ORCA-2-JSON               
  Dimitrios Liakos       : Extrapolation schemes; Compound Job, Property file
  Dimitrios Manganas     : Further ROCIS development; embedding schemes. LFT, Crystal Embedding 
  Dimitrios Pantazis     : SARC Basis sets                               
  Anastasios Papadopoulos: AUTO-CI, single reference methods and gradients 
  Taras Petrenko         : pre 6.0 DFT Hessian and TD-DFT gradient,  ECA, NRVS 
  Petra Pikulova         : Analytic Raman intensities                    
  Peter Pinski           : DLPNO-MP2, DLPNO-MP2 Gradient                 
  Shashank Vittal Rao    : ES-AILFT, MagRelax                            
  Christoph Reimann      : Effective Core Potentials                     
  Marius Retegan         : Local ZFS, SOC                                
  Christoph Riplinger    : Optimizer, TS searches, QM/MM, DLPNO-CCSD(T), (RO)-DLPNO pert. Triples 
  Michael Roemelt        : Original ROCIS implementation, recursive CI coupling coefficients
  Masaaki Saitow         : Open-shell DLPNO-CCSD energy and density      
  Barbara Sandhoefer     : DKH picture change effects                    
  Yorick L. A. Schmerwitz: GMF and freeze-and-release deltaSCF, NEB S-IDPP initial path                    
  Kantharuban Sivalingam : CASSCF convergence/infrastructure, NEVPT2, NEVPT3, NEVPT4(SD), FIC-MRCI and CEPA variants
  Bernardo de Souza      : ESD, SOC TD-DFT                               
  Georgi L. Stoychev     : AutoAux, RI-MP2 NMR, DLPNO-MP2 response, X2C  
  Van Anh Tran           : RI-MP2 g-tensors                              
  Willem Van den Heuvel  : Paramagnetic NMR                              
  Zikuan Wang            : NOTCH, Electric field optimization            
  Frank Wennmohs         : Technical directorship and infrastructure     
  Hang Xu                : AUTO-CI-Response properties                   
                                                                         
[FACCTs GmbH]                                                            
  Markus Bursch, Nicolas Foglia, Miquel Garcia-Rates, Ingolf Harden, Hagen Neugebauer, Anastasios Papadopoulos, 
  Christoph Riplinger, Bernardo de Souza, Georgi L. Stoychev                                                    
                                                                 
  APM, various basis sets, CI-OPT, improved COSX, DLPNO-Multilevel,           
  DOCKER, DRACO, updates on ESD, Fragmentator, GOAT, IRC, LR-CPCM, L-BFGS, MBIS, meta-GGA TD-DFT gradient, ML-optimized integration grids, 
  MM, NACMEs, nearIR, NEB, NEB-TS, NL-DFT gradient (VV10), 2- and 3-layer-ONIOM, interface openCOSMO-RS, QMMM,   
  Crystal-QMMM, RESP, rigid body optimization, SF, symmetry and pop. for TD-DFT, various functionals, SOLVATOR                                   
                                                                         
[Other institutions]                                                     
  V. Asgeirsson          : NEB                                           
  Christoph Bannwarth    : sTDA-DFT, sTD-DFT, PBEh-3c, B97-3c, D3        
  Giovanni Bistoni       : ETS/NOCV, ADLD/ADEX, COVALED                  
  Martin Brehm           : Molecular dynamics                            
  Ronald Cardenas        : ETS/NOCV                                      
  Martina Colucci        : COVALED                                       
  Sebastian Ehlert       : rSCAN, r2SCAN, r2SCAN-3c, D4, dhf basis sets  
  Marvin Friede          : D4 for Fr, Ra, Ac-Lr                          
  Lars Goerigk           : TD-DFT with DH, B97 family of functionals     
  Stefan Grimme          : VdW corrections, initial TS optimization, DFT functionals, gCP, sTDA/sTD-DF 
  Waldemar Hujo          : DFT-NL                                        
  H. Jonsson             : NEB                                           
  Holger Kruse           : gCP                                           
  Marcel Mueller         : wB97X-3c, vDZP basis set                      
  Hagen Neugebauer       : wr2SCAN, Native XTB                           
  Gianluca Regni         : ADLD/ADEX                                     
  Tobias Risthaus        : pre 6.0 range-separated hybrid DFT and stability analysis
  Lukas Wittmann         : regularized MP2, r2SCAN double-hybrids, wr2SCAN        
                                                                         
We gratefully acknowledge several colleagues who have allowed us to      
interface, adapt or use parts of their codes:                            
  Ed Valeev, F. Pavosevic, A. Kumar             : LibInt (2-el integral package), F12 methods 
  Garnet Chan, S. Sharma, J. Yang, R. Olivares  : DMRG                   
  Ulf Ekstrom                                   : XCFun DFT Library      
  Mihaly Kallay                                 : mrcc  (arbitrary order and MRCC methods)
  Frank Weinhold                                : gennbo (NPA and NBO analysis)           
  Simon Mueller                                 : openCOSMO-RS                            
  Christopher J. Cramer and Donald G. Truhlar   : smd solvation model                     
  S Lehtola, MJT Oliveira, MAL Marques          : LibXC Library                           
  Liviu Ungur et al                             : ANISO software                          


 Your calculation uses the libint2 library for the computation of 2-el integrals
 For citations please refer to: http://libint.valeyev.net

 Your ORCA version has been built with support for libXC version: 7.0.0
 For citations please refer to: https://libxc.gitlab.io

 This ORCA versions uses:
   CBLAS   interface :  Fast vector & matrix operations
   LAPACKE interface :  Fast linear algebra routines
   SCALAPACK package :  Parallel linear algebra routines
   Shared memory     :  Shared parallel matrices
   BLAS/LAPACK       :  OpenBLAS 0.3.29  USE64BITINT DYNAMIC_ARCH NO_AFFINITY Cooperlake SINGLE_THREADED
        Core in use  :  Cooperlake
   Copyright (c) 2011-2014, The OpenBLAS Project


  ***********************************
  * Starting time: Wed May 20 11:54:07 2026
  * Host name:     c1-41
  * Process ID:    3440782
  * Working dir.:  /cluster/projects/nn14654k/ylvaos/basis_set_n_funcs/functionals/lda_x/C4H6/out
  ***********************************

Using LibXC functional ID   1 : Slater exchange
[ 1]  P. A. M. Dirac.,  Math. Proc. Cambridge Philos. Soc. 26, 376 (1930)
[ 2]  F. Bloch.,  Z. Phys. 57, 545 (1929)
Using LibXC functional ID   1 : Slater exchange
[ 1]  P. A. M. Dirac.,  Math. Proc. Cambridge Philos. Soc. 26, 376 (1930)
[ 2]  F. Bloch.,  Z. Phys. 57, 545 (1929)
Your calculation utilizes LibXC
by S. Lehtola, C. Steigemann, M. J. T. Oliveira & M. A. L. Marques
Please cite in your paper:
Lehtola, S.; Steigemann, C.; Oliveira, M.J.T.; Marques, M. A. L. Software X, 7, (2018), 1.
   

================================================================================

----- Orbital basis set information -----
Your calculation utilizes the basis: cc-pVTZ 
       H, B-Ne : Obtained from the ccRepo (grant-hill.group.shef.ac.uk/ccrepo) Feb. 2017
                 T. H. Dunning, Jr., J. Chem. Phys. 90, 1007 (1989)
            He : Obtained from the ccRepo (grant-hill.group.shef.ac.uk/ccrepo) Feb. 2017
                 D. E. Woon, T. H. Dunning, Jr., J. Chem. Phys. 100, 2975 (1994)
  Li-Be, Na-Mg : Obtained from the ccRepo (grant-hill.group.shef.ac.uk/ccrepo) Feb. 2017
                 B. P. Prascher, D. E. Woon, K. A. Peterson, T. H. Dunning, Jr., A. K. Wilson, Theor. Chem. Acc. 128, 69 (2011)
         Al-Ar : Obtained from the ccRepo (grant-hill.group.shef.ac.uk/ccrepo) Feb. 2017
                 D. E. Woon, T. H. Dunning, Jr., J. Chem. Phys. 98, 1358 (1993)
            Ca : Obtained from the Peterson Research Group Website (tyr0.chem.wsu.edu/~kipeters) Feb. 2017
                 J. Koput, K. A. Peterson, J. Phys. Chem. 106, 9595 (2002)
         Sc-Zn : Obtained from the ccRepo (grant-hill.group.shef.ac.uk/ccrepo) Feb. 2017
                 N. B. Balabanov, K. A. Peterson, J. Chem. Phys. 123, 064107 (2005)
                 N. B. Balabanov, K. A. Peterson, J. Chem. Phys. 125, 074110 (2006)
         Ga-Kr : Obtained from the ccRepo (grant-hill.group.shef.ac.uk/ccrepo) Feb. 2017
                 A. K. Wilson, D. E. Woon, K. A. Peterson, T. H. Dunning, Jr., J. Chem. Phys. 110, 7667 (1999)
             Y : Obtained from the ccRepo (grant-hill.group.shef.ac.uk/ccrepo) Feb. 2017
                 K. A. Peterson, D. Figgen, M. Dolg, H. Stoll, J. Chem. Phys. 126, 124101 (2007)
        Ag, Au : Obtained from the Peterson Research Group Website (tyr0.chem.wsu.edu/~kipeters) Feb. 2017
                 K. A. Peterson, C. Puzzarini, Theor. Chem. Acc. 114, 283 (2005)

================================================================================
                                        WARNINGS
                       Please study these warnings very carefully!
================================================================================


================================================================================
                                       INPUT FILE
================================================================================
NAME = /cluster/projects/nn14654k/ylvaos/basis_set_n_funcs/functionals/lda_x/C4H6/inp/C4H6_lda_x_ccpvtz.inp
|  1> ! dft cc-pVTZ TightSCF
|  2> %pal nprocs 8 end
|  3> 
|  4> %loc
|  5>   LocMet NewBoys
|  6>   Occ true
|  7> end
|  8> 
|  9> %method
| 10>   exchange lda_x
| 11>   correlation None
| 12> end
| 13> 
| 14> %elprop
| 15>   Dipole true
| 16>   Quadrupole true
| 17> end
| 18> 
| 19> * xyz 0 1
| 20> C    0.000000000000   0.000000000000   1.632000000000
| 21> C    0.000000000000   0.000000000000   0.300000000000
| 22> C    0.000000000000   0.771000000000  -0.936300000000
| 23> C    0.000000000000  -0.771000000000  -0.936300000000
| 24> H    0.000000000000   0.914000000000   2.222200000000
| 25> H    0.000000000000  -0.914000000000   2.222200000000
| 26> H    0.912300000000   1.305900000000  -1.200300000000
| 27> H   -0.912300000000   1.305900000000  -1.200300000000
| 28> H   -0.912300000000  -1.305900000000  -1.200300000000
| 29> H    0.912300000000  -1.305900000000  -1.200300000000
| 30> *
| 31> 
| 32> 
| 33>                          ****END OF INPUT****
================================================================================

                       ****************************
                       * Single Point Calculation *
                       ****************************

---------------------------------
CARTESIAN COORDINATES (ANGSTROEM)
---------------------------------
  C      0.000000    0.000000    1.632000
  C      0.000000    0.000000    0.300000
  C      0.000000    0.771000   -0.936300
  C      0.000000   -0.771000   -0.936300
  H      0.000000    0.914000    2.222200
  H      0.000000   -0.914000    2.222200
  H      0.912300    1.305900   -1.200300
  H     -0.912300    1.305900   -1.200300
  H     -0.912300   -1.305900   -1.200300
  H      0.912300   -1.305900   -1.200300

----------------------------
CARTESIAN COORDINATES (A.U.)
----------------------------
  NO LB      ZA    FRAG     MASS         X           Y           Z
   0 C     6.0000    0    12.011    0.000000    0.000000    3.084033
   1 C     6.0000    0    12.011    0.000000    0.000000    0.566918
   2 C     6.0000    0    12.011    0.000000    1.456979   -1.769351
   3 C     6.0000    0    12.011    0.000000   -1.456979   -1.769351
   4 H     1.0000    0     1.008    0.000000    1.727210    4.199349
   5 H     1.0000    0     1.008    0.000000   -1.727210    4.199349
   6 H     1.0000    0     1.008    1.723997    2.467793   -2.268238
   7 H     1.0000    0     1.008   -1.723997    2.467793   -2.268238
   8 H     1.0000    0     1.008   -1.723997   -2.467793   -2.268238
   9 H     1.0000    0     1.008    1.723997   -2.467793   -2.268238

--------------------------------
INTERNAL COORDINATES (ANGSTROEM)
--------------------------------
 C      0   0   0     0.000000000000     0.00000000     0.00000000
 C      1   0   0     1.332000000000     0.00000000     0.00000000
 C      2   1   0     1.457010188708   148.05088964     0.00000000
 C      2   1   3     1.457010188708   148.05088964   180.00000000
 H      1   2   3     1.087994503663   122.85166680     0.00000000
 H      1   2   3     1.087994503663   122.85166680   180.00000000
 H      3   2   1     1.090002431190   117.72260444    70.99760541
 H      3   2   1     1.090002431190   117.72260444   289.00239459
 H      4   2   1     1.090002431190   117.72260444    70.99760541
 H      4   2   1     1.090002431190   117.72260444   289.00239459

---------------------------
INTERNAL COORDINATES (A.U.)
---------------------------
 C      0   0   0     0.000000000000     0.00000000     0.00000000
 C      1   0   0     2.517115210383     0.00000000     0.00000000
 C      2   1   0     2.753350230992   148.05088964     0.00000000
 C      2   1   3     2.753350230992   148.05088964   180.00000000
 H      1   2   3     2.056011647134   122.85166680     0.00000000
 H      1   2   3     2.056011647134   122.85166680   180.00000000
 H      3   2   1     2.059806080257   117.72260444    70.99760541
 H      3   2   1     2.059806080257   117.72260444   289.00239459
 H      4   2   1     2.059806080257   117.72260444    70.99760541
 H      4   2   1     2.059806080257   117.72260444   289.00239459

---------------------
BASIS SET INFORMATION
---------------------
There are 2 groups of distinct atoms

 Group   1 Type C   : 18s5p2d1f contracted to 4s3p2d1f pattern {8811/311/11/1}
 Group   2 Type H   : 5s2p1d contracted to 3s2p1d pattern {311/11/1}

Atom   0C    basis set group =>   1
Atom   1C    basis set group =>   1
Atom   2C    basis set group =>   1
Atom   3C    basis set group =>   1
Atom   4H    basis set group =>   2
Atom   5H    basis set group =>   2
Atom   6H    basis set group =>   2
Atom   7H    basis set group =>   2
Atom   8H    basis set group =>   2
Atom   9H    basis set group =>   2


           ************************************************************
           *        Program running with 8 parallel MPI-processes     *
           *              working on a common directory               *
           ************************************************************
------------------------------------------------------------------------------
                             ORCA STARTUP CALCULATIONS
------------------------------------------------------------------------------
------------------------------------------------------------------------------
                   ___                                                        
                  /   \      - P O W E R E D   B Y -                         
                 /     \                                                     
                 |  |  |   _    _      __       _____    __    __             
                 |  |  |  | |  | |    /  \     |  _  \  |  |  /  |          
                  \  \/   | |  | |   /    \    | | | |  |  | /  /          
                 / \  \   | |__| |  /  /\  \   | |_| |  |  |/  /          
                |  |  |   |  __  | /  /__\  \  |    /   |      \           
                |  |  |   | |  | | |   __   |  |    \   |  |\   \          
                \     /   | |  | | |  |  |  |  | |\  \  |  | \   \       
                 \___/    |_|  |_| |__|  |__|  |_| \__\ |__|  \__/        
                                                                              
                      - O R C A' S   B I G   F R I E N D -                    
                                      &                                       
                       - I N T E G R A L  F E E D E R -                       
                                                                              
 v1 FN, 2020, v2 2021, v3 2022-2024                                           
------------------------------------------------------------------------------


----------------------
SHARK INTEGRAL PACKAGE
----------------------

Number of atoms                             ...     10
Number of basis functions                   ...    228
Number of shells                            ...    100
Maximum angular momentum                    ...      3
Integral batch strategy                     ... SHARK/LIBINT Hybrid
RI-J (if used) integral strategy            ... SPLIT-RIJ (Revised 2003 algorithm where possible)
Printlevel                                  ...      1
Contraction scheme used                     ... PARTIAL GENERAL contraction
Prescreening option                         ... SCHWARTZ
   Thresh                                   ... 2.500e-11
   Tcut                                     ... 2.500e-12
   Tpresel                                  ... 2.500e-12 
Coulomb Range Separation                    ... NOT USED
Exchange Range Separation                   ... NOT USED
Multipole approximations                    ... NOT USED
Finite Nucleus Model                        ... NOT USED
CABS basis                                  ... NOT available
Auxiliary Coulomb fitting basis             ... NOT available
Auxiliary J/K fitting basis                 ... NOT available
Auxiliary Correlation fitting basis         ... NOT available
Auxiliary 'external' fitting basis          ... NOT available

Checking pre-screening integrals            ... done (  0.0 sec) Dimension = 100
Save PGC pre-screening integrals            ... done (  0.0 sec) Dimension = 100
Calculate PGC overlap integrals             ... done (  0.0 sec) Dimension = 76
Calculating pre-screening integrals (ORCA)  ... done (  0.0 sec) Dimension = 76
Shell pair information
Shell pair cut-off parameter TPreSel        ...   2.5e-12
Total number of shell pairs                 ...      5050
Shell pairs after pre-screening             ...      4554
Total number of primitive shell pairs       ...      7290
Primitive shell pairs kept                  ...      6022
          la=0 lb=0:   1389 shell pairs
          la=1 lb=0:   1296 shell pairs
          la=1 lb=1:    292 shell pairs
          la=2 lb=0:    750 shell pairs
          la=2 lb=1:    328 shell pairs
          la=2 lb=2:    105 shell pairs
          la=3 lb=0:    232 shell pairs
          la=3 lb=1:     96 shell pairs
          la=3 lb=2:     56 shell pairs
          la=3 lb=3:     10 shell pairs

Checking whether 4 symmetric matrices of dimension 228 fit in memory
:Max Core in MB      =   4096.00
 MB in use           =      7.05
 MB left             =   4088.95
 MB needed           =      0.80
 Data fit in memory  = YES
Calculating Nuclear repulsion               ... done (  0.0 sec) ENN=    109.249345578353 Eh

Diagonalization of the overlap matrix:
Smallest eigenvalue                        ... 2.923e-04
Time for diagonalization                   ...    0.003 sec
Threshold for overlap eigenvalues          ... 1.000e-07
Number of eigenvalues below threshold      ... 0
Time for construction of square roots      ...    0.002 sec
Total time needed                          ...    0.007 sec

-------------------
DFT GRID GENERATION
-------------------

General Integration Accuracy     IntAcc      ... 4.388
Radial Grid Type                 RadialGrid  ... OptM3 with GC (2021)
Angular Grid (max. ang.)         AngularGrid ... 4 (Lebedev-302)
Angular grid pruning method      GridPruning ... 4 (adaptive)
Weight generation scheme         WeightScheme... mBecke (2022)
Basis function cutoff            BFCut       ... 1.0000e-11
Integration weight cutoff        WCut        ... 1.0000e-14
Partially contracted basis set               ... off
Rotationally invariant grid construction     ... off
Angular grids for H and He will be reduced by one unit

Total number of grid points                  ...    43682
Total number of batches                      ...      687
Average number of points per batch           ...       63
Average number of grid points per atom       ...     4368

---------------------
SHARK GRID GENERATION
---------------------

General Integration Accuracy     IntAcc      ... 4.388
Radial Grid Type                 RadialGrid  ... OptM3 with GC (2021)
Angular Grid (max. ang.)         AngularGrid ... 4 (Lebedev-302)
Angular grid pruning method      GridPruning ... 4 (adaptive)
Weight generation scheme         WeightScheme... mBecke (2022)
Basis function cutoff            BFCut       ... 1.0000e-11
Integration weight cutoff        WCut        ... 1.0000e-14
Partially contracted basis set               ... off
Rotationally invariant grid construction     ... off
Angular grids for H and He will be reduced by one unit
Steep s-basis detected: some atoms will have their radial
                        grid points doubled.

Total number of grid points                  ...    68153
Total number of batches                      ...     1069
Average number of points per batch           ...       63
Average number of grid points per atom       ...     6815
Grids setup in   0.4 sec
Initializing property integral containers    ... done (  0.0 sec)

SHARK setup successfully completed in   0.5 seconds

Maximum memory used throughout the entire STARTUP-calculation: 21.9 MB


           ************************************************************
           *        Program running with 8 parallel MPI-processes     *
           *              working on a common directory               *
           ************************************************************
-------------------------------------------------------------------------------
                                 ORCA GUESS
                   Start orbitals & Density for SCF / CASSCF
-------------------------------------------------------------------------------

------------
SCF SETTINGS
------------
Hamiltonian:
 Density Functional     Method          .... DFT(GTOs)
  Functional kind                       .... Exchange
  Functional name                       .... Slater exchange
  Functional family                     .... LDA
  Functional refs                              
    [ 0] P. A. M. Dirac.,  Math. Proc. Cambridge Philos. Soc. 26, 376 (1930), doi: 10.1017/S0305004100016108
    [ 1] F. Bloch.,  Z. Phys. 57, 545 (1929), doi: 10.1007/BF01340281
  Functional external parameters        .... 0
 Correlation Functional Correlation     .... No Correlation
 Gradients option       PostSCFGGA      .... off


General Settings:
 Integral files         IntName         .... /cluster/projects/nn14654k/ylvaos/basis_set_n_funcs/functionals/lda_x/C4H6/inp/C4H6_lda_x_ccpvtz
 Hartree-Fock type      HFTyp           .... RHF
 Total Charge           Charge          ....    0
 Multiplicity           Mult            ....    1
 Number of Electrons    NEL             ....   30
 Basis Dimension        Dim             ....  204
 Nuclear Repulsion      ENuc            ....    109.2493455784 Eh

Convergence Acceleration:
 AO-DIIS                CNVDIIS         .... on
   Start iteration      DIISMaxIt       ....    12
   Startup error        DIISStart       ....  0.200000
   # of expansion vecs  DIISMaxEq       ....     5
   Bias factor          DIISBfac        ....   1.050
   Max. coefficient     DIISMaxC        ....  10.000
 MO-DIIS                CNVKDIIS        .... off
 Trust-Rad. Augm. Hess. CNVTRAH         .... auto
   Auto Start mean grad. ratio tolernc. ....  1.125000
   Auto Start start iteration           ....    50
   Auto Start num. interpolation iter.  ....    10
   Max. Number of Micro iterations      ....    24
   Max. Number of Macro iterations      .... Maxiter - #DIIS iter
   Number of Davidson start vectors     ....     2
   Converg. threshold    (grad. norm)   ....   1.000e-05
   Grad. Scal. Fac. for Micro threshold ....   0.100
   Minimum threshold for Micro iter.    ....   1.000e-02
   NR start threshold (gradient norm)   ....   1.000e-04
   Initial trust radius                 ....   0.400
   Minimum AH scaling param. (alpha)    ....   1.000
   Maximum AH scaling param. (alpha)    .... 1000.000
   Quad. conv. algorithm                .... NR
   White noise on init. David. guess    .... on
   Maximum white noise                  ....   0.010
   Pseudo random numbers                .... off
   Inactive MOs                         .... canonical
   Orbital update algorithm             .... Taylor
   Preconditioner                       .... Diag
   Full preconditioner red. dimension   ....   250
 SOSCF                 CNVSOSCF           .... on
   Start iteration     SOSCFMaxIt         ....   150
   Startup grad/error  SOSCFStart         ....  0.003300
   Hessian update      SOSCFHessUp        .... L-BFGS
   Autom. constraints  SOSCFAutoConstrain .... off
 Level Shifting         CNVShift        .... on
   Level shift para.    LevelShift      ....    0.2500
   Turn off err/grad.   ShiftErr        ....    0.0010
 Zerner damping         CNVZerner       .... off
 Static damping         CNVDamp         .... on
   Fraction old density DampFac         ....    0.7000
   Max. Damping (<1)    DampMax         ....    0.9800
   Min. Damping (>=0)   DampMin         ....    0.0000
   Turn off err/grad.   DampErr         ....    0.1000

SCF Procedure:
 Maximum # iterations   MaxIter         ....   125
 SCF integral mode      SCFMode         .... Direct
   Integral package                     .... SHARK and LIBINT hybrid scheme
 Reset frequency        DirectResetFreq ....    20
 Integral Threshold     Thresh          ....  2.500e-11 Eh
 Primitive CutOff       TCut            ....  2.500e-12 Eh

Convergence Tolerance:
 Convergence Check Mode ConvCheckMode   .... Total+1el-Energy
 Convergence forced     ConvForced      .... 0
 Energy Change          TolE            ....  1.000e-08 Eh
 1-El. energy change                    ....  1.000e-05 Eh
 Orbital Gradient       TolG            ....  1.000e-05
 Orbital Rotation angle TolX            ....  1.000e-05
 DIIS Error             TolErr          ....  5.000e-07

------------------------------
INITIAL GUESS: MODEL POTENTIAL
------------------------------
Loading Hartree-Fock densities                     ... done
Calculating cut-offs                               ... done
Initializing the effective Hamiltonian             ... done
Setting up the integral package (SHARK)            ... done
Starting the Coulomb interaction                   ... done (   0.0 sec)
Making the grid                                    ... done (   0.0 sec)
Mapping shells                                     ... done
Starting the XC term evaluation                    ... done (   0.0 sec)
  promolecular density results
     # of electrons  =     29.996209296
     EX              =    -20.075319558
     EC              =      0.000000000
     EX+EC           =    -20.075319558
Transforming the Hamiltonian                       ... done (   0.0 sec)
Diagonalizing the Hamiltonian                      ... done (   0.0 sec)
Back transforming the eigenvectors                 ... done (   0.0 sec)
Now organizing SCF variables                       ... done
                      ------------------
                      INITIAL GUESS DONE (   0.1 sec)
                      ------------------
             **** ENERGY FILE WAS UPDATED (/cluster/projects/nn14654k/ylvaos/basis_set_n_funcs/functionals/lda_x/C4H6/inp/C4H6_lda_x_ccpvtz.en.tmp) ****
Finished Guess after   0.1 sec
Maximum memory used throughout the entire GUESS-calculation: 11.6 MB


           ************************************************************
           *        Program running with 8 parallel MPI-processes     *
           *              working on a common directory               *
           ************************************************************

-------------------------------------------------------------------------------------------
                                      ORCA LEAN-SCF
                              memory conserving SCF solver
-------------------------------------------------------------------------------------------

----------------------------------------D-I-I-S--------------------------------------------
Iteration    Energy (Eh)           Delta-E    RMSDP     MaxDP     DIISErr   Damp  Time(sec)
-------------------------------------------------------------------------------------------
               ***  Starting incremental Fock matrix formation  ***
    1    -152.5544024501973013     0.00e+00  3.62e-03  3.03e-02  1.79e-01  0.700   0.5
    2    -152.6123836975324366    -5.80e-02  2.86e-03  1.83e-02  8.48e-02  0.700   0.5
                               ***Turning on AO-DIIS***
    3    -152.6325926386635956    -2.02e-02  1.24e-03  7.78e-03  2.23e-02  0.700   0.5
    4    -152.6442298245617053    -1.16e-02  1.76e-03  1.23e-02  9.55e-03  0.000   0.4
    5    -152.6708191418081810    -2.66e-02  6.03e-04  4.62e-03  7.43e-03  0.000   0.5
                              *** Initializing SOSCF ***
---------------------------------------S-O-S-C-F--------------------------------------
Iteration    Energy (Eh)           Delta-E    RMSDP     MaxDP     MaxGrad    Time(sec)
--------------------------------------------------------------------------------------
    6    -152.6711309665741965    -3.12e-04  2.60e-04  1.97e-03  1.80e-03     0.4
               *** Restarting incremental Fock matrix formation ***
    7    -152.6711500998393944    -1.91e-05  1.76e-04  1.16e-03  2.88e-04     0.5
    8    -152.6711498931780966     2.07e-07  3.26e-05  2.85e-04  3.33e-04     0.4
    9    -152.6711521549361237    -2.26e-06  3.58e-05  2.52e-04  5.78e-05     0.4
   10    -152.6711521892239034    -3.43e-08  7.40e-06  6.48e-05  5.32e-05     0.4
   11    -152.6711522247854305    -3.56e-08  9.02e-06  5.29e-05  2.37e-05     0.4
   12    -152.6711522250944881    -3.09e-10  2.93e-06  3.12e-05  2.82e-05     0.4
                 **** Energy Check signals convergence ****

               *****************************************************
               *                     SUCCESS                       *
               *           SCF CONVERGED AFTER  12 CYCLES          *
               *****************************************************

             **** ENERGY FILE WAS UPDATED (/cluster/projects/nn14654k/ylvaos/basis_set_n_funcs/functionals/lda_x/C4H6/inp/C4H6_lda_x_ccpvtz.en.tmp) ****

----------------
TOTAL SCF ENERGY
----------------

Total Energy       :       -152.67115223154326 Eh           -4154.39326 eV

Components:
Nuclear Repulsion  :        109.24934557835338 Eh            2972.82583 eV
Electronic Energy  :       -261.92049780989663 Eh           -7127.21909 eV
One Electron Energy:       -423.89140089676630 Eh          -11534.67143 eV
Two Electron Energy:        161.97090308686967 Eh            4407.45234 eV

Virial components:
Potential Energy   :       -305.39344723531542 Eh           -8310.17818 eV
Kinetic Energy     :        152.72229500377216 Eh            4155.78492 eV
Virial Ratio       :          1.99966512569610

DFT components:
N(Alpha)           :       14.999998321810 electrons
N(Beta)            :       14.999998321810 electrons
N(Total)           :       29.999996643621 electrons
E(X)               :      -20.397475468506 Eh       
E(C)               :        0.000000000000 Eh       
E(XC)              :      -20.397475468506 Eh       

---------------
SCF CONVERGENCE
---------------

  Last Energy change         ...    3.0906e-10  Tolerance :   1.0000e-08
  Last MAX-Density change    ...    3.1242e-05  Tolerance :   1.0000e-07
  Last RMS-Density change    ...    2.9250e-06  Tolerance :   5.0000e-09
  Last DIIS Error            ...    1.7956e-03  Tolerance :   5.0000e-07
  Last Orbital Gradient      ...    2.8151e-05  Tolerance :   1.0000e-05
  Last Orbital Rotation      ...    4.9555e-05  Tolerance :   1.0000e-05


----------------
ORBITAL ENERGIES
----------------

  NO   OCC          E(Eh)            E(eV) 
   0   2.0000      -9.731310      -264.8024 
   1   2.0000      -9.725244      -264.6373 
   2   2.0000      -9.725137      -264.6344 
   3   2.0000      -9.707358      -264.1506 
   4   2.0000      -0.744840       -20.2681 
   5   2.0000      -0.594128       -16.1671 
   6   2.0000      -0.502474       -13.6730 
   7   2.0000      -0.431763       -11.7489 
   8   2.0000      -0.388054       -10.5595 
   9   2.0000      -0.375096       -10.2069 
  10   2.0000      -0.333457        -9.0738 
  11   2.0000      -0.281545        -7.6612 
  12   2.0000      -0.236493        -6.4353 
  13   2.0000      -0.211939        -5.7672 
  14   2.0000      -0.186800        -5.0831 
  15   0.0000       0.003833         0.1043 
  16   0.0000       0.057241         1.5576 
  17   0.0000       0.080824         2.1993 
  18   0.0000       0.089034         2.4228 
  19   0.0000       0.108969         2.9652 
  20   0.0000       0.110373         3.0034 
  21   0.0000       0.152281         4.1438 
  22   0.0000       0.159037         4.3276 
  23   0.0000       0.162563         4.4236 
  24   0.0000       0.210042         5.7155 
  25   0.0000       0.221966         6.0400 
*Only the first 10 virtual orbitals were printed.

                    ********************************
                    * MULLIKEN POPULATION ANALYSIS *
                    ********************************

-----------------------
MULLIKEN ATOMIC CHARGES
-----------------------
   0 C :   -0.255577
   1 C :    0.083064
   2 C :   -0.264610
   3 C :   -0.264609
   4 H :    0.110133
   5 H :    0.110133
   6 H :    0.120367
   7 H :    0.120367
   8 H :    0.120367
   9 H :    0.120367
Sum of atomic charges:    0.0000000

--------------------------------
MULLIKEN REDUCED ORBITAL CHARGES
--------------------------------
  0 C s       :     3.284748  s :     3.284748
      pz      :     0.911956  p :     2.918203
      px      :     1.028657
      py      :     0.977590
      dz2     :     0.004620  d :     0.048579
      dxz     :     0.009432
      dyz     :     0.030348
      dx2y2   :     0.004169
      dxy     :     0.000010
      f0      :     0.000976  f :     0.004047
      f+1     :     0.001396
      f-1     :     0.001110
      f+2     :     0.000336
      f-2     :     0.000011
      f+3     :     0.000033
      f-3     :     0.000185

  1 C s       :     3.113683  s :     3.113683
      pz      :     0.747928  p :     2.696748
      px      :     0.947366
      py      :     1.001454
      dz2     :     0.029042  d :     0.094339
      dxz     :     0.018895
      dyz     :     0.032749
      dx2y2   :     0.004109
      dxy     :     0.009543
      f0      :     0.003531  f :     0.012165
      f+1     :     0.003367
      f-1     :     0.003437
      f+2     :     0.000693
      f-2     :     0.000974
      f+3     :     0.000092
      f-3     :     0.000071

  2 C s       :     3.282829  s :     3.282829
      pz      :     1.020771  p :     2.903658
      px      :     1.017588
      py      :     0.865300
      dz2     :     0.013954  d :     0.071234
      dxz     :     0.009776
      dyz     :     0.020500
      dx2y2   :     0.009573
      dxy     :     0.017432
      f0      :     0.001089  f :     0.006889
      f+1     :     0.000413
      f-1     :     0.001403
      f+2     :     0.001210
      f-2     :     0.000678
      f+3     :     0.000850
      f-3     :     0.001246

  3 C s       :     3.282828  s :     3.282828
      pz      :     1.020771  p :     2.903658
      px      :     1.017588
      py      :     0.865300
      dz2     :     0.013954  d :     0.071234
      dxz     :     0.009776
      dyz     :     0.020500
      dx2y2   :     0.009573
      dxy     :     0.017432
      f0      :     0.001089  f :     0.006889
      f+1     :     0.000413
      f-1     :     0.001403
      f+2     :     0.001210
      f-2     :     0.000678
      f+3     :     0.000850
      f-3     :     0.001246

  4 H s       :     0.856860  s :     0.856860
      pz      :     0.007785  p :     0.030606
      px      :     0.012265
      py      :     0.010555
      dz2     :     0.000630  d :     0.002401
      dxz     :     0.000312
      dyz     :     0.000511
      dx2y2   :     0.000439
      dxy     :     0.000510

  5 H s       :     0.856860  s :     0.856860
      pz      :     0.007785  p :     0.030606
      px      :     0.012265
      py      :     0.010555
      dz2     :     0.000630  d :     0.002401
      dxz     :     0.000312
      dyz     :     0.000511
      dx2y2   :     0.000439
      dxy     :     0.000510

  6 H s       :     0.842674  s :     0.842674
      pz      :     0.012728  p :     0.034245
      px      :     0.010154
      py      :     0.011363
      dz2     :     0.000395  d :     0.002715
      dxz     :     0.000616
      dyz     :     0.000342
      dx2y2   :     0.000812
      dxy     :     0.000549

  7 H s       :     0.842674  s :     0.842674
      pz      :     0.012728  p :     0.034245
      px      :     0.010154
      py      :     0.011363
      dz2     :     0.000395  d :     0.002715
      dxz     :     0.000616
      dyz     :     0.000342
      dx2y2   :     0.000812
      dxy     :     0.000549

  8 H s       :     0.842674  s :     0.842674
      pz      :     0.012728  p :     0.034245
      px      :     0.010154
      py      :     0.011363
      dz2     :     0.000395  d :     0.002715
      dxz     :     0.000616
      dyz     :     0.000342
      dx2y2   :     0.000812
      dxy     :     0.000549

  9 H s       :     0.842674  s :     0.842674
      pz      :     0.012728  p :     0.034245
      px      :     0.010154
      py      :     0.011363
      dz2     :     0.000395  d :     0.002715
      dxz     :     0.000616
      dyz     :     0.000342
      dx2y2   :     0.000812
      dxy     :     0.000549



                     *******************************
                     * LOEWDIN POPULATION ANALYSIS *
                     *******************************

----------------------
LOEWDIN ATOMIC CHARGES
----------------------
   0 C :    0.060965
   1 C :   -0.067327
   2 C :    0.078815
   3 C :    0.078815
   4 H :   -0.036409
   5 H :   -0.036409
   6 H :   -0.019613
   7 H :   -0.019613
   8 H :   -0.019613
   9 H :   -0.019613

-------------------------------
LOEWDIN REDUCED ORBITAL CHARGES
-------------------------------
  0 C s       :     2.729093  s :     2.729093
      pz      :     1.028328  p :     2.929851
      px      :     0.903000
      py      :     0.998523
      dz2     :     0.059760  d :     0.253436
      dxz     :     0.033637
      dyz     :     0.145480
      dx2y2   :     0.014506
      dxy     :     0.000052
      f0      :     0.007951  f :     0.026655
      f+1     :     0.005036
      f-1     :     0.009490
      f+2     :     0.002441
      f-2     :     0.000025
      f+3     :     0.000430
      f-3     :     0.001282

  1 C s       :     2.692158  s :     2.692158
      pz      :     1.021835  p :     2.790589
      px      :     0.823136
      py      :     0.945617
      dz2     :     0.164216  d :     0.530942
      dxz     :     0.130548
      dyz     :     0.173166
      dx2y2   :     0.027680
      dxy     :     0.035332
      f0      :     0.019664  f :     0.053638
      f+1     :     0.006224
      f-1     :     0.013192
      f+2     :     0.005859
      f-2     :     0.007403
      f+3     :     0.001015
      f-3     :     0.000281

  2 C s       :     2.659058  s :     2.659058
      pz      :     0.972246  p :     2.865482
      px      :     0.995495
      py      :     0.897741
      dz2     :     0.063069  d :     0.356222
      dxz     :     0.047195
      dyz     :     0.087777
      dx2y2   :     0.054888
      dxy     :     0.103293
      f0      :     0.009007  f :     0.040423
      f+1     :     0.003870
      f-1     :     0.004964
      f+2     :     0.008718
      f-2     :     0.003582
      f+3     :     0.004390
      f-3     :     0.005893

  3 C s       :     2.659058  s :     2.659058
      pz      :     0.972246  p :     2.865482
      px      :     0.995495
      py      :     0.897741
      dz2     :     0.063069  d :     0.356222
      dxz     :     0.047195
      dyz     :     0.087777
      dx2y2   :     0.054888
      dxy     :     0.103293
      f0      :     0.009007  f :     0.040423
      f+1     :     0.003870
      f-1     :     0.004964
      f+2     :     0.008718
      f-2     :     0.003582
      f+3     :     0.004390
      f-3     :     0.005893

  4 H s       :     0.845543  s :     0.845543
      pz      :     0.047074  p :     0.162717
      px      :     0.047275
      py      :     0.068368
      dz2     :     0.005740  d :     0.028149
      dxz     :     0.002837
      dyz     :     0.008179
      dx2y2   :     0.005645
      dxy     :     0.005749

  5 H s       :     0.845543  s :     0.845543
      pz      :     0.047074  p :     0.162717
      px      :     0.047275
      py      :     0.068368
      dz2     :     0.005740  d :     0.028149
      dxz     :     0.002837
      dyz     :     0.008179
      dx2y2   :     0.005645
      dxy     :     0.005749

  6 H s       :     0.829492  s :     0.829492
      pz      :     0.050891  p :     0.161277
      px      :     0.065587
      py      :     0.044799
      dz2     :     0.003867  d :     0.028845
      dxz     :     0.006670
      dyz     :     0.002864
      dx2y2   :     0.007791
      dxy     :     0.007654

  7 H s       :     0.829492  s :     0.829492
      pz      :     0.050891  p :     0.161277
      px      :     0.065587
      py      :     0.044799
      dz2     :     0.003867  d :     0.028845
      dxz     :     0.006670
      dyz     :     0.002864
      dx2y2   :     0.007791
      dxy     :     0.007654

  8 H s       :     0.829492  s :     0.829492
      pz      :     0.050891  p :     0.161277
      px      :     0.065587
      py      :     0.044799
      dz2     :     0.003867  d :     0.028845
      dxz     :     0.006670
      dyz     :     0.002864
      dx2y2   :     0.007791
      dxy     :     0.007654

  9 H s       :     0.829492  s :     0.829492
      pz      :     0.050891  p :     0.161277
      px      :     0.065587
      py      :     0.044799
      dz2     :     0.003867  d :     0.028845
      dxz     :     0.006670
      dyz     :     0.002864
      dx2y2   :     0.007791
      dxy     :     0.007654



                      *****************************
                      * MAYER POPULATION ANALYSIS *
                      *****************************

  NA   - Mulliken gross atomic population
  ZA   - Total nuclear charge
  QA   - Mulliken gross atomic charge
  VA   - Mayer's total valence
  BVA  - Mayer's bonded valence
  FA   - Mayer's free valence

  ATOM       NA         ZA         QA         VA         BVA        FA
  0 C      6.2556     6.0000    -0.2556     3.8843     3.8843     0.0000
  1 C      5.9169     6.0000     0.0831     3.8134     3.8134    -0.0000
  2 C      6.2646     6.0000    -0.2646     3.8754     3.8754    -0.0000
  3 C      6.2646     6.0000    -0.2646     3.8754     3.8754    -0.0000
  4 H      0.8899     1.0000     0.1101     0.9866     0.9866     0.0000
  5 H      0.8899     1.0000     0.1101     0.9866     0.9866     0.0000
  6 H      0.8796     1.0000     0.1204     0.9924     0.9924    -0.0000
  7 H      0.8796     1.0000     0.1204     0.9924     0.9924    -0.0000
  8 H      0.8796     1.0000     0.1204     0.9924     0.9924    -0.0000
  9 H      0.8796     1.0000     0.1204     0.9924     0.9924     0.0000

  Mayer bond orders larger than 0.100000
B(  0-C ,  1-C ) :   1.8856 B(  0-C ,  4-H ) :   0.9481 B(  0-C ,  5-H ) :   0.9481 
B(  1-C ,  2-C ) :   0.9454 B(  1-C ,  3-C ) :   0.9454 B(  2-C ,  3-C ) :   0.9550 
B(  2-C ,  6-H ) :   0.9548 B(  2-C ,  7-H ) :   0.9548 B(  3-C ,  8-H ) :   0.9548 
B(  3-C ,  9-H ) :   0.9548 

-------
TIMINGS
-------

Total SCF time: 0 days 0 hours 0 min 5 sec 

Total time                  ....       5.541 sec
Sum of individual times     ....       5.176 sec  ( 93.4%)

SCF preparation             ....       0.066 sec  (  1.2%)
Fock matrix formation       ....       4.868 sec  ( 87.8%)
  Startup                   ....       0.011 sec  (  0.2% of F)
  Coulomb formation         ....       4.605 sec  ( 94.6% of F)
  XC integration            ....       0.430 sec  (  8.8% of F)
    XC Preparation          ....       0.000 sec  (  0.0% of XC)
    Basis function eval.    ....       0.068 sec  ( 15.9% of XC)
    Density eval.           ....       0.073 sec  ( 17.0% of XC)
    XC-Functional eval.     ....       0.011 sec  (  2.6% of XC)
    XC-Potential eval.      ....       0.088 sec  ( 20.4% of XC)
Diagonalization             ....       0.000 sec  (  0.0%)
Density matrix formation    ....       0.049 sec  (  0.9%)
Total Energy calculation    ....       0.015 sec  (  0.3%)
Population analysis         ....       0.014 sec  (  0.3%)
Orbital Transformation      ....       0.019 sec  (  0.3%)
Orbital Orthonormalization  ....       0.000 sec  (  0.0%)
DIIS solution               ....       0.081 sec  (  1.5%)
SOSCF solution              ....       0.064 sec  (  1.2%)
Finished LeanSCF after   5.6 sec

Maximum memory used throughout the entire LEANSCF-calculation: 15.8 MB


           ************************************************************
           *        Program running with 8 parallel MPI-processes     *
           *              working on a common directory               *
           ************************************************************

------------------------------------------------------------------------------
                         ORCA PROPERTY INTEGRAL CALCULATIONS
------------------------------------------------------------------------------

GBWName                                   ... /cluster/projects/nn14654k/ylvaos/basis_set_n_funcs/functionals/lda_x/C4H6/inp/C4H6_lda_x_ccpvtz.gbw
Number of atoms                           ...     10
Number of basis functions                 ...    228
Max core memory                           ...   4096 MB

Dipole integrals                          ... YES
Quadrupole integrals                      ... YES
Linear momentum integrals                 ...  NO
Angular momentum integrals                ...  NO
Higher moments length integrals           ...  NO
Higher moments velocity integrals         ...  NO
Kinetic energy integrals                  ...  NO
GIAO right hand sides                     ...  NO
GIAO dipole derivative integrals          ...  NO
SOC integrals                             ...  NO
EPR diamagnetic integrals (GIAO)          ...  NO
EPR gauge integrals                       ...  NO
Field gradient integrals                  ...  NO (   0 nuclei)
Spin-dipole/Fermi contact integrals       ...  NO (   0 nuclei)
Contact density integrals                 ...  NO (   0 nuclei)
Nucleus-orbit integrals                   ...  NO (   0 nuclei)
Geometric perturbations                   ...  NO (  10 nuclei)

Choice of electric origin   ... Center of mass
Position of electric origin ... (  0.0000,  0.0000,  0.0124) 
Choice of magnetic origin   ... GIAO
Position of magnetic origin ... (  0.0000,  0.0000,  0.0000) 

Calculating integrals                     ... Electric Dipole (Length)     done (  0.0 sec)
Calculating integrals                     ... Electric Quadrupole (Length) done (  0.0 sec)

Property integrals calculated in   0.0 sec

Maximum memory used throughout the entire PROPINT-calculation: 12.5 MB
------------------------------------------------------------------------------
                           ORCA ORBITAL LOCALIZATION
------------------------------------------------------------------------------

Input orbitals are from                  ... /cluster/projects/nn14654k/ylvaos/basis_set_n_funcs/functionals/lda_x/C4H6/inp/C4H6_lda_x_ccpvtz.gbw
Output orbitals are to                   ... /cluster/projects/nn14654k/ylvaos/basis_set_n_funcs/functionals/lda_x/C4H6/inp/C4H6_lda_x_ccpvtz.loc
Max. number of iterations                ... 128
Localizations seeded randomly            ... on
Convergence tolerance                    ... 1.000e-06
Threshold for strong local MOs           ... 9.500e-01
Threshold for bond MOs                   ... 8.500e-01
Operator                                 ... 0
Orbital range for localization           ... 4 to 14
Localization criterion                   ... NEW-BOYS
Doing the dipole integrals               ... o.k.
Initial value of the localization sum :    53.854745
ITERATION   0 : L=   80.3599281811 DL=  2.65e+01 (AVERGE_DL)=    0.6941991256 
ITERATION   1 : L=   86.0841610636 DL=  5.72e+00 (AVERGE_DL)=    0.3226096116 
ITERATION   2 : L=   86.1558993953 DL=  7.17e-02 (AVERGE_DL)=    0.0361155549 
ITERATION   3 : L=   86.1565711219 DL=  6.72e-04 (AVERGE_DL)=    0.0034947405 
ITERATION   4 : L=   86.1565774877 DL=  6.37e-06 (AVERGE_DL)=    0.0003402096 
ITERATION   5 : L=   86.1565775501 DL=  6.24e-08 (AVERGE_DL)=    0.0000336905 
LOCALIZATION SUM CONVERGED


--------------------------------------------------------------------------------
                    LOCALIZED MOLECULAR ORBITAL COMPOSITIONS
--------------------------------------------------------------------------------

The Mulliken populations for each LMO on each atom are computed
The LMO`s will be ordered according to atom index and type
  (A) Strongly localized MO`s have populations of >=0.950 on one atom
  (B) Two center bond orbitals have populations of >=0.850 on two atoms
  (C) Other MO`s are considered to be `delocalized`

FOUND  -   0 strongly local MO`s
       -  11 two center bond MO`s
       -   0 significantly delocalized MO`s

Bond-like localized orbitals:
MO  14:   9H  -   0.452232  and   3C  -   0.563321
MO  13:   8H  -   0.452232  and   3C  -   0.563321
MO  12:   7H  -   0.452232  and   2C  -   0.563321
MO  11:   6H  -   0.452232  and   2C  -   0.563321
MO  10:   5H  -   0.460803  and   0C  -   0.553642
MO   9:   4H  -   0.460803  and   0C  -   0.553641
MO   8:   3C  -   0.509579  and   2C  -   0.509578
MO   7:   3C  -   0.530470  and   1C  -   0.505003
MO   6:   2C  -   0.530470  and   1C  -   0.505004
MO   5:   1C  -   0.498794  and   0C  -   0.513537
MO   4:   1C  -   0.498794  and   0C  -   0.513537
Localized MO's were stored in: /cluster/projects/nn14654k/ylvaos/basis_set_n_funcs/functionals/lda_x/C4H6/inp/C4H6_lda_x_ccpvtz.loc

-------------------------   --------------------
FINAL SINGLE POINT ENERGY      -152.671152231543
-------------------------   --------------------



           ************************************************************
           *        Program running with 8 parallel MPI-processes     *
           *              working on a common directory               *
           ************************************************************

------------------------------------------------------------------------------
                              ORCA PROPERTY CALCULATIONS
------------------------------------------------------------------------------

GBWName                                 ... /cluster/projects/nn14654k/ylvaos/basis_set_n_funcs/functionals/lda_x/C4H6/inp/C4H6_lda_x_ccpvtz.gbw
Number of atoms                         ...     10
Number of basis functions               ...    228
Max core memory                         ...   4096 MB

Electric properties:
Dipole moment                           ... YES
Quadrupole moment                       ... YES
Static polarizability (Dipole/Dipole)   ...  NO
Static polarizability (Dipole/Quad.)    ...  NO
Static polarizability (Quad./Quad.)     ...  NO
Static polarizability (Velocity)        ...  NO
Static hyperpolarizability              ...  NO

Atomic electric properties:
Dipole moment                           ...  NO
Quadrupole moment                       ...  NO
Static polarizability                   ...  NO

Choice of electric origin               ... Center of mass
Position of electric origin             ...     0.000000     0.000000     0.012360

General magnetic properties:
Magnetizability                         ...  NO

EPR properties:
g-Tensor (aka g-matrix)                 ...  NO
Zero-Field splitting spin-orbit         ...  NO
Zero-field splitting spin-spin          ...  NO
Hyperfine couplings                     ...  NO (   0 nuclei)
Quadrupole couplings                    ...  NO (   0 nuclei)
Contact density                         ...  NO (   0 nuclei)

NMR properties:
Chemical shifts                         ...  NO (   0 nuclei)
Spin-rotation constants                 ...  NO (   0 nuclei)
Spin-spin couplings                     ...  NO (   0 nuclei,    0 pairs)

Choice of magnetic origin               ... GIAO
Position of magnetic origin             ...     0.000000     0.000000     0.000000

Properties with geometric perturbations:
SCF Hessian                             ...  NO
IR spectrum                             ...  NO
VCD spectrum                            ...  NO
X-ray spectroscopy properties:
SCF XES/XAS/RIXS spectra                ...  NO

SCF SOC stabilization energy            ...  NO
Diagonal Born-Oppenheimer correction    ...  NO

-------------
DIPOLE MOMENT
-------------

Method             : SCF
Type of density    : Electron Density
Multiplicity       :   1
Irrep              :   0
Energy             :  -152.6711522315432603 Eh
Basis              : AO
                                X                 Y                 Z
Electronic contribution:      0.000000019       0.000000018       0.196624168
Nuclear contribution   :      0.000000000       0.000000000      -0.371559272
                        -----------------------------------------
Total Dipole Moment    :      0.000000019       0.000000018      -0.174935103
                        -----------------------------------------
Magnitude (a.u.)       :      0.174935103
Magnitude (Debye)      :      0.444649696



--------------------
Rotational spectrum 
--------------------
 
Rotational constants in cm-1:             0.643527             0.230144             0.181788 
Rotational constants in MHz :         19292.450199          6899.535423          5449.866904 

Dipole components along the rotational axes: 
x,y,z [a.u.] :    -0.174935     0.000000     0.000000 
x,y,z [Debye]:    -0.444650     0.000000     0.000000 

 

Dipole moment calculation done in   0.0 sec 

-----------------
QUADRUPOLE MOMENT
-----------------

Method             : SCF
Type of density    : Electron Density
Multiplicity       :   1
Irrep              :   0
Energy             :  -152.6711522315432603 Eh
Basis              : AO

                XX              YY              ZZ              XY              XZ              YZ
  NUC       11.888664720    55.799971245   152.416444257     0.000000000     0.000000000     0.000000000
  EL       -31.443782131   -74.401865842  -171.694169883     0.000000009     0.000000052     0.000000012
  TOT      -19.555117411   -18.601894597   -19.277725625     0.000000009     0.000000052     0.000000012 (a.u.)
           -26.302301702   -25.020184418   -25.929200264     0.000000012     0.000000070     0.000000016 (Buckingham)

diagonalized tensor:
           -19.555117411   -19.277725625   -18.601894597 (a.u.)
           -26.302301702   -25.929200264   -25.020184418 (Buckingham)
            -1.655218722    -0.535914408     2.191133130 (traceless form in Buckingham)

             1.000000000    -0.000000189    -0.000000010
            -0.000000010     0.000000017    -1.000000000
            -0.000000189    -1.000000000    -0.000000017
        
Isotropic quadrupole :   -19.144912544

Quadrupole moment calculation done in   0.0 sec (  0.0 sec for integrals)

Maximum memory used throughout the entire PROP-calculation: 9.1 MB

--------------------------------
SUGGESTED CITATIONS FOR THIS RUN
--------------------------------

Below you find a list of papers that are relevant to this ORCA run
We neither can nor want to force you to cite these papers, but we appreciate if you do
You receive ORCA, which is the product of decades of hard work by many enthusiastic individuals, for free
The only thing we kindly ask in return is that you cite our papers,
We deeply appreciate it, if you show your appreciation for ORCA by not just citing the generic ORCA reference.

Please note that relegating all ORCA citations to the supporting information does *not* help us.
SI sections are not indexed - citations you put there will not count into any citation statistics
But we need these citations in order to attract the funding resources that allow us to do what we are doing

Therefore, if you are a happy ORCA user, please consider citing a few of the papers listed below in the main body of your paper

In addition to the list printed below, the program has created the file /cluster/projects/nn14654k/ylvaos/basis_set_n_funcs/functionals/lda_x/C4H6/inp/C4H6_lda_x_ccpvtz.bibtex that contains the list in bibtex format
You can import this file easily into all common literature databanks and citation aid programs

It goes without saying that in many instances, there are alternative algorithms to achieve similar
results as the ones you have gotten from ORCA. It is, of course, also the case that in some instances
ORCA just re-implements algorithms worked out by others. We are fully aware of that and we are also
fully appreciative of our colleagues work. Hence this citation list should not be read as indicating
that the listed papers, which are focused on our own work, are the only ones worth citing. It simply
meant to make it easier for users to cite ORCA specific papers. It is not a substitute for doing your
own literature research and citing the relevant literature in a scientifically appropriate manner.

List of essential papers. We consider these as the minimum necessary citations

  1. Neese, F.
     Software update: the ORCA program system, version 6.0
     WIRES Comput. Molec. Sci. 2025 15(1), e70019
     doi.org/10.1002/wcms.70019

List of papers to cite with high priority. The work reported in these papers was absolutely
necessary for this run to complete.
Our perspective: the developers of density functionals and basis sets usually get cited in chemistry papers
Good! But without the algorithms to do something with them, the functionals or basis sets would not do anything.
Hence, in our opinion, the algorithm design and method developments papers are equally worthy of getting cited

  1. Lehtola, S.; Steigemann, C.; Oliveira, M.; Marques, M.
     Recent developments in Libxc - A comprehensive library of functionals for density functional theory
     Software X 2018 7 , 
     doi.org/10.1016/j.softx.2017.11.002
  2. Neese, F.
     The SHARK Integral Generation and Digestion System
     J. Comp. Chem. 2022 44(3), 381
     doi.org/10.1002/jcc.26942

List of suggested additional citations. These are papers that are important in the 'surrounding' of 
of this run, or papers that preceded the highly important papers. If you like your results we are grateful for a citation.

  1. Neese, F.
     The ORCA program system
     WIRES Comput. Molec. Sci. 2012 2(1), 73-78
     doi.org/10.1002/wcms.81
  2. Neese, F.
     Software update: the ORCA program system, version 4.0
     WIRES Comput. Molec. Sci. 2018 8(1), 1-6
     doi.org/10.1002/wcms.1327
  3. Neese, F.; Wennmohs, F.; Becker, U.; Riplinger, C.
     The ORCA quantum chemistry program package
     J. Chem. Phys. 2020 152(22), 224108
     doi.org/10.1063/5.0004608
  4. Neese, F.
     Software update: The ORCA program system—Version 5.0
     WIRES Comput. Molec. Sci. 2022 12(1), e1606
     doi.org/10.1002/wcms.1606

List of optional additional citations

  1. Neese, F.
     Approximate second-order SCF convergence for spin unrestricted wavefunctions
     Chem. Phys. Lett. 2000 325(1-3), 93-98
     doi.org/10.1016/s0009-2614(00)00662-x

Timings for individual modules:

Sum of individual times          ...        7.339 sec (=   0.122 min)
Startup calculation              ...        0.716 sec (=   0.012 min)   9.8 %
SCF iterations                   ...        6.093 sec (=   0.102 min)  83.0 %
Property integrals               ...        0.280 sec (=   0.005 min)   3.8 %
Property calculations            ...        0.245 sec (=   0.004 min)   3.3 %
Orbital localization             ...        0.006 sec (=   0.000 min)   0.1 %
                             ****ORCA TERMINATED NORMALLY****
TOTAL RUN TIME: 0 days 0 hours 0 minutes 7 seconds 964 msec
