
                                 *****************
                                 * O   R   C   A *
                                 *****************

                                            #,                                       
                                            ###                                      
                                            ####                                     
                                            #####                                    
                                            ######                                   
                                           ########,                                 
                                     ,,################,,,,,                         
                               ,,#################################,,                 
                          ,,##########################################,,             
                       ,#########################################, ''#####,          
                    ,#############################################,,   '####,        
                  ,##################################################,,,,####,       
                ,###########''''           ''''###############################       
              ,#####''   ,,,,##########,,,,          '''####'''          '####       
            ,##' ,,,,###########################,,,                        '##       
           ' ,,###''''                  '''############,,,                           
         ,,##''                                '''############,,,,        ,,,,,,###''
      ,#''                                            '''#######################'''  
     '                                                          ''''####''''         
             ,#######,   #######,   ,#######,      ##                                
            ,#'     '#,  ##    ##  ,#'     '#,    #''#        ,####,    ,#,          
            ##       ##  ##   ,#'  ##            #'  '#       #'       ,# #          
            ##       ##  #######   ##           ,######,      #####,      #          
            '#,     ,#'  ##    ##  '#,     ,#' ,#      #,     #,   #      #          
             '#######'   ##     ##  '#######'  #'      '#     '####' #    #          



                #########################################################
                #                        -***-                          #
                #          Department of theory and spectroscopy        #
                #                                                       #
                #                      Frank Neese                      #
                #                                                       #
                #     Directorship, Architecture, Infrastructure        #
                #                    SHARK, DRIVERS                     #
                #        Core code/Algorithms in most modules           #
                #                                                       #
                #        Max Planck Institute fuer Kohlenforschung      #
                #                Kaiser Wilhelm Platz 1                 #
                #                 D-45470 Muelheim/Ruhr                 #
                #                      Germany                          #
                #                                                       #
                #                  All rights reserved                  #
                #                        -***-                          #
                #########################################################


                         Program Version 6.1.1  -  RELEASE   -
                                (GIT: $487d211c$)
                          ($2025-11-21 10:33:24 +0100$)


 With contributions from (in alphabetic order):
[Max-Planck-Institut fuer Kohlenforschung]                               
  Daniel Aravena         : Magnetic Suceptibility                        
  Michael Atanasov       : Ab Initio Ligand Field Theory (pilot matlab implementation)
  Alexander A. Auer      : GIAO ZORA, VPT2 properties, NMR spectrum      
  Ute Becker             : All parallelization in ORCA, NUMFREQ, NUMCALC 
  Giovanni Bistoni       : ED, misc. LED, open-shell LED, HFLD           
  Dmytro Bykov           : pre 5.0 version of the SCF Hessian            
  Marcos Casanova-Páez   : Triplet and SCS-CIS(D). UHF-(DLPNO)-IP/EA/STEOM-CCSD. UHF-CVS-IP/STEOM-CCSD   
  Vijay G. Chilkuri      : MRCI spin determinant printing, contributions to CSF-ICE 
  Pauline Colinet        : FMM embedding                                 
  Dipayan Datta          : RHF DLPNO-CCSD density                        
  Achintya Kumar Dutta   : EOM-CC, STEOM-CC                              
  Nicolas Foglia         : Exact transition moments, OPA infrastructure, MCD improvements    
  Dmitry Ganyushin       : Spin-Orbit,Spin-Spin,Magnetic field MRCI      
  Miquel Garcia-Rates    : C-PCM and meta-GGA Hessian, CCSD/C-PCM, Gaussian charge scheme 
  Tiago L. C. Gouveia    : GS-ROHF, GS-ROCIS                             
  Yang Guo               : DLPNO-NEVPT2, F12-NEVPT2, CIM, IAO-localization        
  Andreas Hansen         : Spin unrestricted coupled pair/coupled cluster methods 
  Ingolf Harden          : AUTO-CI MPn and infrastructure                
  Benjamin Helmich-Paris : MC-RPA, TRAH-(SCF,CASSCF), AVAS, COSX integrals, SCF dyn. polar., MC-PDFT, srDFT 
  Lee Huntington         : MR-EOM, pCC                                   
  Robert Izsak           : Overlap fitted RIJCOSX, COSX-SCS-MP3, EOM     
  Riya Kayal             : Wick's Theorem for AUTO-CI, AUTO-CI UHF-CCSDT 
  Emily Kempfer          : AUTO-CI RHF CISDT and CCSDT, approximate NEVPT4
  Christian Kollmar      : KDIIS, OOCD, Brueckner-CCSD(T), CCSD density, CASPT2, CASPT2-K, improved NEVPT2 
  Axel Koslowski         : Symmetry handling                             
  Simone Kossmann        : meta-GGA functionals, TD-DFT gradient, OOMP2, (MP2 Hessian; deprecated post 5.0) 
  Lucas Lang             : DCDCAS, Hyperfine gauge corrections, ICE-SOC+SSC
  Marvin Lechner         : AUTO-CI (C++ implementation), FIC-MRCC        
  Spencer Leger          : CASSCF response                               
  Dagmar Lenk            : GEPOL surface, SMD, ORCA-2-JSON               
  Dimitrios Liakos       : Extrapolation schemes; Compound Job, Property file
  Dimitrios Manganas     : Further ROCIS development; embedding schemes. LFT, Crystal Embedding 
  Dimitrios Pantazis     : SARC Basis sets                               
  Anastasios Papadopoulos: AUTO-CI, single reference methods and gradients 
  Taras Petrenko         : pre 6.0 DFT Hessian and TD-DFT gradient,  ECA, NRVS 
  Petra Pikulova         : Analytic Raman intensities                    
  Peter Pinski           : DLPNO-MP2, DLPNO-MP2 Gradient                 
  Shashank Vittal Rao    : ES-AILFT, MagRelax                            
  Christoph Reimann      : Effective Core Potentials                     
  Marius Retegan         : Local ZFS, SOC                                
  Christoph Riplinger    : Optimizer, TS searches, QM/MM, DLPNO-CCSD(T), (RO)-DLPNO pert. Triples 
  Michael Roemelt        : Original ROCIS implementation, recursive CI coupling coefficients
  Masaaki Saitow         : Open-shell DLPNO-CCSD energy and density      
  Barbara Sandhoefer     : DKH picture change effects                    
  Yorick L. A. Schmerwitz: GMF and freeze-and-release deltaSCF, NEB S-IDPP initial path                    
  Kantharuban Sivalingam : CASSCF convergence/infrastructure, NEVPT2, NEVPT3, NEVPT4(SD), FIC-MRCI and CEPA variants
  Bernardo de Souza      : ESD, SOC TD-DFT                               
  Georgi L. Stoychev     : AutoAux, RI-MP2 NMR, DLPNO-MP2 response, X2C  
  Van Anh Tran           : RI-MP2 g-tensors                              
  Willem Van den Heuvel  : Paramagnetic NMR                              
  Zikuan Wang            : NOTCH, Electric field optimization            
  Frank Wennmohs         : Technical directorship and infrastructure     
  Hang Xu                : AUTO-CI-Response properties                   
                                                                         
[FACCTs GmbH]                                                            
  Markus Bursch, Nicolas Foglia, Miquel Garcia-Rates, Ingolf Harden, Hagen Neugebauer, Anastasios Papadopoulos, 
  Christoph Riplinger, Bernardo de Souza, Georgi L. Stoychev                                                    
                                                                 
  APM, various basis sets, CI-OPT, improved COSX, DLPNO-Multilevel,           
  DOCKER, DRACO, updates on ESD, Fragmentator, GOAT, IRC, LR-CPCM, L-BFGS, MBIS, meta-GGA TD-DFT gradient, ML-optimized integration grids, 
  MM, NACMEs, nearIR, NEB, NEB-TS, NL-DFT gradient (VV10), 2- and 3-layer-ONIOM, interface openCOSMO-RS, QMMM,   
  Crystal-QMMM, RESP, rigid body optimization, SF, symmetry and pop. for TD-DFT, various functionals, SOLVATOR                                   
                                                                         
[Other institutions]                                                     
  V. Asgeirsson          : NEB                                           
  Christoph Bannwarth    : sTDA-DFT, sTD-DFT, PBEh-3c, B97-3c, D3        
  Giovanni Bistoni       : ETS/NOCV, ADLD/ADEX, COVALED                  
  Martin Brehm           : Molecular dynamics                            
  Ronald Cardenas        : ETS/NOCV                                      
  Martina Colucci        : COVALED                                       
  Sebastian Ehlert       : rSCAN, r2SCAN, r2SCAN-3c, D4, dhf basis sets  
  Marvin Friede          : D4 for Fr, Ra, Ac-Lr                          
  Lars Goerigk           : TD-DFT with DH, B97 family of functionals     
  Stefan Grimme          : VdW corrections, initial TS optimization, DFT functionals, gCP, sTDA/sTD-DF 
  Waldemar Hujo          : DFT-NL                                        
  H. Jonsson             : NEB                                           
  Holger Kruse           : gCP                                           
  Marcel Mueller         : wB97X-3c, vDZP basis set                      
  Hagen Neugebauer       : wr2SCAN, Native XTB                           
  Gianluca Regni         : ADLD/ADEX                                     
  Tobias Risthaus        : pre 6.0 range-separated hybrid DFT and stability analysis
  Lukas Wittmann         : regularized MP2, r2SCAN double-hybrids, wr2SCAN        
                                                                         
We gratefully acknowledge several colleagues who have allowed us to      
interface, adapt or use parts of their codes:                            
  Ed Valeev, F. Pavosevic, A. Kumar             : LibInt (2-el integral package), F12 methods 
  Garnet Chan, S. Sharma, J. Yang, R. Olivares  : DMRG                   
  Ulf Ekstrom                                   : XCFun DFT Library      
  Mihaly Kallay                                 : mrcc  (arbitrary order and MRCC methods)
  Frank Weinhold                                : gennbo (NPA and NBO analysis)           
  Simon Mueller                                 : openCOSMO-RS                            
  Christopher J. Cramer and Donald G. Truhlar   : smd solvation model                     
  S Lehtola, MJT Oliveira, MAL Marques          : LibXC Library                           
  Liviu Ungur et al                             : ANISO software                          


 Your calculation uses the libint2 library for the computation of 2-el integrals
 For citations please refer to: http://libint.valeyev.net

 Your ORCA version has been built with support for libXC version: 7.0.0
 For citations please refer to: https://libxc.gitlab.io

 This ORCA versions uses:
   CBLAS   interface :  Fast vector & matrix operations
   LAPACKE interface :  Fast linear algebra routines
   SCALAPACK package :  Parallel linear algebra routines
   Shared memory     :  Shared parallel matrices
   BLAS/LAPACK       :  OpenBLAS 0.3.29  USE64BITINT DYNAMIC_ARCH NO_AFFINITY Cooperlake SINGLE_THREADED
        Core in use  :  Cooperlake
   Copyright (c) 2011-2014, The OpenBLAS Project


  ***********************************
  * Starting time: Wed May 20 12:39:04 2026
  * Host name:     c1-14
  * Process ID:    1123476
  * Working dir.:  /cluster/projects/nn14654k/ylvaos/basis_set_n_funcs/functionals/gga_x_pbe/PO2/out
  ***********************************

Using LibXC functional ID 101 : Perdew, Burke & Ernzerhof
[ 1]  J. P. Perdew, K. Burke, and M. Ernzerhof.,  Phys. Rev. Lett. 77, 3865 (1996)
[ 2]  J. P. Perdew, K. Burke, and M. Ernzerhof.,  Phys. Rev. Lett. 78, 1396 (1997)
Using LibXC functional ID 101 : Perdew, Burke & Ernzerhof
[ 1]  J. P. Perdew, K. Burke, and M. Ernzerhof.,  Phys. Rev. Lett. 77, 3865 (1996)
[ 2]  J. P. Perdew, K. Burke, and M. Ernzerhof.,  Phys. Rev. Lett. 78, 1396 (1997)
Your calculation utilizes LibXC
by S. Lehtola, C. Steigemann, M. J. T. Oliveira & M. A. L. Marques
Please cite in your paper:
Lehtola, S.; Steigemann, C.; Oliveira, M.J.T.; Marques, M. A. L. Software X, 7, (2018), 1.
   

================================================================================

----- Orbital basis set information -----
Your calculation utilizes the basis: aug-cc-pVDZ 
    H, B-Ne : Obtained from the ccRepo (grant-hill.group.shef.ac.uk/ccrepo) Feb. 2017
              R. A. Kendall, T. H. Dunning, Jr., R. J. Harrison, J. Chem. Phys. 96, 6796 (1992)
         He : Obtained from the ccRepo (grant-hill.group.shef.ac.uk/ccrepo) Feb. 2017
              D. E. Woon, T. H. Dunning, Jr., J. Chem. Phys. 100, 2975 (1994)
  Li-Be, Na : Obtained from the ccRepo (grant-hill.group.shef.ac.uk/ccrepo) Feb. 2017
              B. P. Prascher, D. E. Woon, K. A. Peterson, T. H. Dunning, Jr., A. K. Wilson, Theor. Chem. Acc. 128, 69 (2011)
         Mg : Obtained from the Peterson Research Group Website (tyr0.chem.wsu.edu/~kipeters) Feb. 2017
              B. P. Prascher, D. E. Woon, K. A. Peterson, T. H. Dunning, Jr., A. K. Wilson, Theor. Chem. Acc. 128, 69 (2011)
      Al-Ar : Obtained from the ccRepo (grant-hill.group.shef.ac.uk/ccrepo) Feb. 2017
              D. E. Woon, T. H. Dunning, Jr., J. Chem. Phys. 98, 1358 (1993)
      Sc-Zn : Obtained from the ccRepo (grant-hill.group.shef.ac.uk/ccrepo) Feb. 2017
              N. B. Balabanov, K. A. Peterson, J. Chem. Phys. 123, 064107 (2005)
              N. B. Balabanov, K. A. Peterson, J. Chem. Phys. 125, 074110 (2006)
      Ga-Kr : Obtained from the ccRepo (grant-hill.group.shef.ac.uk/ccrepo) Feb. 2017
              A. K. Wilson, D. E. Woon, K. A. Peterson, T. H. Dunning, Jr., J. Chem. Phys. 110, 7667 (1999)

================================================================================
                                        WARNINGS
                       Please study these warnings very carefully!
================================================================================


WARNING: your system is open-shell and RHF/RKS was chosen
  ===> : WILL SWITCH to UHF/UKS


================================================================================
                                       INPUT FILE
================================================================================
NAME = /cluster/projects/nn14654k/ylvaos/basis_set_n_funcs/functionals/gga_x_pbe/PO2/inp/PO2_gga_x_pbe_augccpvdz.inp
|  1> ! dft aug-cc-pVDZ TightSCF
|  2> %pal nprocs 8 end
|  3> 
|  4> %loc
|  5>   LocMet NewBoys
|  6>   Occ true
|  7> end
|  8> 
|  9> %method
| 10>   exchange gga_x_pbe
| 11>   correlation None
| 12> end
| 13> 
| 14> %elprop
| 15>   Dipole true
| 16>   Quadrupole true
| 17> end
| 18> 
| 19> * xyz 0 2
| 20> P    0.000000000000   0.000000000000   0.287900000000
| 21> O    0.000000000000   1.356300000000  -0.269900000000
| 22> O    0.000000000000  -1.356300000000  -0.269900000000
| 23> *
| 24> 
| 25> 
| 26>                          ****END OF INPUT****
================================================================================

                       ****************************
                       * Single Point Calculation *
                       ****************************

---------------------------------
CARTESIAN COORDINATES (ANGSTROEM)
---------------------------------
  P      0.000000    0.000000    0.287900
  O      0.000000    1.356300   -0.269900
  O      0.000000   -1.356300   -0.269900

----------------------------
CARTESIAN COORDINATES (A.U.)
----------------------------
  NO LB      ZA    FRAG     MASS         X           Y           Z
   0 P    15.0000    0    30.974    0.000000    0.000000    0.544052
   1 O     8.0000    0    15.999    0.000000    2.563036   -0.510037
   2 O     8.0000    0    15.999    0.000000   -2.563036   -0.510037

--------------------------------
INTERNAL COORDINATES (ANGSTROEM)
--------------------------------
 P      0   0   0     0.000000000000     0.00000000     0.00000000
 O      1   0   0     1.466523279733     0.00000000     0.00000000
 O      1   2   0     1.466523279733   135.28860674     0.00000000

---------------------------
INTERNAL COORDINATES (A.U.)
---------------------------
 P      0   0   0     0.000000000000     0.00000000     0.00000000
 O      1   0   0     2.771327367716     0.00000000     0.00000000
 O      1   2   0     2.771327367716   135.28860674     0.00000000

---------------------
BASIS SET INFORMATION
---------------------
There are 2 groups of distinct atoms

 Group   1 Type P   : 35s16p2d contracted to 5s4p2d pattern {11111111/7711/11}
 Group   2 Type O   : 18s5p2d contracted to 4s3p2d pattern {8811/311/11}

Atom   0P    basis set group =>   1
Atom   1O    basis set group =>   2
Atom   2O    basis set group =>   2


           ************************************************************
           *        Program running with 8 parallel MPI-processes     *
           *              working on a common directory               *
           ************************************************************
------------------------------------------------------------------------------
                             ORCA STARTUP CALCULATIONS
------------------------------------------------------------------------------
------------------------------------------------------------------------------
                   ___                                                        
                  /   \      - P O W E R E D   B Y -                         
                 /     \                                                     
                 |  |  |   _    _      __       _____    __    __             
                 |  |  |  | |  | |    /  \     |  _  \  |  |  /  |          
                  \  \/   | |  | |   /    \    | | | |  |  | /  /          
                 / \  \   | |__| |  /  /\  \   | |_| |  |  |/  /          
                |  |  |   |  __  | /  /__\  \  |    /   |      \           
                |  |  |   | |  | | |   __   |  |    \   |  |\   \          
                \     /   | |  | | |  |  |  |  | |\  \  |  | \   \       
                 \___/    |_|  |_| |__|  |__|  |_| \__\ |__|  \__/        
                                                                              
                      - O R C A' S   B I G   F R I E N D -                    
                                      &                                       
                       - I N T E G R A L  F E E D E R -                       
                                                                              
 v1 FN, 2020, v2 2021, v3 2022-2024                                           
------------------------------------------------------------------------------


----------------------
SHARK INTEGRAL PACKAGE
----------------------

Number of atoms                             ...      3
Number of basis functions                   ...    108
Number of shells                            ...     54
Maximum angular momentum                    ...      2
Integral batch strategy                     ... SHARK/LIBINT Hybrid
RI-J (if used) integral strategy            ... SPLIT-RIJ (Revised 2003 algorithm where possible)
Printlevel                                  ...      1
Contraction scheme used                     ... PARTIAL GENERAL contraction
Prescreening option                         ... SCHWARTZ
   Thresh                                   ... 2.500e-11
   Tcut                                     ... 2.500e-12
   Tpresel                                  ... 2.500e-12 
Coulomb Range Separation                    ... NOT USED
Exchange Range Separation                   ... NOT USED
Multipole approximations                    ... NOT USED
Finite Nucleus Model                        ... NOT USED
CABS basis                                  ... NOT available
Auxiliary Coulomb fitting basis             ... NOT available
Auxiliary J/K fitting basis                 ... NOT available
Auxiliary Correlation fitting basis         ... NOT available
Auxiliary 'external' fitting basis          ... NOT available

Checking pre-screening integrals            ... done (  0.0 sec) Dimension = 54
Save PGC pre-screening integrals            ... done (  0.0 sec) Dimension = 54
Calculate PGC overlap integrals             ... done (  0.0 sec) Dimension = 29
Calculating pre-screening integrals (ORCA)  ... done (  0.0 sec) Dimension = 29
Shell pair information
Shell pair cut-off parameter TPreSel        ...   2.5e-12
Total number of shell pairs                 ...      1485
Shell pairs after pre-screening             ...      1226
Total number of primitive shell pairs       ...      1717
Primitive shell pairs kept                  ...      1402
          la=0 lb=0:    378 shell pairs
          la=1 lb=0:    429 shell pairs
          la=1 lb=1:    120 shell pairs
          la=2 lb=0:    188 shell pairs
          la=2 lb=1:     90 shell pairs
          la=2 lb=2:     21 shell pairs

Checking whether 4 symmetric matrices of dimension 108 fit in memory
:Max Core in MB      =   4096.00
 MB in use           =      2.49
 MB left             =   4093.51
 MB needed           =      0.18
 Data fit in memory  = YES
Calculating Nuclear repulsion               ... done (  0.0 sec) ENN=     99.086296046297 Eh

Diagonalization of the overlap matrix:
Smallest eigenvalue                        ... 2.133e-03
Time for diagonalization                   ...    0.001 sec
Threshold for overlap eigenvalues          ... 1.000e-07
Number of eigenvalues below threshold      ... 0
Time for construction of square roots      ...    0.006 sec
Total time needed                          ...    0.009 sec

-------------------
DFT GRID GENERATION
-------------------

General Integration Accuracy     IntAcc      ... 4.388
Radial Grid Type                 RadialGrid  ... OptM3 with GC (2021)
Angular Grid (max. ang.)         AngularGrid ... 4 (Lebedev-302)
Angular grid pruning method      GridPruning ... 4 (adaptive)
Weight generation scheme         WeightScheme... mBecke (2022)
Basis function cutoff            BFCut       ... 1.0000e-11
Integration weight cutoff        WCut        ... 1.0000e-14
Partially contracted basis set               ... off
Rotationally invariant grid construction     ... off
Angular grids for H and He will be reduced by one unit
Diffuse basis detected: some atoms will have their outermost
                        angular grid increased by 1.

Total number of grid points                  ...    20582
Total number of batches                      ...      323
Average number of points per batch           ...       63
Average number of grid points per atom       ...     6861

---------------------
SHARK GRID GENERATION
---------------------

General Integration Accuracy     IntAcc      ... 4.388
Radial Grid Type                 RadialGrid  ... OptM3 with GC (2021)
Angular Grid (max. ang.)         AngularGrid ... 4 (Lebedev-302)
Angular grid pruning method      GridPruning ... 4 (adaptive)
Weight generation scheme         WeightScheme... mBecke (2022)
Basis function cutoff            BFCut       ... 1.0000e-11
Integration weight cutoff        WCut        ... 1.0000e-14
Partially contracted basis set               ... off
Rotationally invariant grid construction     ... off
Angular grids for H and He will be reduced by one unit
Diffuse basis detected: some atoms will have their outermost
                        angular grid increased by 1.
Core-polarized basis detected: some atoms will have their core
                               angular grid increased.
Steep s-basis detected: some atoms will have their radial
                        grid points doubled.

Total number of grid points                  ...    46090
Total number of batches                      ...      722
Average number of points per batch           ...       63
Average number of grid points per atom       ...    15363
Grids setup in   0.4 sec
Initializing property integral containers    ... done (  0.0 sec)

SHARK setup successfully completed in   0.5 seconds

Maximum memory used throughout the entire STARTUP-calculation: 25.7 MB


           ************************************************************
           *        Program running with 8 parallel MPI-processes     *
           *              working on a common directory               *
           ************************************************************
-------------------------------------------------------------------------------
                                 ORCA GUESS
                   Start orbitals & Density for SCF / CASSCF
-------------------------------------------------------------------------------

------------
SCF SETTINGS
------------
Hamiltonian:
 Density Functional     Method          .... DFT(GTOs)
  Functional kind                       .... Exchange
  Functional name                       .... Perdew, Burke & Ernzerhof
  Functional family                     .... GGA
  Functional refs                              
    [ 0] J. P. Perdew, K. Burke, and M. Ernzerhof.,  Phys. Rev. Lett. 77, 3865 (1996), doi: 10.1103/PhysRevLett.77.3865
    [ 1] J. P. Perdew, K. Burke, and M. Ernzerhof.,  Phys. Rev. Lett. 78, 1396 (1997), doi: 10.1103/PhysRevLett.78.1396
  Functional external parameters        .... 2
    Parameter  0 _kappa     =  8.040000e-01 : Asymptotic value of the enhancement function
    Parameter  1 _mu        =  2.195150e-01 : Coefficient of the 2nd order expansion
 Correlation Functional Correlation     .... No Correlation
 Gradients option       PostSCFGGA      .... off


General Settings:
 Integral files         IntName         .... /cluster/projects/nn14654k/ylvaos/basis_set_n_funcs/functionals/gga_x_pbe/PO2/inp/PO2_gga_x_pbe_augccpvdz
 Hartree-Fock type      HFTyp           .... UHF
 Total Charge           Charge          ....    0
 Multiplicity           Mult            ....    2
 Number of Electrons    NEL             ....   31
 Basis Dimension        Dim             ....   73
 Nuclear Repulsion      ENuc            ....     99.0862960463 Eh

Convergence Acceleration:
 AO-DIIS                CNVDIIS         .... on
   Start iteration      DIISMaxIt       ....    12
   Startup error        DIISStart       ....  0.200000
   # of expansion vecs  DIISMaxEq       ....     5
   Bias factor          DIISBfac        ....   1.050
   Max. coefficient     DIISMaxC        ....  10.000
 MO-DIIS                CNVKDIIS        .... off
 Trust-Rad. Augm. Hess. CNVTRAH         .... auto
   Auto Start mean grad. ratio tolernc. ....  1.125000
   Auto Start start iteration           ....    50
   Auto Start num. interpolation iter.  ....    10
   Max. Number of Micro iterations      ....    24
   Max. Number of Macro iterations      .... Maxiter - #DIIS iter
   Number of Davidson start vectors     ....     2
   Converg. threshold    (grad. norm)   ....   1.000e-05
   Grad. Scal. Fac. for Micro threshold ....   0.100
   Minimum threshold for Micro iter.    ....   1.000e-02
   NR start threshold (gradient norm)   ....   1.000e-04
   Initial trust radius                 ....   0.400
   Minimum AH scaling param. (alpha)    ....   1.000
   Maximum AH scaling param. (alpha)    .... 1000.000
   Quad. conv. algorithm                .... NR
   White noise on init. David. guess    .... on
   Maximum white noise                  ....   0.010
   Pseudo random numbers                .... off
   Inactive MOs                         .... canonical
   Orbital update algorithm             .... Taylor
   Preconditioner                       .... Diag
   Full preconditioner red. dimension   ....   250
 SOSCF                 CNVSOSCF           .... on
   Start iteration     SOSCFMaxIt         ....   150
   Startup grad/error  SOSCFStart         ....  0.003300
   Hessian update      SOSCFHessUp        .... L-BFGS
   Autom. constraints  SOSCFAutoConstrain .... off
 Level Shifting         CNVShift        .... on
   Level shift para.    LevelShift      ....    0.2500
   Turn off err/grad.   ShiftErr        ....    0.0010
 Zerner damping         CNVZerner       .... off
 Static damping         CNVDamp         .... on
   Fraction old density DampFac         ....    0.7000
   Max. Damping (<1)    DampMax         ....    0.9800
   Min. Damping (>=0)   DampMin         ....    0.0000
   Turn off err/grad.   DampErr         ....    0.1000

SCF Procedure:
 Maximum # iterations   MaxIter         ....   125
 SCF integral mode      SCFMode         .... Direct
   Integral package                     .... SHARK and LIBINT hybrid scheme
 Reset frequency        DirectResetFreq ....    20
 Integral Threshold     Thresh          ....  2.500e-11 Eh
 Primitive CutOff       TCut            ....  2.500e-12 Eh

Convergence Tolerance:
 Convergence Check Mode ConvCheckMode   .... Total+1el-Energy
 Convergence forced     ConvForced      .... 0
 Energy Change          TolE            ....  1.000e-08 Eh
 1-El. energy change                    ....  1.000e-05 Eh
 Orbital Gradient       TolG            ....  1.000e-05
 Orbital Rotation angle TolX            ....  1.000e-05
 DIIS Error             TolErr          ....  5.000e-07

------------------------------
INITIAL GUESS: MODEL POTENTIAL
------------------------------
Loading Hartree-Fock densities                     ... done
Calculating cut-offs                               ... done
Initializing the effective Hamiltonian             ... done
Setting up the integral package (SHARK)            ... done
Starting the Coulomb interaction                   ... done (   0.0 sec)
Making the grid                                    ... done (   0.0 sec)
Mapping shells                                     ... done
Starting the XC term evaluation                    ... done (   0.0 sec)
  promolecular density results
     # of electrons  =     31.000240993
     EX              =    -38.796975712
     EC              =      0.000000000
     EX+EC           =    -38.796975712
Transforming the Hamiltonian                       ... done (   0.0 sec)
Diagonalizing the Hamiltonian                      ... done (   0.0 sec)
Back transforming the eigenvectors                 ... done (   0.0 sec)
Now organizing SCF variables                       ... done
                      ------------------
                      INITIAL GUESS DONE (   0.1 sec)
                      ------------------
             **** ENERGY FILE WAS UPDATED (/cluster/projects/nn14654k/ylvaos/basis_set_n_funcs/functionals/gga_x_pbe/PO2/inp/PO2_gga_x_pbe_augccpvdz.en.tmp) ****
Finished Guess after   0.2 sec
Maximum memory used throughout the entire GUESS-calculation: 4.9 MB


           ************************************************************
           *        Program running with 8 parallel MPI-processes     *
           *              working on a common directory               *
           ************************************************************

-------------------------------------------------------------------------------------------
                                      ORCA LEAN-SCF
                              memory conserving SCF solver
-------------------------------------------------------------------------------------------

----------------------------------------D-I-I-S--------------------------------------------
Iteration    Energy (Eh)           Delta-E    RMSDP     MaxDP     DIISErr   Damp  Time(sec)
-------------------------------------------------------------------------------------------
               ***  Starting incremental Fock matrix formation  ***
    1    -490.1361920107171386     0.00e+00  1.18e-02  6.34e-02  1.44e-01  0.700   0.1
Warning: op=1 Small HOMO/LUMO gap (   0.063) - skipping pre-diagonalization
         Will do a full diagonalization
    2    -490.2764242024341570    -1.40e-01  4.75e-03  2.58e-02  3.51e-02  0.700   0.1
                               ***Turning on AO-DIIS***
    3    -490.3030493693409539    -2.66e-02  1.82e-03  1.40e-02  1.66e-02  0.700   0.1
    4    -490.3229681054236266    -1.99e-02  3.33e-03  2.91e-02  2.15e-02  0.000   0.1
    5    -490.3800918623125540    -5.71e-02  1.06e-03  6.88e-03  1.66e-02  0.000   0.1
    6    -490.3823961507197851    -2.30e-03  4.66e-04  2.67e-03  6.62e-03  0.000   0.3
                              *** Initializing SOSCF ***
---------------------------------------S-O-S-C-F--------------------------------------
Iteration    Energy (Eh)           Delta-E    RMSDP     MaxDP     MaxGrad    Time(sec)
--------------------------------------------------------------------------------------
    7    -490.3827572211900474    -3.61e-04  2.33e-04  1.29e-03  2.74e-03     0.1
               *** Restarting incremental Fock matrix formation ***
    8    -490.3828214441551268    -6.42e-05  3.99e-04  2.53e-03  1.74e-03     0.1
    9    -490.3827554954776247     6.59e-05  2.77e-04  1.50e-03  3.70e-03     0.1
   10    -490.3828387713210191    -8.33e-05  4.58e-05  4.29e-04  1.18e-04     0.1
   11    -490.3828390183376200    -2.47e-07  1.24e-05  8.31e-05  6.13e-05     0.1
   12    -490.3828390882286499    -6.99e-08  3.96e-06  1.86e-05  1.35e-05     0.1
   13    -490.3828390914333681    -3.20e-09  1.18e-06  7.22e-06  8.30e-06     0.1
                 **** Energy Check signals convergence ****

               *****************************************************
               *                     SUCCESS                       *
               *           SCF CONVERGED AFTER  13 CYCLES          *
               *****************************************************

             **** ENERGY FILE WAS UPDATED (/cluster/projects/nn14654k/ylvaos/basis_set_n_funcs/functionals/gga_x_pbe/PO2/inp/PO2_gga_x_pbe_augccpvdz.en.tmp) ****

----------------
TOTAL SCF ENERGY
----------------

Total Energy       :       -490.38283909239880 Eh          -13343.99545 eV

Components:
Nuclear Repulsion  :         99.08629604629714 Eh            2696.27519 eV
Electronic Energy  :       -589.46913513869595 Eh          -16040.27064 eV
One Electron Energy:       -874.18004863952399 Eh          -23787.64846 eV
Two Electron Energy:        284.71091350082810 Eh            7747.37783 eV

Virial components:
Potential Energy   :       -980.24018090219215 Eh          -26673.69139 eV
Kinetic Energy     :        489.85734180979341 Eh           13329.69594 eV
Virial Ratio       :          2.00107275575510

DFT components:
N(Alpha)           :       16.000084734538 electrons
N(Beta)            :       15.000074381758 electrons
N(Total)           :       31.000159116296 electrons
E(X)               :      -38.948423002329 Eh       
E(C)               :        0.000000000000 Eh       
E(XC)              :      -38.948423002329 Eh       

---------------
SCF CONVERGENCE
---------------

  Last Energy change         ...    3.2047e-09  Tolerance :   1.0000e-08
  Last MAX-Density change    ...    7.2248e-06  Tolerance :   1.0000e-07
  Last RMS-Density change    ...    1.1795e-06  Tolerance :   5.0000e-09
  Last DIIS Error            ...    2.7423e-03  Tolerance :   5.0000e-07
  Last Orbital Gradient      ...    8.2978e-06  Tolerance :   1.0000e-05
  Last Orbital Rotation      ...    1.2691e-05  Tolerance :   1.0000e-05


----------------------
UHF SPIN CONTAMINATION
----------------------

Warning: in a DFT calculation there is little theoretical justification to 
         calculate <S**2> as in Hartree-Fock theory. We will do it anyways
         but you should keep in mind that the values have only limited relevance

Expectation value of <S**2>     :     0.753753
Ideal value S*(S+1) for S=0.5   :     0.750000
Deviation                       :     0.003753

----------------
ORBITAL ENERGIES
----------------
                 SPIN UP ORBITALS
  NO   OCC          E(Eh)            E(eV) 
   0   1.0000     -76.460482     -2080.5955 
   1   1.0000     -18.812750      -511.9210 
   2   1.0000     -18.812738      -511.9206 
   3   1.0000      -6.404342      -174.2710 
   4   1.0000      -4.627840      -125.9299 
   5   1.0000      -4.625787      -125.8741 
   6   1.0000      -4.625309      -125.8611 
   7   1.0000      -0.963656       -26.2224 
   8   1.0000      -0.918722       -24.9997 
   9   1.0000      -0.485129       -13.2010 
  10   1.0000      -0.388283       -10.5657 
  11   1.0000      -0.372791       -10.1441 
  12   1.0000      -0.372770       -10.1436 
  13   1.0000      -0.300453        -8.1757 
  14   1.0000      -0.292282        -7.9534 
  15   1.0000      -0.239018        -6.5040 
  16   0.0000      -0.095508        -2.5989 
  17   0.0000      -0.014111        -0.3840 
  18   0.0000       0.013806         0.3757 
  19   0.0000       0.020606         0.5607 
  20   0.0000       0.033684         0.9166 
  21   0.0000       0.065777         1.7899 
  22   0.0000       0.118379         3.2213 
  23   0.0000       0.121129         3.2961 
  24   0.0000       0.132133         3.5955 
  25   0.0000       0.148878         4.0512 
  26   0.0000       0.152221         4.1422 

                 SPIN DOWN ORBITALS
  NO   OCC          E(Eh)            E(eV) 
   0   1.0000     -76.458790     -2080.5495 
   1   1.0000     -18.806106      -511.7402 
   2   1.0000     -18.806095      -511.7399 
   3   1.0000      -6.402072      -174.2092 
   4   1.0000      -4.625612      -125.8693 
   5   1.0000      -4.624054      -125.8269 
   6   1.0000      -4.621135      -125.7475 
   7   1.0000      -0.947803       -25.7910 
   8   1.0000      -0.901719       -24.5370 
   9   1.0000      -0.459994       -12.5171 
  10   1.0000      -0.366779        -9.9806 
  11   1.0000      -0.363101        -9.8805 
  12   1.0000      -0.353802        -9.6274 
  13   1.0000      -0.294688        -8.0189 
  14   1.0000      -0.280258        -7.6262 
  15   0.0000      -0.183591        -4.9958 
  16   0.0000      -0.070045        -1.9060 
  17   0.0000      -0.000699        -0.0190 
  18   0.0000       0.025126         0.6837 
  19   0.0000       0.029477         0.8021 
  20   0.0000       0.041044         1.1169 
  21   0.0000       0.078164         2.1269 
  22   0.0000       0.124477         3.3872 
  23   0.0000       0.126956         3.4546 
  24   0.0000       0.134428         3.6580 
  25   0.0000       0.160926         4.3790 
*Only the first 10 virtual orbitals were printed.

                    ********************************
                    * MULLIKEN POPULATION ANALYSIS *
                    ********************************

--------------------------------------------
MULLIKEN ATOMIC CHARGES AND SPIN POPULATIONS
--------------------------------------------
   0 P :    0.917137    0.499475
   1 O :   -0.458569    0.250263
   2 O :   -0.458569    0.250263
Sum of atomic charges         :    0.0000000
Sum of atomic spin populations:    1.0000000

-----------------------------------------------------
MULLIKEN REDUCED ORBITAL CHARGES AND SPIN POPULATIONS
-----------------------------------------------------
CHARGE
  0 P s       :     5.413576  s :     5.413576
      pz      :     2.797094  p :     8.057765
      px      :     2.700181
      py      :     2.560491
      dz2     :     0.099102  d :     0.611522
      dxz     :     0.009456
      dyz     :     0.194806
      dx2y2   :     0.145597
      dxy     :     0.162561

  1 O s       :     4.030469  s :     4.030469
      pz      :     1.532111  p :     4.396107
      px      :     1.548435
      py      :     1.315561
      dz2     :     0.006172  d :     0.031992
      dxz     :     0.001993
      dyz     :     0.006625
      dx2y2   :     0.003728
      dxy     :     0.013473

  2 O s       :     4.030469  s :     4.030469
      pz      :     1.532111  p :     4.396108
      px      :     1.548435
      py      :     1.315561
      dz2     :     0.006172  d :     0.031992
      dxz     :     0.001993
      dyz     :     0.006625
      dx2y2   :     0.003728
      dxy     :     0.013473


SPIN
  0 P s       :     0.127848  s :     0.127848
      pz      :     0.220042  p :     0.240888
      px      :     0.036872
      py      :    -0.016027
      dz2     :     0.044557  d :     0.130740
      dxz     :    -0.003893
      dyz     :     0.002356
      dx2y2   :     0.085076
      dxy     :     0.002642

  1 O s       :     0.048906  s :     0.048906
      pz      :     0.167886  p :     0.198826
      px      :    -0.017114
      py      :     0.048054
      dz2     :    -0.000102  d :     0.002531
      dxz     :    -0.000265
      dyz     :     0.003061
      dx2y2   :     0.000269
      dxy     :    -0.000432

  2 O s       :     0.048906  s :     0.048906
      pz      :     0.167886  p :     0.198826
      px      :    -0.017114
      py      :     0.048054
      dz2     :    -0.000102  d :     0.002531
      dxz     :    -0.000265
      dyz     :     0.003061
      dx2y2   :     0.000269
      dxy     :    -0.000432



                     *******************************
                     * LOEWDIN POPULATION ANALYSIS *
                     *******************************

-------------------------------------------
LOEWDIN ATOMIC CHARGES AND SPIN POPULATIONS
-------------------------------------------
   0 P :    0.766892    0.511413
   1 O :   -0.383446    0.244294
   2 O :   -0.383446    0.244294

----------------------------------------------------
LOEWDIN REDUCED ORBITAL CHARGES AND SPIN POPULATIONS
----------------------------------------------------
CHARGE
  0 P s       :     4.848140  s :     4.848140
      pz      :     2.799048  p :     8.168213
      px      :     2.635741
      py      :     2.733424
      dz2     :     0.161584  d :     1.216755
      dxz     :     0.016272
      dyz     :     0.384814
      dx2y2   :     0.343610
      dxy     :     0.310475

  1 O s       :     3.601344  s :     3.601344
      pz      :     1.549946  p :     4.608284
      px      :     1.484330
      py      :     1.574008
      dz2     :     0.019780  d :     0.173818
      dxz     :     0.004845
      dyz     :     0.064635
      dx2y2   :     0.054978
      dxy     :     0.029580

  2 O s       :     3.601344  s :     3.601344
      pz      :     1.549946  p :     4.608284
      px      :     1.484330
      py      :     1.574008
      dz2     :     0.019780  d :     0.173818
      dxz     :     0.004845
      dyz     :     0.064635
      dx2y2   :     0.054978
      dxy     :     0.029580


SPIN
  0 P s       :     0.160795  s :     0.160795
      pz      :     0.180967  p :     0.195079
      px      :     0.025557
      py      :    -0.011445
      dz2     :     0.066991  d :     0.155539
      dxz     :    -0.003987
      dyz     :    -0.003087
      dx2y2   :     0.096059
      dxy     :    -0.000437

  1 O s       :     0.037449  s :     0.037449
      pz      :     0.159264  p :     0.197328
      px      :    -0.011296
      py      :     0.049360
      dz2     :     0.001019  d :     0.009516
      dxz     :     0.000113
      dyz     :     0.007807
      dx2y2   :    -0.000040
      dxy     :     0.000617

  2 O s       :     0.037449  s :     0.037449
      pz      :     0.159264  p :     0.197328
      px      :    -0.011296
      py      :     0.049360
      dz2     :     0.001019  d :     0.009516
      dxz     :     0.000113
      dyz     :     0.007807
      dx2y2   :    -0.000040
      dxy     :     0.000617



                      *****************************
                      * MAYER POPULATION ANALYSIS *
                      *****************************

  NA   - Mulliken gross atomic population
  ZA   - Total nuclear charge
  QA   - Mulliken gross atomic charge
  VA   - Mayer's total valence
  BVA  - Mayer's bonded valence
  FA   - Mayer's free valence

  ATOM       NA         ZA         QA         VA         BVA        FA
  0 P     14.0829    15.0000     0.9171     3.8322     3.5744     0.2578
  1 O      8.4586     8.0000    -0.4586     2.0879     2.0299     0.0580
  2 O      8.4586     8.0000    -0.4586     2.0879     2.0299     0.0580

  Mayer bond orders larger than 0.100000
B(  0-P ,  1-O ) :   1.7872 B(  0-P ,  2-O ) :   1.7872 B(  1-O ,  2-O ) :   0.2427 


-------
TIMINGS
-------

Total SCF time: 0 days 0 hours 0 min 1 sec 

Total time                  ....       1.885 sec
Sum of individual times     ....       1.789 sec  ( 94.9%)

SCF preparation             ....       0.060 sec  (  3.2%)
Fock matrix formation       ....       1.198 sec  ( 63.6%)
  Startup                   ....       0.031 sec  (  2.6% of F)
  Coulomb formation         ....       0.292 sec  ( 24.3% of F)
  XC integration            ....       0.407 sec  ( 33.9% of F)
    XC Preparation          ....       0.000 sec  (  0.0% of XC)
    Basis function eval.    ....       0.037 sec  (  9.1% of XC)
    Density eval.           ....       0.022 sec  (  5.4% of XC)
    XC-Functional eval.     ....       0.009 sec  (  2.3% of XC)
    XC-Potential eval.      ....       0.050 sec  ( 12.2% of XC)
Diagonalization             ....       0.000 sec  (  0.0%)
Density matrix formation    ....       0.135 sec  (  7.2%)
Total Energy calculation    ....       0.026 sec  (  1.4%)
Population analysis         ....       0.012 sec  (  0.6%)
Orbital Transformation      ....       0.026 sec  (  1.4%)
Orbital Orthonormalization  ....       0.000 sec  (  0.0%)
DIIS solution               ....       0.235 sec  ( 12.5%)
SOSCF solution              ....       0.097 sec  (  5.2%)
Finished LeanSCF after   1.9 sec

Maximum memory used throughout the entire LEANSCF-calculation: 6.9 MB


           ************************************************************
           *        Program running with 8 parallel MPI-processes     *
           *              working on a common directory               *
           ************************************************************

------------------------------------------------------------------------------
                         ORCA PROPERTY INTEGRAL CALCULATIONS
------------------------------------------------------------------------------

GBWName                                   ... /cluster/projects/nn14654k/ylvaos/basis_set_n_funcs/functionals/gga_x_pbe/PO2/inp/PO2_gga_x_pbe_augccpvdz.gbw
Number of atoms                           ...      3
Number of basis functions                 ...    108
Max core memory                           ...   4096 MB

Dipole integrals                          ... YES
Quadrupole integrals                      ... YES
Linear momentum integrals                 ...  NO
Angular momentum integrals                ...  NO
Higher moments length integrals           ...  NO
Higher moments velocity integrals         ...  NO
Kinetic energy integrals                  ...  NO
GIAO right hand sides                     ...  NO
GIAO dipole derivative integrals          ...  NO
SOC integrals                             ...  NO
EPR diamagnetic integrals (GIAO)          ...  NO
EPR gauge integrals                       ...  NO
Field gradient integrals                  ...  NO (   0 nuclei)
Spin-dipole/Fermi contact integrals       ...  NO (   0 nuclei)
Contact density integrals                 ...  NO (   0 nuclei)
Nucleus-orbit integrals                   ...  NO (   0 nuclei)
Geometric perturbations                   ...  NO (   3 nuclei)

Choice of electric origin   ... Center of mass
Position of electric origin ... (  0.0000,  0.0000,  0.0084) 
Choice of magnetic origin   ... GIAO
Position of magnetic origin ... (  0.0000,  0.0000,  0.0000) 

Calculating integrals                     ... Electric Dipole (Length)     done (  0.0 sec)
Calculating integrals                     ... Electric Quadrupole (Length) done (  0.0 sec)

Property integrals calculated in   0.0 sec

Maximum memory used throughout the entire PROPINT-calculation: 5.2 MB
------------------------------------------------------------------------------
                           ORCA ORBITAL LOCALIZATION
------------------------------------------------------------------------------

Input orbitals are from                  ... /cluster/projects/nn14654k/ylvaos/basis_set_n_funcs/functionals/gga_x_pbe/PO2/inp/PO2_gga_x_pbe_augccpvdz.gbw
Output orbitals are to                   ... /cluster/projects/nn14654k/ylvaos/basis_set_n_funcs/functionals/gga_x_pbe/PO2/inp/PO2_gga_x_pbe_augccpvdz.loc
Max. number of iterations                ... 128
Localizations seeded randomly            ... on
Convergence tolerance                    ... 1.000e-06
Threshold for strong local MOs           ... 9.500e-01
Threshold for bond MOs                   ... 8.500e-01
Operator                                 ... 0
Orbital range for localization           ... 4 to 15
Localization criterion                   ... NEW-BOYS
Doing the dipole integrals               ... o.k.
Initial value of the localization sum :    44.236292
ITERATION   0 : L=   49.4669417938 DL=  5.23e+00 (AVERGE_DL)=    0.2815177939 
ITERATION   1 : L=   50.0132862436 DL=  5.46e-01 (AVERGE_DL)=    0.0909832194 
ITERATION   2 : L=   50.0528980662 DL=  3.96e-02 (AVERGE_DL)=    0.0244985536 
ITERATION   3 : L=   50.0618960187 DL=  9.00e-03 (AVERGE_DL)=    0.0116761557 
ITERATION   4 : L=   50.0729157264 DL=  1.10e-02 (AVERGE_DL)=    0.0129215041 
ITERATION   5 : L=   50.0982144577 DL=  2.53e-02 (AVERGE_DL)=    0.0195784093 
ITERATION   6 : L=   50.1484094860 DL=  5.02e-02 (AVERGE_DL)=    0.0275777217 
ITERATION   7 : L=   50.2079686635 DL=  5.96e-02 (AVERGE_DL)=    0.0300401695 
ITERATION   8 : L=   50.2664684569 DL=  5.85e-02 (AVERGE_DL)=    0.0297718072 
ITERATION   9 : L=   50.3068154513 DL=  4.03e-02 (AVERGE_DL)=    0.0247248477 
ITERATION  10 : L=   50.3230966500 DL=  1.63e-02 (AVERGE_DL)=    0.0157062035 
ITERATION  11 : L=   50.3279054562 DL=  4.81e-03 (AVERGE_DL)=    0.0085358479 
ITERATION  12 : L=   50.3291313298 DL=  1.23e-03 (AVERGE_DL)=    0.0043097381 
ITERATION  13 : L=   50.3294215809 DL=  2.90e-04 (AVERGE_DL)=    0.0020970800 
ITERATION  14 : L=   50.3294874081 DL=  6.58e-05 (AVERGE_DL)=    0.0009986897 
ITERATION  15 : L=   50.3295019196 DL=  1.45e-05 (AVERGE_DL)=    0.0004689048 
ITERATION  16 : L=   50.3295050564 DL=  3.14e-06 (AVERGE_DL)=    0.0002180078 
ITERATION  17 : L=   50.3295057253 DL=  6.69e-07 (AVERGE_DL)=    0.0001006719 
LOCALIZATION SUM CONVERGED


--------------------------------------------------------------------------------
                    LOCALIZED MOLECULAR ORBITAL COMPOSITIONS
--------------------------------------------------------------------------------

The Mulliken populations for each LMO on each atom are computed
The LMO`s will be ordered according to atom index and type
  (A) Strongly localized MO`s have populations of >=0.950 on one atom
  (B) Two center bond orbitals have populations of >=0.850 on two atoms
  (C) Other MO`s are considered to be `delocalized`

FOUND  -   6 strongly local MO`s
       -   6 two center bond MO`s
       -   0 significantly delocalized MO`s

Rather strongly localized orbitals:
MO   9:   2O  -   1.005153
MO   8:   1O  -   1.005168
MO   7:   0P  -   0.963393
MO   6:   0P  -   1.000679
MO   5:   0P  -   1.000679
MO   4:   0P  -   1.002597
Bond-like localized orbitals:
MO  15:   2O  -   0.707242  and   0P  -   0.287102
MO  14:   2O  -   0.707241  and   0P  -   0.287104
MO  13:   2O  -   0.904983  and   0P  -   0.090224
MO  12:   1O  -   0.707267  and   0P  -   0.287073
MO  11:   1O  -   0.707265  and   0P  -   0.287075
MO  10:   1O  -   0.904919  and   0P  -   0.090294
Localized MO's were stored in: /cluster/projects/nn14654k/ylvaos/basis_set_n_funcs/functionals/gga_x_pbe/PO2/inp/PO2_gga_x_pbe_augccpvdz.loc
------------------------------------------------------------------------------
                           ORCA ORBITAL LOCALIZATION
------------------------------------------------------------------------------

Input orbitals are from                  ... /cluster/projects/nn14654k/ylvaos/basis_set_n_funcs/functionals/gga_x_pbe/PO2/inp/PO2_gga_x_pbe_augccpvdz.loc
Output orbitals are to                   ... /cluster/projects/nn14654k/ylvaos/basis_set_n_funcs/functionals/gga_x_pbe/PO2/inp/PO2_gga_x_pbe_augccpvdz.loc
Max. number of iterations                ... 128
Localizations seeded randomly            ... on
Convergence tolerance                    ... 1.000e-06
Threshold for strong local MOs           ... 9.500e-01
Threshold for bond MOs                   ... 8.500e-01
Operator                                 ... 1
Orbital range for localization           ... 4 to 14
Localization criterion                   ... NEW-BOYS
Doing the dipole integrals               ... o.k.
Initial value of the localization sum :    38.925280
ITERATION   0 : L=   41.6913980089 DL=  2.77e+00 (AVERGE_DL)=    0.2242611347 
ITERATION   1 : L=   42.7820441939 DL=  1.09e+00 (AVERGE_DL)=    0.1408187865 
ITERATION   2 : L=   42.9770482775 DL=  1.95e-01 (AVERGE_DL)=    0.0595443431 
ITERATION   3 : L=   43.0024015427 DL=  2.54e-02 (AVERGE_DL)=    0.0214701760 
ITERATION   4 : L=   43.0078471550 DL=  5.45e-03 (AVERGE_DL)=    0.0099504337 
ITERATION   5 : L=   43.0109247924 DL=  3.08e-03 (AVERGE_DL)=    0.0074804441 
ITERATION   6 : L=   43.0132427845 DL=  2.32e-03 (AVERGE_DL)=    0.0064919421 
ITERATION   7 : L=   43.0150111276 DL=  1.77e-03 (AVERGE_DL)=    0.0056702462 
ITERATION   8 : L=   43.0163420421 DL=  1.33e-03 (AVERGE_DL)=    0.0049191915 
ITERATION   9 : L=   43.0173318259 DL=  9.90e-04 (AVERGE_DL)=    0.0042421775 
ITERATION  10 : L=   43.0180613299 DL=  7.30e-04 (AVERGE_DL)=    0.0036419375 
ITERATION  11 : L=   43.0185955737 DL=  5.34e-04 (AVERGE_DL)=    0.0031166524 
ITERATION  12 : L=   43.0189851167 DL=  3.90e-04 (AVERGE_DL)=    0.0026613157 
ITERATION  13 : L=   43.0192683481 DL=  2.83e-04 (AVERGE_DL)=    0.0022692866 
ITERATION  14 : L=   43.0194739224 DL=  2.06e-04 (AVERGE_DL)=    0.0019333169 
ITERATION  15 : L=   43.0196229916 DL=  1.49e-04 (AVERGE_DL)=    0.0016463135 
ITERATION  16 : L=   43.0197310454 DL=  1.08e-04 (AVERGE_DL)=    0.0014016472 
ITERATION  17 : L=   43.0198093699 DL=  7.83e-05 (AVERGE_DL)=    0.0011933489 
ITERATION  18 : L=   43.0198661623 DL=  5.68e-05 (AVERGE_DL)=    0.0010161644 
ITERATION  19 : L=   43.0199073600 DL=  4.12e-05 (AVERGE_DL)=    0.0008654759 
ITERATION  20 : L=   43.0199372664 DL=  2.99e-05 (AVERGE_DL)=    0.0007373965 
ITERATION  21 : L=   43.0199589890 DL=  2.17e-05 (AVERGE_DL)=    0.0006284552 
ITERATION  22 : L=   43.0199747812 DL=  1.58e-05 (AVERGE_DL)=    0.0005358465 
ITERATION  23 : L=   43.0199862701 DL=  1.15e-05 (AVERGE_DL)=    0.0004570429 
ITERATION  24 : L=   43.0199946359 DL=  8.37e-06 (AVERGE_DL)=    0.0003900079 
ITERATION  25 : L=   43.0200007324 DL=  6.10e-06 (AVERGE_DL)=    0.0003329335 
ITERATION  26 : L=   43.0200051786 DL=  4.45e-06 (AVERGE_DL)=    0.0002843249 
ITERATION  27 : L=   43.0200084247 DL=  3.25e-06 (AVERGE_DL)=    0.0002429376 
ITERATION  28 : L=   43.0200107960 DL=  2.37e-06 (AVERGE_DL)=    0.0002076436 
ITERATION  29 : L=   43.0200125296 DL=  1.73e-06 (AVERGE_DL)=    0.0001775389 
ITERATION  30 : L=   43.0200137980 DL=  1.27e-06 (AVERGE_DL)=    0.0001518612 
ITERATION  31 : L=   43.0200147273 DL=  9.29e-07 (AVERGE_DL)=    0.0001299849 
LOCALIZATION SUM CONVERGED


--------------------------------------------------------------------------------
                    LOCALIZED MOLECULAR ORBITAL COMPOSITIONS
--------------------------------------------------------------------------------

The Mulliken populations for each LMO on each atom are computed
The LMO`s will be ordered according to atom index and type
  (A) Strongly localized MO`s have populations of >=0.950 on one atom
  (B) Two center bond orbitals have populations of >=0.850 on two atoms
  (C) Other MO`s are considered to be `delocalized`

FOUND  -   5 strongly local MO`s
       -   6 two center bond MO`s
       -   0 significantly delocalized MO`s

Rather strongly localized orbitals:
MO   8:   2O  -   1.001792
MO   7:   1O  -   1.001789
MO   6:   0P  -   1.000623
MO   5:   0P  -   1.000624
MO   4:   0P  -   1.002305
Bond-like localized orbitals:
MO  14:   2O  -   0.528062  and   0P  -   0.476346
MO  13:   2O  -   0.783352  and   0P  -   0.209392
MO  12:   2O  -   0.783520  and   0P  -   0.209194
MO  11:   1O  -   0.783733  and   0P  -   0.208953
MO  10:   1O  -   0.528143  and   0P  -   0.476266
MO   9:   1O  -   0.783059  and   0P  -   0.209714
Localized MO's were stored in: /cluster/projects/nn14654k/ylvaos/basis_set_n_funcs/functionals/gga_x_pbe/PO2/inp/PO2_gga_x_pbe_augccpvdz.loc

-------------------------   --------------------
FINAL SINGLE POINT ENERGY      -490.382839092399
-------------------------   --------------------



           ************************************************************
           *        Program running with 8 parallel MPI-processes     *
           *              working on a common directory               *
           ************************************************************

------------------------------------------------------------------------------
                              ORCA PROPERTY CALCULATIONS
------------------------------------------------------------------------------

GBWName                                 ... /cluster/projects/nn14654k/ylvaos/basis_set_n_funcs/functionals/gga_x_pbe/PO2/inp/PO2_gga_x_pbe_augccpvdz.gbw
Number of atoms                         ...      3
Number of basis functions               ...    108
Max core memory                         ...   4096 MB

Electric properties:
Dipole moment                           ... YES
Quadrupole moment                       ... YES
Static polarizability (Dipole/Dipole)   ...  NO
Static polarizability (Dipole/Quad.)    ...  NO
Static polarizability (Quad./Quad.)     ...  NO
Static polarizability (Velocity)        ...  NO
Static hyperpolarizability              ...  NO

Atomic electric properties:
Dipole moment                           ...  NO
Quadrupole moment                       ...  NO
Static polarizability                   ...  NO

Choice of electric origin               ... Center of mass
Position of electric origin             ...     0.000000     0.000000     0.008437

General magnetic properties:
Magnetizability                         ...  NO

EPR properties:
g-Tensor (aka g-matrix)                 ...  NO
Zero-Field splitting spin-orbit         ...  NO
Zero-field splitting spin-spin          ...  NO
Hyperfine couplings                     ...  NO (   0 nuclei)
Quadrupole couplings                    ...  NO (   0 nuclei)
Contact density                         ...  NO (   0 nuclei)

NMR properties:
Chemical shifts                         ...  NO (   0 nuclei)
Spin-rotation constants                 ...  NO (   0 nuclei)
Spin-spin couplings                     ...  NO (   0 nuclei,    0 pairs)

Choice of magnetic origin               ... GIAO
Position of magnetic origin             ...     0.000000     0.000000     0.000000

Properties with geometric perturbations:
SCF Hessian                             ...  NO
IR spectrum                             ...  NO
VCD spectrum                            ...  NO
X-ray spectroscopy properties:
SCF XES/XAS/RIXS spectra                ...  NO

SCF SOC stabilization energy            ...  NO
Diagonal Born-Oppenheimer correction    ...  NO

-------------
DIPOLE MOMENT
-------------

Method             : SCF
Type of density    : Electron Density
Multiplicity       :   2
Irrep              :   0
Energy             :  -490.3828390923987968 Eh
Basis              : AO
                                X                 Y                 Z
Electronic contribution:      0.000000000       0.000000000       0.738455668
Nuclear contribution   :      0.000000000       0.000000000      -0.261362976
                        -----------------------------------------
Total Dipole Moment    :      0.000000000       0.000000000       0.477092692
                        -----------------------------------------
Magnitude (a.u.)       :      0.477092692
Magnitude (Debye)      :      1.212673250



--------------------
Rotational spectrum 
--------------------
 
Rotational constants in cm-1:             3.442444             0.286393             0.264396 
Rotational constants in MHz :        103201.869580          8585.841533          7926.407020 

Dipole components along the rotational axes: 
x,y,z [a.u.] :     0.000000     0.477093     0.000000 
x,y,z [Debye]:     0.000000     1.212673     0.000000 

 

Dipole moment calculation done in   0.0 sec 

-----------------
QUADRUPOLE MOMENT
-----------------

Method             : SCF
Type of density    : Electron Density
Multiplicity       :   2
Irrep              :   0
Energy             :  -490.3828390923987968 Eh
Basis              : AO

                XX              YY              ZZ              XY              XZ              YZ
  NUC        0.000000000   105.106420135     8.604299986     0.000000000     0.000000000     0.000000000
  EL       -16.099085382  -126.679470891   -25.532861806    -0.000000001     0.000000001     0.000000001
  TOT      -16.099085382   -21.573050756   -16.928561820    -0.000000001     0.000000001     0.000000001 (a.u.)
           -21.653820427   -29.016491065   -22.769494605    -0.000000001     0.000000001     0.000000001 (Buckingham)

diagonalized tensor:
           -21.573050756   -16.928561820   -16.099085382 (a.u.)
           -29.016491065   -22.769494605   -21.653820427 (Buckingham)
           -13.609667098     5.131322282     8.478344816 (traceless form in Buckingham)

             0.000000000    -0.000000001     1.000000000
             1.000000000     0.000000000    -0.000000000
            -0.000000000     1.000000000     0.000000001
        
Isotropic quadrupole :   -18.200232653

Quadrupole moment calculation done in   0.0 sec (  0.0 sec for integrals)

Maximum memory used throughout the entire PROP-calculation: 2.8 MB

--------------------------------
SUGGESTED CITATIONS FOR THIS RUN
--------------------------------

Below you find a list of papers that are relevant to this ORCA run
We neither can nor want to force you to cite these papers, but we appreciate if you do
You receive ORCA, which is the product of decades of hard work by many enthusiastic individuals, for free
The only thing we kindly ask in return is that you cite our papers,
We deeply appreciate it, if you show your appreciation for ORCA by not just citing the generic ORCA reference.

Please note that relegating all ORCA citations to the supporting information does *not* help us.
SI sections are not indexed - citations you put there will not count into any citation statistics
But we need these citations in order to attract the funding resources that allow us to do what we are doing

Therefore, if you are a happy ORCA user, please consider citing a few of the papers listed below in the main body of your paper

In addition to the list printed below, the program has created the file /cluster/projects/nn14654k/ylvaos/basis_set_n_funcs/functionals/gga_x_pbe/PO2/inp/PO2_gga_x_pbe_augccpvdz.bibtex that contains the list in bibtex format
You can import this file easily into all common literature databanks and citation aid programs

It goes without saying that in many instances, there are alternative algorithms to achieve similar
results as the ones you have gotten from ORCA. It is, of course, also the case that in some instances
ORCA just re-implements algorithms worked out by others. We are fully aware of that and we are also
fully appreciative of our colleagues work. Hence this citation list should not be read as indicating
that the listed papers, which are focused on our own work, are the only ones worth citing. It simply
meant to make it easier for users to cite ORCA specific papers. It is not a substitute for doing your
own literature research and citing the relevant literature in a scientifically appropriate manner.

List of essential papers. We consider these as the minimum necessary citations

  1. Neese, F.
     Software update: the ORCA program system, version 6.0
     WIRES Comput. Molec. Sci. 2025 15(1), e70019
     doi.org/10.1002/wcms.70019

List of papers to cite with high priority. The work reported in these papers was absolutely
necessary for this run to complete.
Our perspective: the developers of density functionals and basis sets usually get cited in chemistry papers
Good! But without the algorithms to do something with them, the functionals or basis sets would not do anything.
Hence, in our opinion, the algorithm design and method developments papers are equally worthy of getting cited

  1. Lehtola, S.; Steigemann, C.; Oliveira, M.; Marques, M.
     Recent developments in Libxc - A comprehensive library of functionals for density functional theory
     Software X 2018 7 , 
     doi.org/10.1016/j.softx.2017.11.002
  2. Neese, F.
     The SHARK Integral Generation and Digestion System
     J. Comp. Chem. 2022 44(3), 381
     doi.org/10.1002/jcc.26942

List of suggested additional citations. These are papers that are important in the 'surrounding' of 
of this run, or papers that preceded the highly important papers. If you like your results we are grateful for a citation.

  1. Neese, F.
     The ORCA program system
     WIRES Comput. Molec. Sci. 2012 2(1), 73-78
     doi.org/10.1002/wcms.81
  2. Neese, F.
     Software update: the ORCA program system, version 4.0
     WIRES Comput. Molec. Sci. 2018 8(1), 1-6
     doi.org/10.1002/wcms.1327
  3. Neese, F.; Wennmohs, F.; Becker, U.; Riplinger, C.
     The ORCA quantum chemistry program package
     J. Chem. Phys. 2020 152(22), 224108
     doi.org/10.1063/5.0004608
  4. Neese, F.
     Software update: The ORCA program system—Version 5.0
     WIRES Comput. Molec. Sci. 2022 12(1), e1606
     doi.org/10.1002/wcms.1606

List of optional additional citations

  1. Neese, F.
     Approximate second-order SCF convergence for spin unrestricted wavefunctions
     Chem. Phys. Lett. 2000 325(1-3), 93-98
     doi.org/10.1016/s0009-2614(00)00662-x

Timings for individual modules:

Sum of individual times          ...        3.871 sec (=   0.065 min)
Startup calculation              ...        0.854 sec (=   0.014 min)  22.1 %
SCF iterations                   ...        2.532 sec (=   0.042 min)  65.4 %
Property integrals               ...        0.227 sec (=   0.004 min)   5.9 %
Property calculations            ...        0.250 sec (=   0.004 min)   6.5 %
Orbital localization             ...        0.007 sec (=   0.000 min)   0.2 %
                             ****ORCA TERMINATED NORMALLY****
TOTAL RUN TIME: 0 days 0 hours 0 minutes 4 seconds 724 msec
