
                                 *****************
                                 * O   R   C   A *
                                 *****************

                                            #,                                       
                                            ###                                      
                                            ####                                     
                                            #####                                    
                                            ######                                   
                                           ########,                                 
                                     ,,################,,,,,                         
                               ,,#################################,,                 
                          ,,##########################################,,             
                       ,#########################################, ''#####,          
                    ,#############################################,,   '####,        
                  ,##################################################,,,,####,       
                ,###########''''           ''''###############################       
              ,#####''   ,,,,##########,,,,          '''####'''          '####       
            ,##' ,,,,###########################,,,                        '##       
           ' ,,###''''                  '''############,,,                           
         ,,##''                                '''############,,,,        ,,,,,,###''
      ,#''                                            '''#######################'''  
     '                                                          ''''####''''         
             ,#######,   #######,   ,#######,      ##                                
            ,#'     '#,  ##    ##  ,#'     '#,    #''#        ,####,    ,#,          
            ##       ##  ##   ,#'  ##            #'  '#       #'       ,# #          
            ##       ##  #######   ##           ,######,      #####,      #          
            '#,     ,#'  ##    ##  '#,     ,#' ,#      #,     #,   #      #          
             '#######'   ##     ##  '#######'  #'      '#     '####' #    #          



                #########################################################
                #                        -***-                          #
                #          Department of theory and spectroscopy        #
                #                                                       #
                #                      Frank Neese                      #
                #                                                       #
                #     Directorship, Architecture, Infrastructure        #
                #                    SHARK, DRIVERS                     #
                #        Core code/Algorithms in most modules           #
                #                                                       #
                #        Max Planck Institute fuer Kohlenforschung      #
                #                Kaiser Wilhelm Platz 1                 #
                #                 D-45470 Muelheim/Ruhr                 #
                #                      Germany                          #
                #                                                       #
                #                  All rights reserved                  #
                #                        -***-                          #
                #########################################################


                         Program Version 6.1.1  -  RELEASE   -
                                (GIT: $487d211c$)
                          ($2025-11-21 10:33:24 +0100$)


 With contributions from (in alphabetic order):
[Max-Planck-Institut fuer Kohlenforschung]                               
  Daniel Aravena         : Magnetic Suceptibility                        
  Michael Atanasov       : Ab Initio Ligand Field Theory (pilot matlab implementation)
  Alexander A. Auer      : GIAO ZORA, VPT2 properties, NMR spectrum      
  Ute Becker             : All parallelization in ORCA, NUMFREQ, NUMCALC 
  Giovanni Bistoni       : ED, misc. LED, open-shell LED, HFLD           
  Dmytro Bykov           : pre 5.0 version of the SCF Hessian            
  Marcos Casanova-Páez   : Triplet and SCS-CIS(D). UHF-(DLPNO)-IP/EA/STEOM-CCSD. UHF-CVS-IP/STEOM-CCSD   
  Vijay G. Chilkuri      : MRCI spin determinant printing, contributions to CSF-ICE 
  Pauline Colinet        : FMM embedding                                 
  Dipayan Datta          : RHF DLPNO-CCSD density                        
  Achintya Kumar Dutta   : EOM-CC, STEOM-CC                              
  Nicolas Foglia         : Exact transition moments, OPA infrastructure, MCD improvements    
  Dmitry Ganyushin       : Spin-Orbit,Spin-Spin,Magnetic field MRCI      
  Miquel Garcia-Rates    : C-PCM and meta-GGA Hessian, CCSD/C-PCM, Gaussian charge scheme 
  Tiago L. C. Gouveia    : GS-ROHF, GS-ROCIS                             
  Yang Guo               : DLPNO-NEVPT2, F12-NEVPT2, CIM, IAO-localization        
  Andreas Hansen         : Spin unrestricted coupled pair/coupled cluster methods 
  Ingolf Harden          : AUTO-CI MPn and infrastructure                
  Benjamin Helmich-Paris : MC-RPA, TRAH-(SCF,CASSCF), AVAS, COSX integrals, SCF dyn. polar., MC-PDFT, srDFT 
  Lee Huntington         : MR-EOM, pCC                                   
  Robert Izsak           : Overlap fitted RIJCOSX, COSX-SCS-MP3, EOM     
  Riya Kayal             : Wick's Theorem for AUTO-CI, AUTO-CI UHF-CCSDT 
  Emily Kempfer          : AUTO-CI RHF CISDT and CCSDT, approximate NEVPT4
  Christian Kollmar      : KDIIS, OOCD, Brueckner-CCSD(T), CCSD density, CASPT2, CASPT2-K, improved NEVPT2 
  Axel Koslowski         : Symmetry handling                             
  Simone Kossmann        : meta-GGA functionals, TD-DFT gradient, OOMP2, (MP2 Hessian; deprecated post 5.0) 
  Lucas Lang             : DCDCAS, Hyperfine gauge corrections, ICE-SOC+SSC
  Marvin Lechner         : AUTO-CI (C++ implementation), FIC-MRCC        
  Spencer Leger          : CASSCF response                               
  Dagmar Lenk            : GEPOL surface, SMD, ORCA-2-JSON               
  Dimitrios Liakos       : Extrapolation schemes; Compound Job, Property file
  Dimitrios Manganas     : Further ROCIS development; embedding schemes. LFT, Crystal Embedding 
  Dimitrios Pantazis     : SARC Basis sets                               
  Anastasios Papadopoulos: AUTO-CI, single reference methods and gradients 
  Taras Petrenko         : pre 6.0 DFT Hessian and TD-DFT gradient,  ECA, NRVS 
  Petra Pikulova         : Analytic Raman intensities                    
  Peter Pinski           : DLPNO-MP2, DLPNO-MP2 Gradient                 
  Shashank Vittal Rao    : ES-AILFT, MagRelax                            
  Christoph Reimann      : Effective Core Potentials                     
  Marius Retegan         : Local ZFS, SOC                                
  Christoph Riplinger    : Optimizer, TS searches, QM/MM, DLPNO-CCSD(T), (RO)-DLPNO pert. Triples 
  Michael Roemelt        : Original ROCIS implementation, recursive CI coupling coefficients
  Masaaki Saitow         : Open-shell DLPNO-CCSD energy and density      
  Barbara Sandhoefer     : DKH picture change effects                    
  Yorick L. A. Schmerwitz: GMF and freeze-and-release deltaSCF, NEB S-IDPP initial path                    
  Kantharuban Sivalingam : CASSCF convergence/infrastructure, NEVPT2, NEVPT3, NEVPT4(SD), FIC-MRCI and CEPA variants
  Bernardo de Souza      : ESD, SOC TD-DFT                               
  Georgi L. Stoychev     : AutoAux, RI-MP2 NMR, DLPNO-MP2 response, X2C  
  Van Anh Tran           : RI-MP2 g-tensors                              
  Willem Van den Heuvel  : Paramagnetic NMR                              
  Zikuan Wang            : NOTCH, Electric field optimization            
  Frank Wennmohs         : Technical directorship and infrastructure     
  Hang Xu                : AUTO-CI-Response properties                   
                                                                         
[FACCTs GmbH]                                                            
  Markus Bursch, Nicolas Foglia, Miquel Garcia-Rates, Ingolf Harden, Hagen Neugebauer, Anastasios Papadopoulos, 
  Christoph Riplinger, Bernardo de Souza, Georgi L. Stoychev                                                    
                                                                 
  APM, various basis sets, CI-OPT, improved COSX, DLPNO-Multilevel,           
  DOCKER, DRACO, updates on ESD, Fragmentator, GOAT, IRC, LR-CPCM, L-BFGS, MBIS, meta-GGA TD-DFT gradient, ML-optimized integration grids, 
  MM, NACMEs, nearIR, NEB, NEB-TS, NL-DFT gradient (VV10), 2- and 3-layer-ONIOM, interface openCOSMO-RS, QMMM,   
  Crystal-QMMM, RESP, rigid body optimization, SF, symmetry and pop. for TD-DFT, various functionals, SOLVATOR                                   
                                                                         
[Other institutions]                                                     
  V. Asgeirsson          : NEB                                           
  Christoph Bannwarth    : sTDA-DFT, sTD-DFT, PBEh-3c, B97-3c, D3        
  Giovanni Bistoni       : ETS/NOCV, ADLD/ADEX, COVALED                  
  Martin Brehm           : Molecular dynamics                            
  Ronald Cardenas        : ETS/NOCV                                      
  Martina Colucci        : COVALED                                       
  Sebastian Ehlert       : rSCAN, r2SCAN, r2SCAN-3c, D4, dhf basis sets  
  Marvin Friede          : D4 for Fr, Ra, Ac-Lr                          
  Lars Goerigk           : TD-DFT with DH, B97 family of functionals     
  Stefan Grimme          : VdW corrections, initial TS optimization, DFT functionals, gCP, sTDA/sTD-DF 
  Waldemar Hujo          : DFT-NL                                        
  H. Jonsson             : NEB                                           
  Holger Kruse           : gCP                                           
  Marcel Mueller         : wB97X-3c, vDZP basis set                      
  Hagen Neugebauer       : wr2SCAN, Native XTB                           
  Gianluca Regni         : ADLD/ADEX                                     
  Tobias Risthaus        : pre 6.0 range-separated hybrid DFT and stability analysis
  Lukas Wittmann         : regularized MP2, r2SCAN double-hybrids, wr2SCAN        
                                                                         
We gratefully acknowledge several colleagues who have allowed us to      
interface, adapt or use parts of their codes:                            
  Ed Valeev, F. Pavosevic, A. Kumar             : LibInt (2-el integral package), F12 methods 
  Garnet Chan, S. Sharma, J. Yang, R. Olivares  : DMRG                   
  Ulf Ekstrom                                   : XCFun DFT Library      
  Mihaly Kallay                                 : mrcc  (arbitrary order and MRCC methods)
  Frank Weinhold                                : gennbo (NPA and NBO analysis)           
  Simon Mueller                                 : openCOSMO-RS                            
  Christopher J. Cramer and Donald G. Truhlar   : smd solvation model                     
  S Lehtola, MJT Oliveira, MAL Marques          : LibXC Library                           
  Liviu Ungur et al                             : ANISO software                          


 Your calculation uses the libint2 library for the computation of 2-el integrals
 For citations please refer to: http://libint.valeyev.net

 Your ORCA version has been built with support for libXC version: 7.0.0
 For citations please refer to: https://libxc.gitlab.io

 This ORCA versions uses:
   CBLAS   interface :  Fast vector & matrix operations
   LAPACKE interface :  Fast linear algebra routines
   SCALAPACK package :  Parallel linear algebra routines
   Shared memory     :  Shared parallel matrices
   BLAS/LAPACK       :  OpenBLAS 0.3.29  USE64BITINT DYNAMIC_ARCH NO_AFFINITY Cooperlake SINGLE_THREADED
        Core in use  :  Cooperlake
   Copyright (c) 2011-2014, The OpenBLAS Project


  ***********************************
  * Starting time: Wed May 20 12:40:34 2026
  * Host name:     c1-33
  * Process ID:    681245
  * Working dir.:  /cluster/projects/nn14654k/ylvaos/basis_set_n_funcs/functionals/gga_c_N12/SiH2/out
  ***********************************

Using LibXC functional ID  80 : Minnesota N12 correlation functional
[ 1]  R. Peverati and D. G. Truhlar.,  J. Chem. Theory Comput. 8, 2310 (2012)
Using LibXC functional ID  80 : Minnesota N12 correlation functional
[ 1]  R. Peverati and D. G. Truhlar.,  J. Chem. Theory Comput. 8, 2310 (2012)
Your calculation utilizes LibXC
by S. Lehtola, C. Steigemann, M. J. T. Oliveira & M. A. L. Marques
Please cite in your paper:
Lehtola, S.; Steigemann, C.; Oliveira, M.J.T.; Marques, M. A. L. Software X, 7, (2018), 1.
   

================================================================================

----- Orbital basis set information -----
Your calculation utilizes the basis: def2-SVP
   F. Weigend and R. Ahlrichs, Phys. Chem. Chem. Phys. 7, 3297 (2005).

================================================================================
                                        WARNINGS
                       Please study these warnings very carefully!
================================================================================


================================================================================
                                       INPUT FILE
================================================================================
NAME = /cluster/projects/nn14654k/ylvaos/basis_set_n_funcs/functionals/gga_c_N12/SiH2/inp/SiH2_gga_c_N12_def2svp.inp
|  1> ! dft def2-SVP TightSCF
|  2> %pal nprocs 8 end
|  3> 
|  4> %loc
|  5>   LocMet NewBoys
|  6>   Occ true
|  7> end
|  8> 
|  9> %method
| 10>   exchange None
| 11>   correlation gga_c_N12
| 12> end
| 13> 
| 14> %elprop
| 15>   Dipole true
| 16>   Quadrupole true
| 17> end
| 18> 
| 19> * xyz 0 1
| 20> Si    0.000000000000   0.000000000000   0.000000000000
| 21> H    0.000000000000   0.000000000000  -1.514100000000
| 22> H    0.000000000000   1.513200000000   0.052800000000
| 23> *
| 24> 
| 25> 
| 26>                          ****END OF INPUT****
================================================================================

                       ****************************
                       * Single Point Calculation *
                       ****************************

---------------------------------
CARTESIAN COORDINATES (ANGSTROEM)
---------------------------------
  Si     0.000000    0.000000    0.000000
  H      0.000000    0.000000   -1.514100
  H      0.000000    1.513200    0.052800

----------------------------
CARTESIAN COORDINATES (A.U.)
----------------------------
  NO LB      ZA    FRAG     MASS         X           Y           Z
   0 Si   14.0000    0    28.086    0.000000    0.000000    0.000000
   1 H     1.0000    0     1.008    0.000000    0.000000   -2.861234
   2 H     1.0000    0     1.008    0.000000    2.859534    0.099778

--------------------------------
INTERNAL COORDINATES (ANGSTROEM)
--------------------------------
 Si     0   0   0     0.000000000000     0.00000000     0.00000000
 H      1   0   0     1.514100000000     0.00000000     0.00000000
 H      1   2   0     1.514120893456    91.99840755     0.00000000

---------------------------
INTERNAL COORDINATES (A.U.)
---------------------------
 Si     0   0   0     0.000000000000     0.00000000     0.00000000
 H      1   0   0     2.861234339370     0.00000000     0.00000000
 H      1   2   0     2.861273822280    91.99840755     0.00000000

---------------------
BASIS SET INFORMATION
---------------------
There are 2 groups of distinct atoms

 Group   1 Type Si  : 10s7p1d contracted to 4s3p1d pattern {5311/511/1}
 Group   2 Type H   : 4s1p contracted to 2s1p pattern {31/1}

Atom   0Si   basis set group =>   1
Atom   1H    basis set group =>   2
Atom   2H    basis set group =>   2


           ************************************************************
           *        Program running with 8 parallel MPI-processes     *
           *              working on a common directory               *
           ************************************************************
------------------------------------------------------------------------------
                             ORCA STARTUP CALCULATIONS
------------------------------------------------------------------------------
------------------------------------------------------------------------------
                   ___                                                        
                  /   \      - P O W E R E D   B Y -                         
                 /     \                                                     
                 |  |  |   _    _      __       _____    __    __             
                 |  |  |  | |  | |    /  \     |  _  \  |  |  /  |          
                  \  \/   | |  | |   /    \    | | | |  |  | /  /          
                 / \  \   | |__| |  /  /\  \   | |_| |  |  |/  /          
                |  |  |   |  __  | /  /__\  \  |    /   |      \           
                |  |  |   | |  | | |   __   |  |    \   |  |\   \          
                \     /   | |  | | |  |  |  |  | |\  \  |  | \   \       
                 \___/    |_|  |_| |__|  |__|  |_| \__\ |__|  \__/        
                                                                              
                      - O R C A' S   B I G   F R I E N D -                    
                                      &                                       
                       - I N T E G R A L  F E E D E R -                       
                                                                              
 v1 FN, 2020, v2 2021, v3 2022-2024                                           
------------------------------------------------------------------------------


----------------------
SHARK INTEGRAL PACKAGE
----------------------

Number of atoms                             ...      3
Number of basis functions                   ...     28
Number of shells                            ...     14
Maximum angular momentum                    ...      2
Integral batch strategy                     ... SHARK/LIBINT Hybrid
RI-J (if used) integral strategy            ... SPLIT-RIJ (Revised 2003 algorithm where possible)
Printlevel                                  ...      1
Contraction scheme used                     ... SEGMENTED contraction
Prescreening option                         ... SCHWARTZ
   Thresh                                   ... 2.500e-11
   Tcut                                     ... 2.500e-12
   Tpresel                                  ... 2.500e-12 
Coulomb Range Separation                    ... NOT USED
Exchange Range Separation                   ... NOT USED
Multipole approximations                    ... NOT USED
Finite Nucleus Model                        ... NOT USED
CABS basis                                  ... NOT available
Auxiliary Coulomb fitting basis             ... NOT available
Auxiliary J/K fitting basis                 ... NOT available
Auxiliary Correlation fitting basis         ... NOT available
Auxiliary 'external' fitting basis          ... NOT available

Checking pre-screening integrals            ... done (  0.0 sec) Dimension = 14
   => SHARK Basis and OBASIS are compatible. Storing Pre-screening
Shell pair information
Shell pair cut-off parameter TPreSel        ...   2.5e-12
Total number of shell pairs                 ...       105
Shell pairs after pre-screening             ...       105
Total number of primitive shell pairs       ...       435
Primitive shell pairs kept                  ...       414
          la=0 lb=0:     36 shell pairs
          la=1 lb=0:     40 shell pairs
          la=1 lb=1:     15 shell pairs
          la=2 lb=0:      8 shell pairs
          la=2 lb=1:      5 shell pairs
          la=2 lb=2:      1 shell pairs

Checking whether 4 symmetric matrices of dimension 28 fit in memory
:Max Core in MB      =   4096.00
 MB in use           =      1.30
 MB left             =   4094.70
 MB needed           =      0.01
 Data fit in memory  = YES
Calculating Nuclear repulsion               ... done (  0.0 sec) ENN=     10.028851096195 Eh

Diagonalization of the overlap matrix:
Smallest eigenvalue                        ... 2.585e-02
Time for diagonalization                   ...    0.000 sec
Threshold for overlap eigenvalues          ... 1.000e-07
Number of eigenvalues below threshold      ... 0
Time for construction of square roots      ...    0.002 sec
Total time needed                          ...    0.004 sec

-------------------
DFT GRID GENERATION
-------------------

General Integration Accuracy     IntAcc      ... 4.388
Radial Grid Type                 RadialGrid  ... OptM3 with GC (2021)
Angular Grid (max. ang.)         AngularGrid ... 4 (Lebedev-302)
Angular grid pruning method      GridPruning ... 4 (adaptive)
Weight generation scheme         WeightScheme... mBecke (2022)
Basis function cutoff            BFCut       ... 1.0000e-11
Integration weight cutoff        WCut        ... 1.0000e-14
Partially contracted basis set               ... off
Rotationally invariant grid construction     ... off
Angular grids for H and He will be reduced by one unit

Total number of grid points                  ...    13986
Total number of batches                      ...      220
Average number of points per batch           ...       63
Average number of grid points per atom       ...     4662
Grids setup in   0.0 sec
Initializing property integral containers    ... done (  0.0 sec)

SHARK setup successfully completed in   0.1 seconds

Maximum memory used throughout the entire STARTUP-calculation: 6.8 MB


           ************************************************************
           *        Program running with 8 parallel MPI-processes     *
           *              working on a common directory               *
           ************************************************************
-------------------------------------------------------------------------------
                                 ORCA GUESS
                   Start orbitals & Density for SCF / CASSCF
-------------------------------------------------------------------------------

------------
SCF SETTINGS
------------
Hamiltonian:
 Density Functional     Method          .... DFT(GTOs)
 Exchange Functional    Exchange        .... no Exchange
  Functional kind                       .... Correlation
  Functional name                       .... Minnesota N12 correlation functional
  Functional family                     .... GGA
  Functional refs                              
    [ 0] R. Peverati and D. G. Truhlar.,  J. Chem. Theory Comput. 8, 2310 (2012), doi: 10.1021/ct3002656
  Functional external parameters        .... 10
    Parameter  0 _css0      =  1.000000e+00 : u^0 coefficient for same-spin correlation
    Parameter  1 _css1      = -5.531700e+00 : u^1 coefficient for same-spin correlation
    Parameter  2 _css2      =  3.079580e+01 : u^2 coefficient for same-spin correlation
    Parameter  3 _css3      = -5.641960e+01 : u^3 coefficient for same-spin correlation
    Parameter  4 _css4      =  3.212500e+01 : u^4 coefficient for same-spin correlation
    Parameter  5 _cos0      =  1.000000e+00 : u^0 coefficient for opposite-spin correlation
    Parameter  6 _cos1      =  3.245110e+00 : u^1 coefficient for opposite-spin correlation
    Parameter  7 _cos2      = -2.528930e+01 : u^2 coefficient for opposite-spin correlation
    Parameter  8 _cos3      =  1.444070e+01 : u^3 coefficient for opposite-spin correlation
    Parameter  9 _cos4      =  1.968700e+01 : u^4 coefficient for opposite-spin correlation
 Gradients option       PostSCFGGA      .... off


General Settings:
 Integral files         IntName         .... /cluster/projects/nn14654k/ylvaos/basis_set_n_funcs/functionals/gga_c_N12/SiH2/inp/SiH2_gga_c_N12_def2svp
 Hartree-Fock type      HFTyp           .... RHF
 Total Charge           Charge          ....    0
 Multiplicity           Mult            ....    1
 Number of Electrons    NEL             ....   16
 Basis Dimension        Dim             ....   28
 Nuclear Repulsion      ENuc            ....     10.0288510962 Eh

Convergence Acceleration:
 AO-DIIS                CNVDIIS         .... on
   Start iteration      DIISMaxIt       ....    12
   Startup error        DIISStart       ....  0.200000
   # of expansion vecs  DIISMaxEq       ....     5
   Bias factor          DIISBfac        ....   1.050
   Max. coefficient     DIISMaxC        ....  10.000
 MO-DIIS                CNVKDIIS        .... off
 Trust-Rad. Augm. Hess. CNVTRAH         .... auto
   Auto Start mean grad. ratio tolernc. ....  1.125000
   Auto Start start iteration           ....    50
   Auto Start num. interpolation iter.  ....    10
   Max. Number of Micro iterations      ....    24
   Max. Number of Macro iterations      .... Maxiter - #DIIS iter
   Number of Davidson start vectors     ....     2
   Converg. threshold    (grad. norm)   ....   1.000e-05
   Grad. Scal. Fac. for Micro threshold ....   0.100
   Minimum threshold for Micro iter.    ....   1.000e-02
   NR start threshold (gradient norm)   ....   1.000e-04
   Initial trust radius                 ....   0.400
   Minimum AH scaling param. (alpha)    ....   1.000
   Maximum AH scaling param. (alpha)    .... 1000.000
   Quad. conv. algorithm                .... NR
   White noise on init. David. guess    .... on
   Maximum white noise                  ....   0.010
   Pseudo random numbers                .... off
   Inactive MOs                         .... canonical
   Orbital update algorithm             .... Taylor
   Preconditioner                       .... Diag
   Full preconditioner red. dimension   ....   250
 SOSCF                 CNVSOSCF           .... on
   Start iteration     SOSCFMaxIt         ....   150
   Startup grad/error  SOSCFStart         ....  0.003300
   Hessian update      SOSCFHessUp        .... L-BFGS
   Autom. constraints  SOSCFAutoConstrain .... off
 Level Shifting         CNVShift        .... on
   Level shift para.    LevelShift      ....    0.2500
   Turn off err/grad.   ShiftErr        ....    0.0010
 Zerner damping         CNVZerner       .... off
 Static damping         CNVDamp         .... on
   Fraction old density DampFac         ....    0.7000
   Max. Damping (<1)    DampMax         ....    0.9800
   Min. Damping (>=0)   DampMin         ....    0.0000
   Turn off err/grad.   DampErr         ....    0.1000

SCF Procedure:
 Maximum # iterations   MaxIter         ....   125
 SCF integral mode      SCFMode         .... Direct
   Integral package                     .... SHARK and LIBINT hybrid scheme
 Reset frequency        DirectResetFreq ....    20
 Integral Threshold     Thresh          ....  2.500e-11 Eh
 Primitive CutOff       TCut            ....  2.500e-12 Eh

Convergence Tolerance:
 Convergence Check Mode ConvCheckMode   .... Total+1el-Energy
 Convergence forced     ConvForced      .... 0
 Energy Change          TolE            ....  1.000e-08 Eh
 1-El. energy change                    ....  1.000e-05 Eh
 Orbital Gradient       TolG            ....  1.000e-05
 Orbital Rotation angle TolX            ....  1.000e-05
 DIIS Error             TolErr          ....  5.000e-07

------------------------------
INITIAL GUESS: MODEL POTENTIAL
------------------------------
Loading Hartree-Fock densities                     ... done
Calculating cut-offs                               ... done
Initializing the effective Hamiltonian             ... done
Setting up the integral package (SHARK)            ... done
Starting the Coulomb interaction                   ... done (   0.0 sec)
Making the grid                                    ... done (   0.0 sec)
Mapping shells                                     ... done
Starting the XC term evaluation                    ... done (   0.0 sec)
  promolecular density results
     # of electrons  =     16.000308591
     EX              =      0.000000000
     EC              =     -0.952101321
     EX+EC           =     -0.952101321
Transforming the Hamiltonian                       ... done (   0.0 sec)
Diagonalizing the Hamiltonian                      ... done (   0.0 sec)
Back transforming the eigenvectors                 ... done (   0.0 sec)
Now organizing SCF variables                       ... done
                      ------------------
                      INITIAL GUESS DONE (   0.0 sec)
                      ------------------
             **** ENERGY FILE WAS UPDATED (/cluster/projects/nn14654k/ylvaos/basis_set_n_funcs/functionals/gga_c_N12/SiH2/inp/SiH2_gga_c_N12_def2svp.en.tmp) ****
Finished Guess after   0.2 sec
Maximum memory used throughout the entire GUESS-calculation: 3.5 MB


           ************************************************************
           *        Program running with 8 parallel MPI-processes     *
           *              working on a common directory               *
           ************************************************************

-------------------------------------------------------------------------------------------
                                      ORCA LEAN-SCF
                              memory conserving SCF solver
-------------------------------------------------------------------------------------------

----------------------------------------D-I-I-S--------------------------------------------
Iteration    Energy (Eh)           Delta-E    RMSDP     MaxDP     DIISErr   Damp  Time(sec)
-------------------------------------------------------------------------------------------
               ***  Starting incremental Fock matrix formation  ***
    1    -270.0748172316889395     0.00e+00  7.50e-02  3.68e-01  4.48e-01  0.700   0.1
Warning: op=0 Small HOMO/LUMO gap (   0.004) - skipping pre-diagonalization
         Will do a full diagonalization
    2    -270.1536647819725658    -7.88e-02  6.02e-02  2.93e-01  2.41e-01  0.700   0.1
                               ***Turning on AO-DIIS***
    3    -270.1886021710388945    -3.49e-02  2.23e-02  8.73e-02  1.15e-01  0.700   0.1
    4    -270.2083271831050979    -1.97e-02  1.11e-02  4.89e-02  6.98e-02  0.700   0.1
    5    -270.2212213225342907    -1.29e-02  2.53e-02  9.52e-02  4.60e-02  0.000   0.1
    6    -270.2500686445961264    -2.88e-02  1.99e-03  4.97e-03  3.87e-03  0.000   0.2
                              *** Initializing SOSCF ***
---------------------------------------S-O-S-C-F--------------------------------------
Iteration    Energy (Eh)           Delta-E    RMSDP     MaxDP     MaxGrad    Time(sec)
--------------------------------------------------------------------------------------
    7    -270.2501052524384590    -3.66e-05  1.08e-03  4.62e-03  8.62e-04     0.2
               *** Restarting incremental Fock matrix formation ***
    8    -270.2501086577255478    -3.41e-06  7.07e-04  2.34e-03  1.95e-04     0.1
    9    -270.2501089576353479    -3.00e-07  1.17e-04  4.36e-04  8.25e-05     0.1
   10    -270.2501090008087772    -4.32e-08  4.53e-05  1.77e-04  2.18e-05     0.1
   11    -270.2501090062532398    -5.44e-09  8.30e-06  1.84e-05  6.95e-06     0.1
                 **** Energy Check signals convergence ****

               *****************************************************
               *                     SUCCESS                       *
               *           SCF CONVERGED AFTER  11 CYCLES          *
               *****************************************************

             **** ENERGY FILE WAS UPDATED (/cluster/projects/nn14654k/ylvaos/basis_set_n_funcs/functionals/gga_c_N12/SiH2/inp/SiH2_gga_c_N12_def2svp.en.tmp) ****

----------------
TOTAL SCF ENERGY
----------------

Total Energy       :       -270.25010900654041 Eh           -7353.87933 eV

Components:
Nuclear Repulsion  :         10.02885109619548 Eh             272.89891 eV
Electronic Energy  :       -280.27896010273588 Eh           -7626.77824 eV
One Electron Energy:       -415.14826700176417 Eh          -11296.75866 eV
Two Electron Energy:        134.86930689902829 Eh            3669.98042 eV

Virial components:
Potential Energy   :       -552.44360073468295 Eh          -15032.75463 eV
Kinetic Energy     :        282.19349172814253 Eh            7678.87530 eV
Virial Ratio       :          1.95767661880343

DFT components:
N(Alpha)           :        8.000001977704 electrons
N(Beta)            :        8.000001977704 electrons
N(Total)           :       16.000003955408 electrons
E(X)               :        0.000000000000 Eh       
E(C)               :       -0.936314428781 Eh       
E(XC)              :       -0.936314428781 Eh       

---------------
SCF CONVERGENCE
---------------

  Last Energy change         ...    5.4445e-09  Tolerance :   1.0000e-08
  Last MAX-Density change    ...    1.8440e-05  Tolerance :   1.0000e-07
  Last RMS-Density change    ...    8.2979e-06  Tolerance :   5.0000e-09
  Last DIIS Error            ...    8.6170e-04  Tolerance :   5.0000e-07
  Last Orbital Gradient      ...    6.9505e-06  Tolerance :   1.0000e-05
  Last Orbital Rotation      ...    6.1039e-06  Tolerance :   1.0000e-05


----------------
ORBITAL ENERGIES
----------------

  NO   OCC          E(Eh)            E(eV) 
   0   2.0000     -60.830627     -1655.2855 
   1   2.0000      -3.962727      -107.8313 
   2   2.0000      -2.432821       -66.2004 
   3   2.0000      -2.422673       -65.9243 
   4   2.0000      -2.419698       -65.8433 
   5   2.0000      -0.215605        -5.8669 
   6   2.0000      -0.052288        -1.4228 
   7   2.0000       0.009650         0.2626 
   8   0.0000       0.023827         0.6484 
   9   0.0000       0.190461         5.1827 
  10   0.0000       0.229346         6.2408 
  11   0.0000       0.307616         8.3707 
  12   0.0000       0.475391        12.9360 
  13   0.0000       0.520949        14.1757 
  14   0.0000       0.571212        15.5435 
  15   0.0000       0.580592        15.7987 
  16   0.0000       0.592092        16.1116 
  17   0.0000       0.599265        16.3068 
  18   0.0000       0.686589        18.6830 
*Only the first 10 virtual orbitals were printed.

                    ********************************
                    * MULLIKEN POPULATION ANALYSIS *
                    ********************************

-----------------------
MULLIKEN ATOMIC CHARGES
-----------------------
   0 Si:   -0.039058
   1 H :    0.019533
   2 H :    0.019525
Sum of atomic charges:    0.0000000

--------------------------------
MULLIKEN REDUCED ORBITAL CHARGES
--------------------------------
  0 Sis       :     6.013495  s :     6.013495
      pz      :     2.983506  p :     7.974541
      px      :     2.000136
      py      :     2.990899
      dz2     :     0.030726  d :     0.051023
      dxz     :     0.000004
      dyz     :     0.001538
      dx2y2   :     0.018750
      dxy     :     0.000005

  1 H s       :     0.976139  s :     0.976139
      pz      :     0.002766  p :     0.004328
      px      :    -0.000073
      py      :     0.001635

  2 H s       :     0.976147  s :     0.976147
      pz      :     0.001626  p :     0.004328
      px      :    -0.000073
      py      :     0.002775



                     *******************************
                     * LOEWDIN POPULATION ANALYSIS *
                     *******************************

----------------------
LOEWDIN ATOMIC CHARGES
----------------------
   0 Si:    0.129270
   1 H :   -0.064634
   2 H :   -0.064636

-------------------------------
LOEWDIN REDUCED ORBITAL CHARGES
-------------------------------
  0 Sis       :     5.577288  s :     5.577288
      pz      :     3.101990  p :     8.216540
      px      :     1.999988
      py      :     3.114562
      dz2     :     0.045022  d :     0.076901
      dxz     :     0.000005
      dyz     :     0.001132
      dx2y2   :     0.030736
      dxy     :     0.000006

  1 H s       :     1.041838  s :     1.041838
      pz      :     0.016988  p :     0.022797
      px      :     0.000000
      py      :     0.005808

  2 H s       :     1.041840  s :     1.041840
      pz      :     0.005712  p :     0.022796
      px      :     0.000000
      py      :     0.017084



                      *****************************
                      * MAYER POPULATION ANALYSIS *
                      *****************************

  NA   - Mulliken gross atomic population
  ZA   - Total nuclear charge
  QA   - Mulliken gross atomic charge
  VA   - Mayer's total valence
  BVA  - Mayer's bonded valence
  FA   - Mayer's free valence

  ATOM       NA         ZA         QA         VA         BVA        FA
  0 Si    14.0391    14.0000    -0.0391     1.8203     1.8203     0.0000
  1 H      0.9805     1.0000     0.0195     0.9115     0.9115    -0.0000
  2 H      0.9805     1.0000     0.0195     0.9115     0.9115    -0.0000

  Mayer bond orders larger than 0.100000
B(  0-Si,  1-H ) :   0.9102 B(  0-Si,  2-H ) :   0.9102 

-------
TIMINGS
-------

Total SCF time: 0 days 0 hours 0 min 1 sec 

Total time                  ....       1.335 sec
Sum of individual times     ....       1.253 sec  ( 93.9%)

SCF preparation             ....       0.060 sec  (  4.5%)
Fock matrix formation       ....       0.671 sec  ( 50.3%)
  Startup                   ....       0.016 sec  (  2.3% of F)
  Coulomb formation         ....       0.027 sec  (  4.1% of F)
  XC integration            ....       0.450 sec  ( 67.2% of F)
    XC Preparation          ....       0.000 sec  (  0.0% of XC)
    Basis function eval.    ....       0.008 sec  (  1.9% of XC)
    Density eval.           ....       0.003 sec  (  0.6% of XC)
    XC-Functional eval.     ....       0.015 sec  (  3.2% of XC)
    XC-Potential eval.      ....       0.003 sec  (  0.7% of XC)
Diagonalization             ....       0.000 sec  (  0.0%)
Density matrix formation    ....       0.106 sec  (  7.9%)
Total Energy calculation    ....       0.023 sec  (  1.7%)
Population analysis         ....       0.014 sec  (  1.1%)
Orbital Transformation      ....       0.011 sec  (  0.8%)
Orbital Orthonormalization  ....       0.000 sec  (  0.0%)
DIIS solution               ....       0.327 sec  ( 24.5%)
SOSCF solution              ....       0.041 sec  (  3.1%)
Finished LeanSCF after   1.4 sec

Maximum memory used throughout the entire LEANSCF-calculation: 6.1 MB


           ************************************************************
           *        Program running with 8 parallel MPI-processes     *
           *              working on a common directory               *
           ************************************************************

------------------------------------------------------------------------------
                         ORCA PROPERTY INTEGRAL CALCULATIONS
------------------------------------------------------------------------------

GBWName                                   ... /cluster/projects/nn14654k/ylvaos/basis_set_n_funcs/functionals/gga_c_N12/SiH2/inp/SiH2_gga_c_N12_def2svp.gbw
Number of atoms                           ...      3
Number of basis functions                 ...     28
Max core memory                           ...   4096 MB

Dipole integrals                          ... YES
Quadrupole integrals                      ... YES
Linear momentum integrals                 ...  NO
Angular momentum integrals                ...  NO
Higher moments length integrals           ...  NO
Higher moments velocity integrals         ...  NO
Kinetic energy integrals                  ...  NO
GIAO right hand sides                     ...  NO
GIAO dipole derivative integrals          ...  NO
SOC integrals                             ...  NO
EPR diamagnetic integrals (GIAO)          ...  NO
EPR gauge integrals                       ...  NO
Field gradient integrals                  ...  NO (   0 nuclei)
Spin-dipole/Fermi contact integrals       ...  NO (   0 nuclei)
Contact density integrals                 ...  NO (   0 nuclei)
Nucleus-orbit integrals                   ...  NO (   0 nuclei)
Geometric perturbations                   ...  NO (   3 nuclei)

Choice of electric origin   ... Center of mass
Position of electric origin ... (  0.0000,  0.0958, -0.0925) 
Choice of magnetic origin   ... GIAO
Position of magnetic origin ... (  0.0000,  0.0000,  0.0000) 

Calculating integrals                     ... Electric Dipole (Length)     done (  0.0 sec)
Calculating integrals                     ... Electric Quadrupole (Length) done (  0.0 sec)

Property integrals calculated in   0.0 sec

Maximum memory used throughout the entire PROPINT-calculation: 3.6 MB
------------------------------------------------------------------------------
                           ORCA ORBITAL LOCALIZATION
------------------------------------------------------------------------------

Input orbitals are from                  ... /cluster/projects/nn14654k/ylvaos/basis_set_n_funcs/functionals/gga_c_N12/SiH2/inp/SiH2_gga_c_N12_def2svp.gbw
Output orbitals are to                   ... /cluster/projects/nn14654k/ylvaos/basis_set_n_funcs/functionals/gga_c_N12/SiH2/inp/SiH2_gga_c_N12_def2svp.loc
Max. number of iterations                ... 128
Localizations seeded randomly            ... on
Convergence tolerance                    ... 1.000e-06
Threshold for strong local MOs           ... 9.500e-01
Threshold for bond MOs                   ... 8.500e-01
Operator                                 ... 0
Orbital range for localization           ... 1 to 7
Localization criterion                   ... NEW-BOYS
Doing the dipole integrals               ... o.k.
Initial value of the localization sum :     9.292108
ITERATION   0 : L=   11.1650597400 DL=  1.87e+00 (AVERGE_DL)=    0.2986438764 
ITERATION   1 : L=   11.2466116278 DL=  8.16e-02 (AVERGE_DL)=    0.0623171183 
ITERATION   2 : L=   11.2513410788 DL=  4.73e-03 (AVERGE_DL)=    0.0150070634 
ITERATION   3 : L=   11.2516492638 DL=  3.08e-04 (AVERGE_DL)=    0.0038308584 
ITERATION   4 : L=   11.2516668092 DL=  1.75e-05 (AVERGE_DL)=    0.0009140544 
ITERATION   5 : L=   11.2516789888 DL=  1.22e-05 (AVERGE_DL)=    0.0007615645 
ITERATION   6 : L=   11.2516877366 DL=  8.75e-06 (AVERGE_DL)=    0.0006454172 
ITERATION   7 : L=   11.2516971744 DL=  9.44e-06 (AVERGE_DL)=    0.0006703863 
ITERATION   8 : L=   11.2517066759 DL=  9.50e-06 (AVERGE_DL)=    0.0006726478 
ITERATION   9 : L=   11.2517165790 DL=  9.90e-06 (AVERGE_DL)=    0.0006867117 
ITERATION  10 : L=   11.2517269734 DL=  1.04e-05 (AVERGE_DL)=    0.0007035422 
ITERATION  11 : L=   11.2517380311 DL=  1.11e-05 (AVERGE_DL)=    0.0007256432 
ITERATION  12 : L=   11.2517499250 DL=  1.19e-05 (AVERGE_DL)=    0.0007525787 
ITERATION  13 : L=   11.2517628528 DL=  1.29e-05 (AVERGE_DL)=    0.0007846086 
ITERATION  14 : L=   11.2517770349 DL=  1.42e-05 (AVERGE_DL)=    0.0008217883 
ITERATION  15 : L=   11.2517927180 DL=  1.57e-05 (AVERGE_DL)=    0.0008641846 
ITERATION  16 : L=   11.2518101782 DL=  1.75e-05 (AVERGE_DL)=    0.0009118342 
ITERATION  17 : L=   11.2518297235 DL=  1.95e-05 (AVERGE_DL)=    0.0009647420 
ITERATION  18 : L=   11.2518516970 DL=  2.20e-05 (AVERGE_DL)=    0.0010229165 
ITERATION  19 : L=   11.2518764780 DL=  2.48e-05 (AVERGE_DL)=    0.0010862983 
ITERATION  20 : L=   11.2519044847 DL=  2.80e-05 (AVERGE_DL)=    0.0011548388 
ITERATION  21 : L=   11.2519361731 DL=  3.17e-05 (AVERGE_DL)=    0.0012284033 
ITERATION  22 : L=   11.2519720366 DL=  3.59e-05 (AVERGE_DL)=    0.0013068213 
ITERATION  23 : L=   11.2520126019 DL=  4.06e-05 (AVERGE_DL)=    0.0013898500 
ITERATION  24 : L=   11.2520584215 DL=  4.58e-05 (AVERGE_DL)=    0.0014771209 
ITERATION  25 : L=   11.2521100643 DL=  5.16e-05 (AVERGE_DL)=    0.0015681774 
ITERATION  26 : L=   11.2521681009 DL=  5.80e-05 (AVERGE_DL)=    0.0016624226 
ITERATION  27 : L=   11.2522330826 DL=  6.50e-05 (AVERGE_DL)=    0.0017590805 
ITERATION  28 : L=   11.2523055163 DL=  7.24e-05 (AVERGE_DL)=    0.0018572088 
ITERATION  29 : L=   11.2523858348 DL=  8.03e-05 (AVERGE_DL)=    0.0019556817 
ITERATION  30 : L=   11.2524743584 DL=  8.85e-05 (AVERGE_DL)=    0.0020531470 
ITERATION  31 : L=   11.2525712574 DL=  9.69e-05 (AVERGE_DL)=    0.0021480773 
ITERATION  32 : L=   11.2526765139 DL=  1.05e-04 (AVERGE_DL)=    0.0022387969 
ITERATION  33 : L=   11.2527898817 DL=  1.13e-04 (AVERGE_DL)=    0.0023234604 
ITERATION  34 : L=   11.2529108578 DL=  1.21e-04 (AVERGE_DL)=    0.0024001597 
ITERATION  35 : L=   11.2530386657 DL=  1.28e-04 (AVERGE_DL)=    0.0024670006 
ITERATION  36 : L=   11.2531722538 DL=  1.34e-04 (AVERGE_DL)=    0.0025221695 
ITERATION  37 : L=   11.2533103163 DL=  1.38e-04 (AVERGE_DL)=    0.0025640600 
ITERATION  38 : L=   11.2534513336 DL=  1.41e-04 (AVERGE_DL)=    0.0025913530 
ITERATION  39 : L=   11.2535936356 DL=  1.42e-04 (AVERGE_DL)=    0.0026031294 
ITERATION  40 : L=   11.2537354775 DL=  1.42e-04 (AVERGE_DL)=    0.0025989183 
ITERATION  41 : L=   11.2538751269 DL=  1.40e-04 (AVERGE_DL)=    0.0025787545 
ITERATION  42 : L=   11.2540109481 DL=  1.36e-04 (AVERGE_DL)=    0.0025431618 
ITERATION  43 : L=   11.2541414783 DL=  1.31e-04 (AVERGE_DL)=    0.0024931359 
ITERATION  44 : L=   11.2542654872 DL=  1.24e-04 (AVERGE_DL)=    0.0024300590 
ITERATION  45 : L=   11.2543820151 DL=  1.17e-04 (AVERGE_DL)=    0.0023556197 
ITERATION  46 : L=   11.2544903884 DL=  1.08e-04 (AVERGE_DL)=    0.0022717029 
ITERATION  47 : L=   11.2545902143 DL=  9.98e-05 (AVERGE_DL)=    0.0021802786 
ITERATION  48 : L=   11.2546813582 DL=  9.11e-05 (AVERGE_DL)=    0.0020833114 
ITERATION  49 : L=   11.2547639095 DL=  8.26e-05 (AVERGE_DL)=    0.0019826787 
ITERATION  50 : L=   11.2548381395 DL=  7.42e-05 (AVERGE_DL)=    0.0018800959 
ITERATION  51 : L=   11.2549044586 DL=  6.63e-05 (AVERGE_DL)=    0.0017770913 
ITERATION  52 : L=   11.2549633750 DL=  5.89e-05 (AVERGE_DL)=    0.0016749751 
ITERATION  53 : L=   11.2550154569 DL=  5.21e-05 (AVERGE_DL)=    0.0015748306 
ITERATION  54 : L=   11.2550613016 DL=  4.58e-05 (AVERGE_DL)=    0.0014775248 
ITERATION  55 : L=   11.2551015105 DL=  4.02e-05 (AVERGE_DL)=    0.0013837305 
ITERATION  56 : L=   11.2551366701 DL=  3.52e-05 (AVERGE_DL)=    0.0012939348 
ITERATION  57 : L=   11.2551673385 DL=  3.07e-05 (AVERGE_DL)=    0.0012084690 
ITERATION  58 : L=   11.2551940364 DL=  2.67e-05 (AVERGE_DL)=    0.0011275332 
ITERATION  59 : L=   11.2552172425 DL=  2.32e-05 (AVERGE_DL)=    0.0010512150 
ITERATION  60 : L=   11.2552373910 DL=  2.01e-05 (AVERGE_DL)=    0.0009795156 
ITERATION  61 : L=   11.2552548717 DL=  1.75e-05 (AVERGE_DL)=    0.0009123669 
ITERATION  62 : L=   11.2552700315 DL=  1.52e-05 (AVERGE_DL)=    0.0008496445 
ITERATION  63 : L=   11.2552831772 DL=  1.31e-05 (AVERGE_DL)=    0.0007911944 
ITERATION  64 : L=   11.2552945781 DL=  1.14e-05 (AVERGE_DL)=    0.0007368159 
ITERATION  65 : L=   11.2553044696 DL=  9.89e-06 (AVERGE_DL)=    0.0006863111 
ITERATION  66 : L=   11.2553130567 DL=  8.59e-06 (AVERGE_DL)=    0.0006394622 
ITERATION  67 : L=   11.2553205170 DL=  7.46e-06 (AVERGE_DL)=    0.0005960294 
ITERATION  68 : L=   11.2553270046 DL=  6.49e-06 (AVERGE_DL)=    0.0005558202 
ITERATION  69 : L=   11.2553326521 DL=  5.65e-06 (AVERGE_DL)=    0.0005185811 
ITERATION  70 : L=   11.2553375741 DL=  4.92e-06 (AVERGE_DL)=    0.0004841301 
ITERATION  71 : L=   11.2553418690 DL=  4.29e-06 (AVERGE_DL)=    0.0004522374 
ITERATION  72 : L=   11.2553456218 DL=  3.75e-06 (AVERGE_DL)=    0.0004227320 
ITERATION  73 : L=   11.2553489050 DL=  3.28e-06 (AVERGE_DL)=    0.0003954047 
ITERATION  74 : L=   11.2553517816 DL=  2.88e-06 (AVERGE_DL)=    0.0003701120 
ITERATION  75 : L=   11.2553543054 DL=  2.52e-06 (AVERGE_DL)=    0.0003466652 
ITERATION  76 : L=   11.2553565226 DL=  2.22e-06 (AVERGE_DL)=    0.0003249333 
ITERATION  77 : L=   11.2553584730 DL=  1.95e-06 (AVERGE_DL)=    0.0003047602 
ITERATION  78 : L=   11.2553601911 DL=  1.72e-06 (AVERGE_DL)=    0.0002860320 
ITERATION  79 : L=   11.2553617065 DL=  1.52e-06 (AVERGE_DL)=    0.0002686231 
ITERATION  80 : L=   11.2553630446 DL=  1.34e-06 (AVERGE_DL)=    0.0002524269 
ITERATION  81 : L=   11.2553642277 DL=  1.18e-06 (AVERGE_DL)=    0.0002373643 
ITERATION  82 : L=   11.2553652750 DL=  1.05e-06 (AVERGE_DL)=    0.0002233102 
ITERATION  83 : L=   11.2553662026 DL=  9.28e-07 (AVERGE_DL)=    0.0002101696 
LOCALIZATION SUM CONVERGED


--------------------------------------------------------------------------------
                    LOCALIZED MOLECULAR ORBITAL COMPOSITIONS
--------------------------------------------------------------------------------

The Mulliken populations for each LMO on each atom are computed
The LMO`s will be ordered according to atom index and type
  (A) Strongly localized MO`s have populations of >=0.950 on one atom
  (B) Two center bond orbitals have populations of >=0.850 on two atoms
  (C) Other MO`s are considered to be `delocalized`

FOUND  -   5 strongly local MO`s
       -   2 two center bond MO`s
       -   0 significantly delocalized MO`s

Rather strongly localized orbitals:
MO   5:   0Si -   1.049761
MO   4:   0Si -   1.000988
MO   3:   0Si -   1.002497
MO   2:   0Si -   1.001747
MO   1:   0Si -   0.998519
Bond-like localized orbitals:
MO   7:   2H  -   0.529423  and   0Si -   0.482998
MO   6:   1H  -   0.529418  and   0Si -   0.483001
Localized MO's were stored in: /cluster/projects/nn14654k/ylvaos/basis_set_n_funcs/functionals/gga_c_N12/SiH2/inp/SiH2_gga_c_N12_def2svp.loc

-------------------------   --------------------
FINAL SINGLE POINT ENERGY      -270.250109006540
-------------------------   --------------------



           ************************************************************
           *        Program running with 8 parallel MPI-processes     *
           *              working on a common directory               *
           ************************************************************

------------------------------------------------------------------------------
                              ORCA PROPERTY CALCULATIONS
------------------------------------------------------------------------------

GBWName                                 ... /cluster/projects/nn14654k/ylvaos/basis_set_n_funcs/functionals/gga_c_N12/SiH2/inp/SiH2_gga_c_N12_def2svp.gbw
Number of atoms                         ...      3
Number of basis functions               ...     28
Max core memory                         ...   4096 MB

Electric properties:
Dipole moment                           ... YES
Quadrupole moment                       ... YES
Static polarizability (Dipole/Dipole)   ...  NO
Static polarizability (Dipole/Quad.)    ...  NO
Static polarizability (Quad./Quad.)     ...  NO
Static polarizability (Velocity)        ...  NO
Static hyperpolarizability              ...  NO

Atomic electric properties:
Dipole moment                           ...  NO
Quadrupole moment                       ...  NO
Static polarizability                   ...  NO

Choice of electric origin               ... Center of mass
Position of electric origin             ...     0.000000     0.095755    -0.092471

General magnetic properties:
Magnetizability                         ...  NO

EPR properties:
g-Tensor (aka g-matrix)                 ...  NO
Zero-Field splitting spin-orbit         ...  NO
Zero-field splitting spin-spin          ...  NO
Hyperfine couplings                     ...  NO (   0 nuclei)
Quadrupole couplings                    ...  NO (   0 nuclei)
Contact density                         ...  NO (   0 nuclei)

NMR properties:
Chemical shifts                         ...  NO (   0 nuclei)
Spin-rotation constants                 ...  NO (   0 nuclei)
Spin-spin couplings                     ...  NO (   0 nuclei,    0 pairs)

Choice of magnetic origin               ... GIAO
Position of magnetic origin             ...     0.000000     0.000000     0.000000

Properties with geometric perturbations:
SCF Hessian                             ...  NO
IR spectrum                             ...  NO
VCD spectrum                            ...  NO
X-ray spectroscopy properties:
SCF XES/XAS/RIXS spectra                ...  NO

SCF SOC stabilization energy            ...  NO
Diagonal Born-Oppenheimer correction    ...  NO

-------------
DIPOLE MOMENT
-------------

Method             : SCF
Type of density    : Electron Density
Multiplicity       :   1
Irrep              :   0
Energy             :  -270.2501090065404128 Eh
Basis              : AO
                                X                 Y                 Z
Electronic contribution:      0.000000000      -0.962101117       0.929071180
Nuclear contribution   :      0.000000000       1.327457389      -1.281928022
                        -----------------------------------------
Total Dipole Moment    :      0.000000000       0.365356272      -0.352856842
                        -----------------------------------------
Magnitude (a.u.)       :      0.507930267
Magnitude (Debye)      :      1.291056138



--------------------
Rotational spectrum 
--------------------
 
Rotational constants in cm-1:             8.101050             7.049111             3.769280 
Rotational constants in MHz :        242863.361200        211327.036298        113000.174884 

Dipole components along the rotational axes: 
x,y,z [a.u.] :    -0.000031    -0.507930     0.000000 
x,y,z [Debye]:    -0.000079    -1.291056     0.000000 

 

Dipole moment calculation done in   0.0 sec 

-----------------
QUADRUPOLE MOMENT
-----------------

Method             : SCF
Type of density    : Electron Density
Multiplicity       :   1
Irrep              :   0
Energy             :  -270.2501090065404128 Eh
Basis              : AO

                XX              YY              ZZ              XY              XZ              YZ
  NUC        0.000000000     7.776008003     7.822723490     0.000000000     0.000000000     0.672490579
  EL       -12.345085372   -24.042251673   -24.041042731    -0.000000001     0.000000001     0.013837164
  TOT      -12.345085372   -16.266243670   -16.218319242    -0.000000001     0.000000001     0.686327743 (a.u.)
           -16.604562027   -21.878654042   -21.814194046    -0.000000002     0.000000001     0.923134286 (Buckingham)

diagonalized tensor:
           -16.929027375   -15.555535536   -12.345085372 (a.u.)
           -22.770120793   -20.922727295   -16.604562027 (Buckingham)
            -8.012952263    -2.470771771    10.483724034 (traceless form in Buckingham)

            -0.000000000     0.000000000     1.000000000
            -0.719337334     0.694660924    -0.000000000
             0.694660924     0.719337334     0.000000000
        
Isotropic quadrupole :   -14.943216094

Quadrupole moment calculation done in   0.0 sec (  0.0 sec for integrals)

Maximum memory used throughout the entire PROP-calculation: 1.4 MB

--------------------------------
SUGGESTED CITATIONS FOR THIS RUN
--------------------------------

Below you find a list of papers that are relevant to this ORCA run
We neither can nor want to force you to cite these papers, but we appreciate if you do
You receive ORCA, which is the product of decades of hard work by many enthusiastic individuals, for free
The only thing we kindly ask in return is that you cite our papers,
We deeply appreciate it, if you show your appreciation for ORCA by not just citing the generic ORCA reference.

Please note that relegating all ORCA citations to the supporting information does *not* help us.
SI sections are not indexed - citations you put there will not count into any citation statistics
But we need these citations in order to attract the funding resources that allow us to do what we are doing

Therefore, if you are a happy ORCA user, please consider citing a few of the papers listed below in the main body of your paper

In addition to the list printed below, the program has created the file /cluster/projects/nn14654k/ylvaos/basis_set_n_funcs/functionals/gga_c_N12/SiH2/inp/SiH2_gga_c_N12_def2svp.bibtex that contains the list in bibtex format
You can import this file easily into all common literature databanks and citation aid programs

It goes without saying that in many instances, there are alternative algorithms to achieve similar
results as the ones you have gotten from ORCA. It is, of course, also the case that in some instances
ORCA just re-implements algorithms worked out by others. We are fully aware of that and we are also
fully appreciative of our colleagues work. Hence this citation list should not be read as indicating
that the listed papers, which are focused on our own work, are the only ones worth citing. It simply
meant to make it easier for users to cite ORCA specific papers. It is not a substitute for doing your
own literature research and citing the relevant literature in a scientifically appropriate manner.

List of essential papers. We consider these as the minimum necessary citations

  1. Neese, F.
     Software update: the ORCA program system, version 6.0
     WIRES Comput. Molec. Sci. 2025 15(1), e70019
     doi.org/10.1002/wcms.70019

List of papers to cite with high priority. The work reported in these papers was absolutely
necessary for this run to complete.
Our perspective: the developers of density functionals and basis sets usually get cited in chemistry papers
Good! But without the algorithms to do something with them, the functionals or basis sets would not do anything.
Hence, in our opinion, the algorithm design and method developments papers are equally worthy of getting cited

  1. Lehtola, S.; Steigemann, C.; Oliveira, M.; Marques, M.
     Recent developments in Libxc - A comprehensive library of functionals for density functional theory
     Software X 2018 7 , 
     doi.org/10.1016/j.softx.2017.11.002
  2. Neese, F.
     The SHARK Integral Generation and Digestion System
     J. Comp. Chem. 2022 44(3), 381
     doi.org/10.1002/jcc.26942

List of suggested additional citations. These are papers that are important in the 'surrounding' of 
of this run, or papers that preceded the highly important papers. If you like your results we are grateful for a citation.

  1. Neese, F.
     The ORCA program system
     WIRES Comput. Molec. Sci. 2012 2(1), 73-78
     doi.org/10.1002/wcms.81
  2. Neese, F.
     Software update: the ORCA program system, version 4.0
     WIRES Comput. Molec. Sci. 2018 8(1), 1-6
     doi.org/10.1002/wcms.1327
  3. Neese, F.; Wennmohs, F.; Becker, U.; Riplinger, C.
     The ORCA quantum chemistry program package
     J. Chem. Phys. 2020 152(22), 224108
     doi.org/10.1063/5.0004608
  4. Neese, F.
     Software update: The ORCA program system—Version 5.0
     WIRES Comput. Molec. Sci. 2022 12(1), e1606
     doi.org/10.1002/wcms.1606

List of optional additional citations

  1. Neese, F.
     Approximate second-order SCF convergence for spin unrestricted wavefunctions
     Chem. Phys. Lett. 2000 325(1-3), 93-98
     doi.org/10.1016/s0009-2614(00)00662-x

Timings for individual modules:

Sum of individual times          ...        2.985 sec (=   0.050 min)
Startup calculation              ...        0.423 sec (=   0.007 min)  14.2 %
SCF iterations                   ...        2.015 sec (=   0.034 min)  67.5 %
Property integrals               ...        0.272 sec (=   0.005 min)   9.1 %
Property calculations            ...        0.252 sec (=   0.004 min)   8.4 %
Orbital localization             ...        0.022 sec (=   0.000 min)   0.7 %
                             ****ORCA TERMINATED NORMALLY****
TOTAL RUN TIME: 0 days 0 hours 0 minutes 4 seconds 455 msec
