
                                 *****************
                                 * O   R   C   A *
                                 *****************

                                            #,                                       
                                            ###                                      
                                            ####                                     
                                            #####                                    
                                            ######                                   
                                           ########,                                 
                                     ,,################,,,,,                         
                               ,,#################################,,                 
                          ,,##########################################,,             
                       ,#########################################, ''#####,          
                    ,#############################################,,   '####,        
                  ,##################################################,,,,####,       
                ,###########''''           ''''###############################       
              ,#####''   ,,,,##########,,,,          '''####'''          '####       
            ,##' ,,,,###########################,,,                        '##       
           ' ,,###''''                  '''############,,,                           
         ,,##''                                '''############,,,,        ,,,,,,###''
      ,#''                                            '''#######################'''  
     '                                                          ''''####''''         
             ,#######,   #######,   ,#######,      ##                                
            ,#'     '#,  ##    ##  ,#'     '#,    #''#        ,####,    ,#,          
            ##       ##  ##   ,#'  ##            #'  '#       #'       ,# #          
            ##       ##  #######   ##           ,######,      #####,      #          
            '#,     ,#'  ##    ##  '#,     ,#' ,#      #,     #,   #      #          
             '#######'   ##     ##  '#######'  #'      '#     '####' #    #          



                #########################################################
                #                        -***-                          #
                #          Department of theory and spectroscopy        #
                #                                                       #
                #                      Frank Neese                      #
                #                                                       #
                #     Directorship, Architecture, Infrastructure        #
                #                    SHARK, DRIVERS                     #
                #        Core code/Algorithms in most modules           #
                #                                                       #
                #        Max Planck Institute fuer Kohlenforschung      #
                #                Kaiser Wilhelm Platz 1                 #
                #                 D-45470 Muelheim/Ruhr                 #
                #                      Germany                          #
                #                                                       #
                #                  All rights reserved                  #
                #                        -***-                          #
                #########################################################


                         Program Version 6.1.1  -  RELEASE   -
                                (GIT: $487d211c$)
                          ($2025-11-21 10:33:24 +0100$)


 With contributions from (in alphabetic order):
[Max-Planck-Institut fuer Kohlenforschung]                               
  Daniel Aravena         : Magnetic Suceptibility                        
  Michael Atanasov       : Ab Initio Ligand Field Theory (pilot matlab implementation)
  Alexander A. Auer      : GIAO ZORA, VPT2 properties, NMR spectrum      
  Ute Becker             : All parallelization in ORCA, NUMFREQ, NUMCALC 
  Giovanni Bistoni       : ED, misc. LED, open-shell LED, HFLD           
  Dmytro Bykov           : pre 5.0 version of the SCF Hessian            
  Marcos Casanova-Páez   : Triplet and SCS-CIS(D). UHF-(DLPNO)-IP/EA/STEOM-CCSD. UHF-CVS-IP/STEOM-CCSD   
  Vijay G. Chilkuri      : MRCI spin determinant printing, contributions to CSF-ICE 
  Pauline Colinet        : FMM embedding                                 
  Dipayan Datta          : RHF DLPNO-CCSD density                        
  Achintya Kumar Dutta   : EOM-CC, STEOM-CC                              
  Nicolas Foglia         : Exact transition moments, OPA infrastructure, MCD improvements    
  Dmitry Ganyushin       : Spin-Orbit,Spin-Spin,Magnetic field MRCI      
  Miquel Garcia-Rates    : C-PCM and meta-GGA Hessian, CCSD/C-PCM, Gaussian charge scheme 
  Tiago L. C. Gouveia    : GS-ROHF, GS-ROCIS                             
  Yang Guo               : DLPNO-NEVPT2, F12-NEVPT2, CIM, IAO-localization        
  Andreas Hansen         : Spin unrestricted coupled pair/coupled cluster methods 
  Ingolf Harden          : AUTO-CI MPn and infrastructure                
  Benjamin Helmich-Paris : MC-RPA, TRAH-(SCF,CASSCF), AVAS, COSX integrals, SCF dyn. polar., MC-PDFT, srDFT 
  Lee Huntington         : MR-EOM, pCC                                   
  Robert Izsak           : Overlap fitted RIJCOSX, COSX-SCS-MP3, EOM     
  Riya Kayal             : Wick's Theorem for AUTO-CI, AUTO-CI UHF-CCSDT 
  Emily Kempfer          : AUTO-CI RHF CISDT and CCSDT, approximate NEVPT4
  Christian Kollmar      : KDIIS, OOCD, Brueckner-CCSD(T), CCSD density, CASPT2, CASPT2-K, improved NEVPT2 
  Axel Koslowski         : Symmetry handling                             
  Simone Kossmann        : meta-GGA functionals, TD-DFT gradient, OOMP2, (MP2 Hessian; deprecated post 5.0) 
  Lucas Lang             : DCDCAS, Hyperfine gauge corrections, ICE-SOC+SSC
  Marvin Lechner         : AUTO-CI (C++ implementation), FIC-MRCC        
  Spencer Leger          : CASSCF response                               
  Dagmar Lenk            : GEPOL surface, SMD, ORCA-2-JSON               
  Dimitrios Liakos       : Extrapolation schemes; Compound Job, Property file
  Dimitrios Manganas     : Further ROCIS development; embedding schemes. LFT, Crystal Embedding 
  Dimitrios Pantazis     : SARC Basis sets                               
  Anastasios Papadopoulos: AUTO-CI, single reference methods and gradients 
  Taras Petrenko         : pre 6.0 DFT Hessian and TD-DFT gradient,  ECA, NRVS 
  Petra Pikulova         : Analytic Raman intensities                    
  Peter Pinski           : DLPNO-MP2, DLPNO-MP2 Gradient                 
  Shashank Vittal Rao    : ES-AILFT, MagRelax                            
  Christoph Reimann      : Effective Core Potentials                     
  Marius Retegan         : Local ZFS, SOC                                
  Christoph Riplinger    : Optimizer, TS searches, QM/MM, DLPNO-CCSD(T), (RO)-DLPNO pert. Triples 
  Michael Roemelt        : Original ROCIS implementation, recursive CI coupling coefficients
  Masaaki Saitow         : Open-shell DLPNO-CCSD energy and density      
  Barbara Sandhoefer     : DKH picture change effects                    
  Yorick L. A. Schmerwitz: GMF and freeze-and-release deltaSCF, NEB S-IDPP initial path                    
  Kantharuban Sivalingam : CASSCF convergence/infrastructure, NEVPT2, NEVPT3, NEVPT4(SD), FIC-MRCI and CEPA variants
  Bernardo de Souza      : ESD, SOC TD-DFT                               
  Georgi L. Stoychev     : AutoAux, RI-MP2 NMR, DLPNO-MP2 response, X2C  
  Van Anh Tran           : RI-MP2 g-tensors                              
  Willem Van den Heuvel  : Paramagnetic NMR                              
  Zikuan Wang            : NOTCH, Electric field optimization            
  Frank Wennmohs         : Technical directorship and infrastructure     
  Hang Xu                : AUTO-CI-Response properties                   
                                                                         
[FACCTs GmbH]                                                            
  Markus Bursch, Nicolas Foglia, Miquel Garcia-Rates, Ingolf Harden, Hagen Neugebauer, Anastasios Papadopoulos, 
  Christoph Riplinger, Bernardo de Souza, Georgi L. Stoychev                                                    
                                                                 
  APM, various basis sets, CI-OPT, improved COSX, DLPNO-Multilevel,           
  DOCKER, DRACO, updates on ESD, Fragmentator, GOAT, IRC, LR-CPCM, L-BFGS, MBIS, meta-GGA TD-DFT gradient, ML-optimized integration grids, 
  MM, NACMEs, nearIR, NEB, NEB-TS, NL-DFT gradient (VV10), 2- and 3-layer-ONIOM, interface openCOSMO-RS, QMMM,   
  Crystal-QMMM, RESP, rigid body optimization, SF, symmetry and pop. for TD-DFT, various functionals, SOLVATOR                                   
                                                                         
[Other institutions]                                                     
  V. Asgeirsson          : NEB                                           
  Christoph Bannwarth    : sTDA-DFT, sTD-DFT, PBEh-3c, B97-3c, D3        
  Giovanni Bistoni       : ETS/NOCV, ADLD/ADEX, COVALED                  
  Martin Brehm           : Molecular dynamics                            
  Ronald Cardenas        : ETS/NOCV                                      
  Martina Colucci        : COVALED                                       
  Sebastian Ehlert       : rSCAN, r2SCAN, r2SCAN-3c, D4, dhf basis sets  
  Marvin Friede          : D4 for Fr, Ra, Ac-Lr                          
  Lars Goerigk           : TD-DFT with DH, B97 family of functionals     
  Stefan Grimme          : VdW corrections, initial TS optimization, DFT functionals, gCP, sTDA/sTD-DF 
  Waldemar Hujo          : DFT-NL                                        
  H. Jonsson             : NEB                                           
  Holger Kruse           : gCP                                           
  Marcel Mueller         : wB97X-3c, vDZP basis set                      
  Hagen Neugebauer       : wr2SCAN, Native XTB                           
  Gianluca Regni         : ADLD/ADEX                                     
  Tobias Risthaus        : pre 6.0 range-separated hybrid DFT and stability analysis
  Lukas Wittmann         : regularized MP2, r2SCAN double-hybrids, wr2SCAN        
                                                                         
We gratefully acknowledge several colleagues who have allowed us to      
interface, adapt or use parts of their codes:                            
  Ed Valeev, F. Pavosevic, A. Kumar             : LibInt (2-el integral package), F12 methods 
  Garnet Chan, S. Sharma, J. Yang, R. Olivares  : DMRG                   
  Ulf Ekstrom                                   : XCFun DFT Library      
  Mihaly Kallay                                 : mrcc  (arbitrary order and MRCC methods)
  Frank Weinhold                                : gennbo (NPA and NBO analysis)           
  Simon Mueller                                 : openCOSMO-RS                            
  Christopher J. Cramer and Donald G. Truhlar   : smd solvation model                     
  S Lehtola, MJT Oliveira, MAL Marques          : LibXC Library                           
  Liviu Ungur et al                             : ANISO software                          


 Your calculation uses the libint2 library for the computation of 2-el integrals
 For citations please refer to: http://libint.valeyev.net

 Your ORCA version has been built with support for libXC version: 7.0.0
 For citations please refer to: https://libxc.gitlab.io

 This ORCA versions uses:
   CBLAS   interface :  Fast vector & matrix operations
   LAPACKE interface :  Fast linear algebra routines
   SCALAPACK package :  Parallel linear algebra routines
   Shared memory     :  Shared parallel matrices
   BLAS/LAPACK       :  OpenBLAS 0.3.29  USE64BITINT DYNAMIC_ARCH NO_AFFINITY Cooperlake SINGLE_THREADED
        Core in use  :  Cooperlake
   Copyright (c) 2011-2014, The OpenBLAS Project


  ***********************************
  * Starting time: Wed May 20 12:40:35 2026
  * Host name:     c1-40
  * Process ID:    745896
  * Working dir.:  /cluster/projects/nn14654k/ylvaos/basis_set_n_funcs/functionals/gga_c_N12/SiH2/out
  ***********************************

Using LibXC functional ID  80 : Minnesota N12 correlation functional
[ 1]  R. Peverati and D. G. Truhlar.,  J. Chem. Theory Comput. 8, 2310 (2012)
Using LibXC functional ID  80 : Minnesota N12 correlation functional
[ 1]  R. Peverati and D. G. Truhlar.,  J. Chem. Theory Comput. 8, 2310 (2012)
Your calculation utilizes LibXC
by S. Lehtola, C. Steigemann, M. J. T. Oliveira & M. A. L. Marques
Please cite in your paper:
Lehtola, S.; Steigemann, C.; Oliveira, M.J.T.; Marques, M. A. L. Software X, 7, (2018), 1.
   

================================================================================

----- Orbital basis set information -----
Your calculation utilizes the basis: pcseg-4
   F. Jensen, J. Chem. Theory Comput. 10, 1074 (2014).

================================================================================
                                        WARNINGS
                       Please study these warnings very carefully!
================================================================================


WARNING: The basis set has functions with high angular momentum (Lmax>4).
         We might need to increase small grids for safety reasons and
         in general, DEFGRID3 is recommend for such cases.
  ===> : GRIDX1, TD-DFT and the CP-SCF AngGrids will be increased to at least 2


================================================================================
                                       INPUT FILE
================================================================================
NAME = /cluster/projects/nn14654k/ylvaos/basis_set_n_funcs/functionals/gga_c_N12/SiH2/inp/SiH2_gga_c_N12_pcseg4.inp
|  1> ! dft pcseg-4 TightSCF
|  2> %pal nprocs 8 end
|  3> 
|  4> %loc
|  5>   LocMet NewBoys
|  6>   Occ true
|  7> end
|  8> 
|  9> %method
| 10>   exchange None
| 11>   correlation gga_c_N12
| 12> end
| 13> 
| 14> %elprop
| 15>   Dipole true
| 16>   Quadrupole true
| 17> end
| 18> 
| 19> * xyz 0 1
| 20> Si    0.000000000000   0.000000000000   0.000000000000
| 21> H    0.000000000000   0.000000000000  -1.514100000000
| 22> H    0.000000000000   1.513200000000   0.052800000000
| 23> *
| 24> 
| 25> 
| 26>                          ****END OF INPUT****
================================================================================

                       ****************************
                       * Single Point Calculation *
                       ****************************

---------------------------------
CARTESIAN COORDINATES (ANGSTROEM)
---------------------------------
  Si     0.000000    0.000000    0.000000
  H      0.000000    0.000000   -1.514100
  H      0.000000    1.513200    0.052800

----------------------------
CARTESIAN COORDINATES (A.U.)
----------------------------
  NO LB      ZA    FRAG     MASS         X           Y           Z
   0 Si   14.0000    0    28.086    0.000000    0.000000    0.000000
   1 H     1.0000    0     1.008    0.000000    0.000000   -2.861234
   2 H     1.0000    0     1.008    0.000000    2.859534    0.099778

--------------------------------
INTERNAL COORDINATES (ANGSTROEM)
--------------------------------
 Si     0   0   0     0.000000000000     0.00000000     0.00000000
 H      1   0   0     1.514100000000     0.00000000     0.00000000
 H      1   2   0     1.514120893456    91.99840755     0.00000000

---------------------------
INTERNAL COORDINATES (A.U.)
---------------------------
 Si     0   0   0     0.000000000000     0.00000000     0.00000000
 H      1   0   0     2.861234339370     0.00000000     0.00000000
 H      1   2   0     2.861273822280    91.99840755     0.00000000

---------------------
BASIS SET INFORMATION
---------------------
There are 2 groups of distinct atoms

 Group   1 Type Si  : 25s17p6d3f2g1h contracted to 7s6p6d3f2g1h pattern {14521111/1121111/111111/111/11/1}
 Group   2 Type H   : 11s6p3d2f1g contracted to 5s6p3d2f1g pattern {71111/111111/111/11/1}

Atom   0Si   basis set group =>   1
Atom   1H    basis set group =>   2
Atom   2H    basis set group =>   2


           ************************************************************
           *        Program running with 8 parallel MPI-processes     *
           *              working on a common directory               *
           ************************************************************
------------------------------------------------------------------------------
                             ORCA STARTUP CALCULATIONS
------------------------------------------------------------------------------
------------------------------------------------------------------------------
                   ___                                                        
                  /   \      - P O W E R E D   B Y -                         
                 /     \                                                     
                 |  |  |   _    _      __       _____    __    __             
                 |  |  |  | |  | |    /  \     |  _  \  |  |  /  |          
                  \  \/   | |  | |   /    \    | | | |  |  | /  /          
                 / \  \   | |__| |  /  /\  \   | |_| |  |  |/  /          
                |  |  |   |  __  | /  /__\  \  |    /   |      \           
                |  |  |   | |  | | |   __   |  |    \   |  |\   \          
                \     /   | |  | | |  |  |  |  | |\  \  |  | \   \       
                 \___/    |_|  |_| |__|  |__|  |_| \__\ |__|  \__/        
                                                                              
                      - O R C A' S   B I G   F R I E N D -                    
                                      &                                       
                       - I N T E G R A L  F E E D E R -                       
                                                                              
 v1 FN, 2020, v2 2021, v3 2022-2024                                           
------------------------------------------------------------------------------


----------------------
SHARK INTEGRAL PACKAGE
----------------------

Number of atoms                             ...      3
Number of basis functions                   ...    227
Number of shells                            ...     59
Maximum angular momentum                    ...      5
Integral batch strategy                     ... SHARK/LIBINT Hybrid
RI-J (if used) integral strategy            ... SPLIT-RIJ (Revised 2003 algorithm where possible)
Printlevel                                  ...      1
Contraction scheme used                     ... SEGMENTED contraction
Prescreening option                         ... SCHWARTZ
   Thresh                                   ... 2.500e-11
   Tcut                                     ... 2.500e-12
   Tpresel                                  ... 2.500e-12 
Coulomb Range Separation                    ... NOT USED
Exchange Range Separation                   ... NOT USED
Multipole approximations                    ... NOT USED
Finite Nucleus Model                        ... NOT USED
CABS basis                                  ... NOT available
Auxiliary Coulomb fitting basis             ... NOT available
Auxiliary J/K fitting basis                 ... NOT available
Auxiliary Correlation fitting basis         ... NOT available
Auxiliary 'external' fitting basis          ... NOT available

Checking pre-screening integrals            ... done (  0.0 sec) Dimension = 59
   => SHARK Basis and OBASIS are compatible. Storing Pre-screening
Shell pair information
Shell pair cut-off parameter TPreSel        ...   2.5e-12
Total number of shell pairs                 ...      1770
Shell pairs after pre-screening             ...      1746
Total number of primitive shell pairs       ...      5250
Primitive shell pairs kept                  ...      4728
          la=0 lb=0:    153 shell pairs
          la=1 lb=0:    302 shell pairs
          la=1 lb=1:    165 shell pairs
          la=2 lb=0:    204 shell pairs
          la=2 lb=1:    208 shell pairs
          la=2 lb=2:     78 shell pairs
          la=3 lb=0:    119 shell pairs
          la=3 lb=1:    124 shell pairs
          la=3 lb=2:     84 shell pairs
          la=3 lb=3:     28 shell pairs
          la=4 lb=0:     68 shell pairs
          la=4 lb=1:     68 shell pairs
          la=4 lb=2:     48 shell pairs
          la=4 lb=3:     28 shell pairs
          la=4 lb=4:     10 shell pairs
          la=5 lb=0:     17 shell pairs
          la=5 lb=1:     18 shell pairs
          la=5 lb=2:     12 shell pairs
          la=5 lb=3:      7 shell pairs
          la=5 lb=4:      4 shell pairs
          la=5 lb=5:      1 shell pairs

Checking whether 4 symmetric matrices of dimension 227 fit in memory
:Max Core in MB      =   4096.00
 MB in use           =      8.26
 MB left             =   4087.74
 MB needed           =      0.79
 Data fit in memory  = YES
Calculating Nuclear repulsion               ... done (  0.0 sec) ENN=     10.028851096195 Eh

Diagonalization of the overlap matrix:
Smallest eigenvalue                        ... 8.690e-05
Time for diagonalization                   ...    0.003 sec
Threshold for overlap eigenvalues          ... 1.000e-07
Number of eigenvalues below threshold      ... 0
Time for construction of square roots      ...    0.003 sec
Total time needed                          ...    0.007 sec

-------------------
DFT GRID GENERATION
-------------------

General Integration Accuracy     IntAcc      ... 4.388
Radial Grid Type                 RadialGrid  ... OptM3 with GC (2021)
Angular Grid (max. ang.)         AngularGrid ... 4 (Lebedev-302)
Angular grid pruning method      GridPruning ... 4 (adaptive)
Weight generation scheme         WeightScheme... mBecke (2022)
Basis function cutoff            BFCut       ... 1.0000e-11
Integration weight cutoff        WCut        ... 1.0000e-14
Partially contracted basis set               ... off
Rotationally invariant grid construction     ... off
Angular grids for H and He will be reduced by one unit
Diffuse basis detected: some atoms will have their outermost
                        angular grid increased by 1.
Core-polarized basis detected: some atoms will have their core
                               angular grid increased.

Total number of grid points                  ...    16738
Total number of batches                      ...      263
Average number of points per batch           ...       63
Average number of grid points per atom       ...     5579
Grids setup in   0.1 sec
Initializing property integral containers    ... done (  0.0 sec)

SHARK setup successfully completed in   0.2 seconds

Maximum memory used throughout the entire STARTUP-calculation: 84.6 MB


           ************************************************************
           *        Program running with 8 parallel MPI-processes     *
           *              working on a common directory               *
           ************************************************************
-------------------------------------------------------------------------------
                                 ORCA GUESS
                   Start orbitals & Density for SCF / CASSCF
-------------------------------------------------------------------------------

------------
SCF SETTINGS
------------
Hamiltonian:
 Density Functional     Method          .... DFT(GTOs)
 Exchange Functional    Exchange        .... no Exchange
  Functional kind                       .... Correlation
  Functional name                       .... Minnesota N12 correlation functional
  Functional family                     .... GGA
  Functional refs                              
    [ 0] R. Peverati and D. G. Truhlar.,  J. Chem. Theory Comput. 8, 2310 (2012), doi: 10.1021/ct3002656
  Functional external parameters        .... 10
    Parameter  0 _css0      =  1.000000e+00 : u^0 coefficient for same-spin correlation
    Parameter  1 _css1      = -5.531700e+00 : u^1 coefficient for same-spin correlation
    Parameter  2 _css2      =  3.079580e+01 : u^2 coefficient for same-spin correlation
    Parameter  3 _css3      = -5.641960e+01 : u^3 coefficient for same-spin correlation
    Parameter  4 _css4      =  3.212500e+01 : u^4 coefficient for same-spin correlation
    Parameter  5 _cos0      =  1.000000e+00 : u^0 coefficient for opposite-spin correlation
    Parameter  6 _cos1      =  3.245110e+00 : u^1 coefficient for opposite-spin correlation
    Parameter  7 _cos2      = -2.528930e+01 : u^2 coefficient for opposite-spin correlation
    Parameter  8 _cos3      =  1.444070e+01 : u^3 coefficient for opposite-spin correlation
    Parameter  9 _cos4      =  1.968700e+01 : u^4 coefficient for opposite-spin correlation
 Gradients option       PostSCFGGA      .... off


General Settings:
 Integral files         IntName         .... /cluster/projects/nn14654k/ylvaos/basis_set_n_funcs/functionals/gga_c_N12/SiH2/inp/SiH2_gga_c_N12_pcseg4
 Hartree-Fock type      HFTyp           .... RHF
 Total Charge           Charge          ....    0
 Multiplicity           Mult            ....    1
 Number of Electrons    NEL             ....   16
 Basis Dimension        Dim             ....  227
 Nuclear Repulsion      ENuc            ....     10.0288510962 Eh

Convergence Acceleration:
 AO-DIIS                CNVDIIS         .... on
   Start iteration      DIISMaxIt       ....    12
   Startup error        DIISStart       ....  0.200000
   # of expansion vecs  DIISMaxEq       ....     5
   Bias factor          DIISBfac        ....   1.050
   Max. coefficient     DIISMaxC        ....  10.000
 MO-DIIS                CNVKDIIS        .... off
 Trust-Rad. Augm. Hess. CNVTRAH         .... auto
   Auto Start mean grad. ratio tolernc. ....  1.125000
   Auto Start start iteration           ....    50
   Auto Start num. interpolation iter.  ....    10
   Max. Number of Micro iterations      ....    24
   Max. Number of Macro iterations      .... Maxiter - #DIIS iter
   Number of Davidson start vectors     ....     2
   Converg. threshold    (grad. norm)   ....   1.000e-05
   Grad. Scal. Fac. for Micro threshold ....   0.100
   Minimum threshold for Micro iter.    ....   1.000e-02
   NR start threshold (gradient norm)   ....   1.000e-04
   Initial trust radius                 ....   0.400
   Minimum AH scaling param. (alpha)    ....   1.000
   Maximum AH scaling param. (alpha)    .... 1000.000
   Quad. conv. algorithm                .... NR
   White noise on init. David. guess    .... on
   Maximum white noise                  ....   0.010
   Pseudo random numbers                .... off
   Inactive MOs                         .... canonical
   Orbital update algorithm             .... Taylor
   Preconditioner                       .... Diag
   Full preconditioner red. dimension   ....   250
 SOSCF                 CNVSOSCF           .... on
   Start iteration     SOSCFMaxIt         ....   150
   Startup grad/error  SOSCFStart         ....  0.003300
   Hessian update      SOSCFHessUp        .... L-BFGS
   Autom. constraints  SOSCFAutoConstrain .... off
 Level Shifting         CNVShift        .... on
   Level shift para.    LevelShift      ....    0.2500
   Turn off err/grad.   ShiftErr        ....    0.0010
 Zerner damping         CNVZerner       .... off
 Static damping         CNVDamp         .... on
   Fraction old density DampFac         ....    0.7000
   Max. Damping (<1)    DampMax         ....    0.9800
   Min. Damping (>=0)   DampMin         ....    0.0000
   Turn off err/grad.   DampErr         ....    0.1000

SCF Procedure:
 Maximum # iterations   MaxIter         ....   125
 SCF integral mode      SCFMode         .... Direct
   Integral package                     .... SHARK and LIBINT hybrid scheme
 Reset frequency        DirectResetFreq ....    20
 Integral Threshold     Thresh          ....  2.500e-11 Eh
 Primitive CutOff       TCut            ....  2.500e-12 Eh

Convergence Tolerance:
 Convergence Check Mode ConvCheckMode   .... Total+1el-Energy
 Convergence forced     ConvForced      .... 0
 Energy Change          TolE            ....  1.000e-08 Eh
 1-El. energy change                    ....  1.000e-05 Eh
 Orbital Gradient       TolG            ....  1.000e-05
 Orbital Rotation angle TolX            ....  1.000e-05
 DIIS Error             TolErr          ....  5.000e-07

------------------------------
INITIAL GUESS: MODEL POTENTIAL
------------------------------
Loading Hartree-Fock densities                     ... done
Calculating cut-offs                               ... done
Initializing the effective Hamiltonian             ... done
Setting up the integral package (SHARK)            ... done
Starting the Coulomb interaction                   ... done (   0.0 sec)
Making the grid                                    ... done (   0.0 sec)
Mapping shells                                     ... done
Starting the XC term evaluation                    ... done (   0.0 sec)
  promolecular density results
     # of electrons  =     15.999585014
     EX              =      0.000000000
     EC              =     -0.952024509
     EX+EC           =     -0.952024509
Transforming the Hamiltonian                       ... done (   0.0 sec)
Diagonalizing the Hamiltonian                      ... done (   0.0 sec)
Back transforming the eigenvectors                 ... done (   0.0 sec)
Now organizing SCF variables                       ... done
                      ------------------
                      INITIAL GUESS DONE (   0.1 sec)
                      ------------------
             **** ENERGY FILE WAS UPDATED (/cluster/projects/nn14654k/ylvaos/basis_set_n_funcs/functionals/gga_c_N12/SiH2/inp/SiH2_gga_c_N12_pcseg4.en.tmp) ****
Finished Guess after   0.1 sec
Maximum memory used throughout the entire GUESS-calculation: 18.4 MB


           ************************************************************
           *        Program running with 8 parallel MPI-processes     *
           *              working on a common directory               *
           ************************************************************

-------------------------------------------------------------------------------------------
                                      ORCA LEAN-SCF
                              memory conserving SCF solver
-------------------------------------------------------------------------------------------

----------------------------------------D-I-I-S--------------------------------------------
Iteration    Energy (Eh)           Delta-E    RMSDP     MaxDP     DIISErr   Damp  Time(sec)
-------------------------------------------------------------------------------------------
               ***  Starting incremental Fock matrix formation  ***
    1    -269.9399970211339905     0.00e+00  9.49e-02  2.96e+00  8.99e-01  0.700   1.3
Warning: op=0 Small HOMO/LUMO gap (   0.011) - skipping pre-diagonalization
         Will do a full diagonalization
    2    -270.2035532562380808    -2.64e-01  7.81e-02  2.39e+00  4.26e-01  0.700   1.3
                               ***Turning on AO-DIIS***
    3    -270.3164213111176650    -1.13e-01  5.27e-02  1.54e+00  1.87e-01  0.700   1.2
    4    -270.3744849309213123    -5.81e-02  3.66e-02  1.08e+00  1.07e-01  0.700   1.2
    5    -270.4117588512541488    -3.73e-02  2.57e-02  7.94e-01  6.14e-02  0.700   1.3
    6    -270.4375621854439373    -2.58e-02  6.22e-02  2.03e+00  3.85e-02  0.000   1.2
    7    -270.4983242587275640    -6.08e-02  5.94e-03  1.13e-01  4.10e-03  0.000   1.2
                              *** Initializing SOSCF ***
---------------------------------------S-O-S-C-F--------------------------------------
Iteration    Energy (Eh)           Delta-E    RMSDP     MaxDP     MaxGrad    Time(sec)
--------------------------------------------------------------------------------------
    8    -270.4986230987338445    -2.99e-04  2.47e-03  1.03e-01  1.55e-03     1.2
               *** Restarting incremental Fock matrix formation ***
    9    -270.4986615289540168    -3.84e-05  9.19e-04  3.04e-02  8.18e-04     1.4
   10    -270.4986724663953623    -1.09e-05  1.01e-03  3.51e-02  3.54e-04     1.2
   11    -270.4986743131452158    -1.85e-06  2.06e-04  3.41e-03  1.99e-04     1.1
   12    -270.4986746986603521    -3.86e-07  2.11e-05  3.07e-04  2.11e-05     1.1
   13    -270.4986747097027546    -1.10e-08  6.44e-06  1.88e-04  8.09e-06     1.0
   14    -270.4986747115449930    -1.84e-09  2.13e-06  4.50e-05  2.66e-06     1.1
                 **** Energy Check signals convergence ****

               *****************************************************
               *                     SUCCESS                       *
               *           SCF CONVERGED AFTER  14 CYCLES          *
               *****************************************************

             **** ENERGY FILE WAS UPDATED (/cluster/projects/nn14654k/ylvaos/basis_set_n_funcs/functionals/gga_c_N12/SiH2/inp/SiH2_gga_c_N12_pcseg4.en.tmp) ****

----------------
TOTAL SCF ENERGY
----------------

Total Energy       :       -270.49867471166789 Eh           -7360.64315 eV

Components:
Nuclear Repulsion  :         10.02885109619548 Eh             272.89891 eV
Electronic Energy  :       -280.52752580786336 Eh           -7633.54206 eV
One Electron Energy:       -413.41587812368704 Eh          -11249.61796 eV
Two Electron Energy:        132.88835231582368 Eh            3616.07590 eV

Virial components:
Potential Energy   :       -549.09081747396078 Eh          -14941.52076 eV
Kinetic Energy     :        278.59214276229289 Eh            7580.87761 eV
Virial Ratio       :          1.97094868516256

DFT components:
N(Alpha)           :        8.000085052577 electrons
N(Beta)            :        8.000085052577 electrons
N(Total)           :       16.000170105153 electrons
E(X)               :        0.000000000000 Eh       
E(C)               :       -0.924330065217 Eh       
E(XC)              :       -0.924330065217 Eh       

---------------
SCF CONVERGENCE
---------------

  Last Energy change         ...    1.8422e-09  Tolerance :   1.0000e-08
  Last MAX-Density change    ...    4.5031e-05  Tolerance :   1.0000e-07
  Last RMS-Density change    ...    2.1347e-06  Tolerance :   5.0000e-09
  Last DIIS Error            ...    1.5501e-03  Tolerance :   5.0000e-07
  Last Orbital Gradient      ...    2.6624e-06  Tolerance :   1.0000e-05
  Last Orbital Rotation      ...    4.9682e-06  Tolerance :   1.0000e-05


----------------
ORBITAL ENERGIES
----------------

  NO   OCC          E(Eh)            E(eV) 
   0   2.0000     -61.200221     -1665.3427 
   1   2.0000      -4.118878      -112.0804 
   2   2.0000      -2.590781       -70.4987 
   3   2.0000      -2.580314       -70.2139 
   4   2.0000      -2.579051       -70.1795 
   5   2.0000      -0.254957        -6.9377 
   6   2.0000      -0.089061        -2.4235 
   7   2.0000      -0.034241        -0.9317 
   8   0.0000      -0.014442        -0.3930 
   9   0.0000       0.067237         1.8296 
  10   0.0000       0.076913         2.0929 
  11   0.0000       0.095184         2.5901 
  12   0.0000       0.102659         2.7935 
  13   0.0000       0.117115         3.1869 
  14   0.0000       0.164095         4.4653 
  15   0.0000       0.187943         5.1142 
  16   0.0000       0.223038         6.0692 
  17   0.0000       0.224156         6.0996 
  18   0.0000       0.229966         6.2577 
*Only the first 10 virtual orbitals were printed.

                    ********************************
                    * MULLIKEN POPULATION ANALYSIS *
                    ********************************

-----------------------
MULLIKEN ATOMIC CHARGES
-----------------------
   0 Si:    0.341319
   1 H :   -0.170630
   2 H :   -0.170689
Sum of atomic charges:   -0.0000000

--------------------------------
MULLIKEN REDUCED ORBITAL CHARGES
--------------------------------
  0 Sis       :     6.198883  s :     6.198883
      pz      :     2.737976  p :     7.485046
      px      :     1.999191
      py      :     2.747879
      dz2     :    -0.016011  d :    -0.016135
      dxz     :     0.000001
      dyz     :     0.005237
      dx2y2   :    -0.005362
      dxy     :     0.000001
      f0      :    -0.004266  f :    -0.008791
      f+1     :     0.000001
      f-1     :    -0.001083
      f+2     :     0.000057
      f-2     :     0.000000
      f+3     :     0.000002
      f-3     :    -0.003502
      g0      :     0.000015  g :    -0.000285
      g+1     :    -0.000000
      g-1     :     0.000020
      g+2     :    -0.000133
      g-2     :    -0.000000
      g+3     :    -0.000000
      g-3     :     0.000009
      g+4     :    -0.000196
      g-4     :    -0.000000
      h0      :    -0.000021  h :    -0.000038
      h+1     :    -0.000000
      h-1     :    -0.000000
      h+2     :     0.000001
      h-2     :    -0.000000
      h+3     :    -0.000000
      h-3     :    -0.000006
      h+4     :     0.000001
      h-4     :    -0.000000
      h+5     :    -0.000000
      h-5     :    -0.000012

  1 H s       :     1.249416  s :     1.249416
      pz      :    -0.078202  p :    -0.069421
      px      :     0.000153
      py      :     0.008628
      dz2     :    -0.006114  d :    -0.007361
      dxz     :     0.000216
      dyz     :    -0.001428
      dx2y2   :    -0.000035
      dxy     :    -0.000000
      f0      :    -0.002104  f :    -0.002001
      f+1     :     0.000034
      f-1     :     0.000064
      f+2     :     0.000005
      f-2     :    -0.000000
      f+3     :    -0.000000
      f-3     :     0.000000
      g0      :    -0.000004  g :    -0.000004
      g+1     :     0.000000
      g-1     :     0.000000
      g+2     :     0.000000
      g-2     :    -0.000000
      g+3     :     0.000000
      g-3     :     0.000000
      g+4     :    -0.000000
      g-4     :    -0.000000

  2 H s       :     1.249446  s :     1.249446
      pz      :     0.010190  p :    -0.069399
      px      :     0.000153
      py      :    -0.079741
      dz2     :    -0.002141  d :    -0.007353
      dxz     :     0.000000
      dyz     :    -0.001203
      dx2y2   :    -0.004226
      dxy     :     0.000216
      f0      :     0.000009  f :    -0.002000
      f+1     :     0.000002
      f-1     :    -0.000764
      f+2     :     0.000048
      f-2     :    -0.000000
      f+3     :     0.000032
      f-3     :    -0.001326
      g0      :    -0.000001  g :    -0.000004
      g+1     :    -0.000000
      g-1     :     0.000000
      g+2     :    -0.000001
      g-2     :     0.000000
      g+3     :    -0.000000
      g-3     :     0.000000
      g+4     :    -0.000002
      g-4     :     0.000000



                     *******************************
                     * LOEWDIN POPULATION ANALYSIS *
                     *******************************

----------------------
LOEWDIN ATOMIC CHARGES
----------------------
   0 Si:    0.706173
   1 H :   -0.353094
   2 H :   -0.353079

-------------------------------
LOEWDIN REDUCED ORBITAL CHARGES
-------------------------------
  0 Sis       :     4.973793  s :     4.973793
      pz      :     3.083732  p :     8.176921
      px      :     1.994183
      py      :     3.099005
      dz2     :     0.073657  d :     0.122470
      dxz     :     0.000002
      dyz     :     0.001440
      dx2y2   :     0.047369
      dxy     :     0.000002
      f0      :     0.007504  f :     0.017900
      f+1     :     0.000002
      f-1     :     0.006570
      f+2     :     0.001446
      f-2     :     0.000000
      f+3     :     0.000003
      f-3     :     0.002374
      g0      :     0.001043  g :     0.002479
      g+1     :     0.000007
      g-1     :     0.000317
      g+2     :     0.000390
      g-2     :     0.000001
      g+3     :     0.000000
      g-3     :     0.000130
      g+4     :     0.000586
      g-4     :     0.000006
      h0      :     0.000099  h :     0.000264
      h+1     :     0.000003
      h-1     :     0.000007
      h+2     :     0.000019
      h-2     :     0.000000
      h+3     :     0.000000
      h-3     :     0.000039
      h+4     :     0.000011
      h-4     :     0.000000
      h+5     :     0.000002
      h-5     :     0.000084

  1 H s       :     1.016549  s :     1.016549
      pz      :     0.151966  p :     0.254653
      px      :     0.000343
      py      :     0.102344
      dz2     :     0.038203  d :     0.074037
      dxz     :     0.002262
      dyz     :     0.032250
      dx2y2   :     0.001322
      dxy     :     0.000000
      f0      :     0.006300  f :     0.007844
      f+1     :     0.000290
      f-1     :     0.001177
      f+2     :     0.000074
      f-2     :     0.000000
      f+3     :     0.000000
      f-3     :     0.000003
      g0      :     0.000010  g :     0.000012
      g+1     :     0.000000
      g-1     :     0.000002
      g+2     :     0.000000
      g-2     :     0.000000
      g+3     :     0.000000
      g-3     :     0.000000
      g+4     :     0.000000
      g-4     :     0.000000

  2 H s       :     1.016544  s :     1.016544
      pz      :     0.100884  p :     0.254647
      px      :     0.000343
      py      :     0.153420
      dz2     :     0.011031  d :     0.074034
      dxz     :     0.000002
      dyz     :     0.031707
      dx2y2   :     0.029034
      dxy     :     0.002260
      f0      :     0.000410  f :     0.007842
      f+1     :     0.000019
      f-1     :     0.002403
      f+2     :     0.000767
      f-2     :     0.000001
      f+3     :     0.000270
      f-3     :     0.003973
      g0      :     0.000001  g :     0.000012
      g+1     :     0.000000
      g-1     :     0.000001
      g+2     :     0.000003
      g-2     :     0.000000
      g+3     :     0.000000
      g-3     :     0.000001
      g+4     :     0.000006
      g-4     :     0.000000



                      *****************************
                      * MAYER POPULATION ANALYSIS *
                      *****************************

  NA   - Mulliken gross atomic population
  ZA   - Total nuclear charge
  QA   - Mulliken gross atomic charge
  VA   - Mayer's total valence
  BVA  - Mayer's bonded valence
  FA   - Mayer's free valence

  ATOM       NA         ZA         QA         VA         BVA        FA
  0 Si    13.6587    14.0000     0.3413     1.3110     1.3110    -0.0000
  1 H      1.1706     1.0000    -0.1706     0.7262     0.7262     0.0000
  2 H      1.1707     1.0000    -0.1707     0.7263     0.7263    -0.0000

  Mayer bond orders larger than 0.100000
B(  0-Si,  1-H ) :   0.6555 B(  0-Si,  2-H ) :   0.6555 

-------
TIMINGS
-------

Total SCF time: 0 days 0 hours 0 min 17 sec 

Total time                  ....      17.905 sec
Sum of individual times     ....      16.985 sec  ( 94.9%)

SCF preparation             ....       0.080 sec  (  0.4%)
Fock matrix formation       ....      16.377 sec  ( 91.5%)
  Startup                   ....       0.011 sec  (  0.1% of F)
  Coulomb formation         ....      16.261 sec  ( 99.3% of F)
  XC integration            ....       0.553 sec  (  3.4% of F)
    XC Preparation          ....       0.000 sec  (  0.0% of XC)
    Basis function eval.    ....       0.058 sec  ( 10.5% of XC)
    Density eval.           ....       0.050 sec  (  9.0% of XC)
    XC-Functional eval.     ....       0.017 sec  (  3.1% of XC)
    XC-Potential eval.      ....       0.138 sec  ( 24.9% of XC)
Diagonalization             ....       0.000 sec  (  0.0%)
Density matrix formation    ....       0.202 sec  (  1.1%)
Total Energy calculation    ....       0.027 sec  (  0.2%)
Population analysis         ....       0.014 sec  (  0.1%)
Orbital Transformation      ....       0.024 sec  (  0.1%)
Orbital Orthonormalization  ....       0.000 sec  (  0.0%)
DIIS solution               ....       0.151 sec  (  0.8%)
SOSCF solution              ....       0.110 sec  (  0.6%)
Finished LeanSCF after  17.9 sec

Maximum memory used throughout the entire LEANSCF-calculation: 84.5 MB


           ************************************************************
           *        Program running with 8 parallel MPI-processes     *
           *              working on a common directory               *
           ************************************************************

------------------------------------------------------------------------------
                         ORCA PROPERTY INTEGRAL CALCULATIONS
------------------------------------------------------------------------------

GBWName                                   ... /cluster/projects/nn14654k/ylvaos/basis_set_n_funcs/functionals/gga_c_N12/SiH2/inp/SiH2_gga_c_N12_pcseg4.gbw
Number of atoms                           ...      3
Number of basis functions                 ...    227
Max core memory                           ...   4096 MB

Dipole integrals                          ... YES
Quadrupole integrals                      ... YES
Linear momentum integrals                 ...  NO
Angular momentum integrals                ...  NO
Higher moments length integrals           ...  NO
Higher moments velocity integrals         ...  NO
Kinetic energy integrals                  ...  NO
GIAO right hand sides                     ...  NO
GIAO dipole derivative integrals          ...  NO
SOC integrals                             ...  NO
EPR diamagnetic integrals (GIAO)          ...  NO
EPR gauge integrals                       ...  NO
Field gradient integrals                  ...  NO (   0 nuclei)
Spin-dipole/Fermi contact integrals       ...  NO (   0 nuclei)
Contact density integrals                 ...  NO (   0 nuclei)
Nucleus-orbit integrals                   ...  NO (   0 nuclei)
Geometric perturbations                   ...  NO (   3 nuclei)

Choice of electric origin   ... Center of mass
Position of electric origin ... (  0.0000,  0.0958, -0.0925) 
Choice of magnetic origin   ... GIAO
Position of magnetic origin ... (  0.0000,  0.0000,  0.0000) 

Calculating integrals                     ... Electric Dipole (Length)     done (  0.0 sec)
Calculating integrals                     ... Electric Quadrupole (Length) done (  0.0 sec)

Property integrals calculated in   0.0 sec

Maximum memory used throughout the entire PROPINT-calculation: 19.4 MB
------------------------------------------------------------------------------
                           ORCA ORBITAL LOCALIZATION
------------------------------------------------------------------------------

Input orbitals are from                  ... /cluster/projects/nn14654k/ylvaos/basis_set_n_funcs/functionals/gga_c_N12/SiH2/inp/SiH2_gga_c_N12_pcseg4.gbw
Output orbitals are to                   ... /cluster/projects/nn14654k/ylvaos/basis_set_n_funcs/functionals/gga_c_N12/SiH2/inp/SiH2_gga_c_N12_pcseg4.loc
Max. number of iterations                ... 128
Localizations seeded randomly            ... on
Convergence tolerance                    ... 1.000e-06
Threshold for strong local MOs           ... 9.500e-01
Threshold for bond MOs                   ... 8.500e-01
Operator                                 ... 0
Orbital range for localization           ... 1 to 7
Localization criterion                   ... NEW-BOYS
Doing the dipole integrals               ... o.k.
Initial value of the localization sum :     9.342939
ITERATION   0 : L=   10.7930963365 DL=  1.45e+00 (AVERGE_DL)=    0.2627834032 
ITERATION   1 : L=   10.9774730911 DL=  1.84e-01 (AVERGE_DL)=    0.0937008295 
ITERATION   2 : L=   10.9796107557 DL=  2.14e-03 (AVERGE_DL)=    0.0100892790 
ITERATION   3 : L=   10.9797236273 DL=  1.13e-04 (AVERGE_DL)=    0.0023183704 
ITERATION   4 : L=   10.9797357021 DL=  1.21e-05 (AVERGE_DL)=    0.0007582808 
ITERATION   5 : L=   10.9797512646 DL=  1.56e-05 (AVERGE_DL)=    0.0008608557 
ITERATION   6 : L=   10.9797666714 DL=  1.54e-05 (AVERGE_DL)=    0.0008565373 
ITERATION   7 : L=   10.9797846705 DL=  1.80e-05 (AVERGE_DL)=    0.0009257964 
ITERATION   8 : L=   10.9798049867 DL=  2.03e-05 (AVERGE_DL)=    0.0009835850 
ITERATION   9 : L=   10.9798280884 DL=  2.31e-05 (AVERGE_DL)=    0.0010488460 
ITERATION  10 : L=   10.9798542821 DL=  2.62e-05 (AVERGE_DL)=    0.0011168339 
ITERATION  11 : L=   10.9798839545 DL=  2.97e-05 (AVERGE_DL)=    0.0011886851 
ITERATION  12 : L=   10.9799175080 DL=  3.36e-05 (AVERGE_DL)=    0.0012640355 
ITERATION  13 : L=   10.9799553724 DL=  3.79e-05 (AVERGE_DL)=    0.0013427835 
ITERATION  14 : L=   10.9799979975 DL=  4.26e-05 (AVERGE_DL)=    0.0014246985 
ITERATION  15 : L=   10.9800458448 DL=  4.78e-05 (AVERGE_DL)=    0.0015094513 
ITERATION  16 : L=   10.9800993762 DL=  5.35e-05 (AVERGE_DL)=    0.0015965942 
ITERATION  17 : L=   10.9801590400 DL=  5.97e-05 (AVERGE_DL)=    0.0016855676 
ITERATION  18 : L=   10.9802252527 DL=  6.62e-05 (AVERGE_DL)=    0.0017756636 
ITERATION  19 : L=   10.9802983765 DL=  7.31e-05 (AVERGE_DL)=    0.0018660357 
ITERATION  20 : L=   10.9803786948 DL=  8.03e-05 (AVERGE_DL)=    0.0019556787 
ITERATION  21 : L=   10.9804663839 DL=  8.77e-05 (AVERGE_DL)=    0.0020434465 
ITERATION  22 : L=   10.9805614844 DL=  9.51e-05 (AVERGE_DL)=    0.0021280488 
ITERATION  23 : L=   10.9806638734 DL=  1.02e-04 (AVERGE_DL)=    0.0022080919 
ITERATION  24 : L=   10.9807732410 DL=  1.09e-04 (AVERGE_DL)=    0.0022820998 
ITERATION  25 : L=   10.9808890726 DL=  1.16e-04 (AVERGE_DL)=    0.0023485722 
ITERATION  26 : L=   10.9810106419 DL=  1.22e-04 (AVERGE_DL)=    0.0024060370 
ITERATION  27 : L=   10.9811370162 DL=  1.26e-04 (AVERGE_DL)=    0.0024531253 
ITERATION  28 : L=   10.9812670764 DL=  1.30e-04 (AVERGE_DL)=    0.0024886424 
ITERATION  29 : L=   10.9813995504 DL=  1.32e-04 (AVERGE_DL)=    0.0025116299 
ITERATION  30 : L=   10.9815330608 DL=  1.34e-04 (AVERGE_DL)=    0.0025214358 
ITERATION  31 : L=   10.9816661821 DL=  1.33e-04 (AVERGE_DL)=    0.0025177588 
ITERATION  32 : L=   10.9817975013 DL=  1.31e-04 (AVERGE_DL)=    0.0025006595 
ITERATION  33 : L=   10.9819256799 DL=  1.28e-04 (AVERGE_DL)=    0.0024705750 
ITERATION  34 : L=   10.9820495078 DL=  1.24e-04 (AVERGE_DL)=    0.0024282854 
ITERATION  35 : L=   10.9821679476 DL=  1.18e-04 (AVERGE_DL)=    0.0023748665 
ITERATION  36 : L=   10.9822801637 DL=  1.12e-04 (AVERGE_DL)=    0.0023116277 
ITERATION  37 : L=   10.9823855372 DL=  1.05e-04 (AVERGE_DL)=    0.0022400418 
ITERATION  38 : L=   10.9824836657 DL=  9.81e-05 (AVERGE_DL)=    0.0021616625 
ITERATION  39 : L=   10.9825743514 DL=  9.07e-05 (AVERGE_DL)=    0.0020780678 
ITERATION  40 : L=   10.9826575789 DL=  8.32e-05 (AVERGE_DL)=    0.0019907826 
ITERATION  41 : L=   10.9827334870 DL=  7.59e-05 (AVERGE_DL)=    0.0019012290 
ITERATION  42 : L=   10.9828023389 DL=  6.89e-05 (AVERGE_DL)=    0.0018107068 
ITERATION  43 : L=   10.9828644910 DL=  6.22e-05 (AVERGE_DL)=    0.0017203567 
ITERATION  44 : L=   10.9829203649 DL=  5.59e-05 (AVERGE_DL)=    0.0016311536 
ITERATION  45 : L=   10.9829704215 DL=  5.01e-05 (AVERGE_DL)=    0.0015439061 
ITERATION  46 : L=   10.9830151399 DL=  4.47e-05 (AVERGE_DL)=    0.0014592628 
ITERATION  47 : L=   10.9830550005 DL=  3.99e-05 (AVERGE_DL)=    0.0013777245 
ITERATION  48 : L=   10.9830904719 DL=  3.55e-05 (AVERGE_DL)=    0.0012996590 
ITERATION  49 : L=   10.9831220013 DL=  3.15e-05 (AVERGE_DL)=    0.0012253161 
ITERATION  50 : L=   10.9831500084 DL=  2.80e-05 (AVERGE_DL)=    0.0011548466 
ITERATION  51 : L=   10.9831748816 DL=  2.49e-05 (AVERGE_DL)=    0.0010883184 
ITERATION  52 : L=   10.9831969760 DL=  2.21e-05 (AVERGE_DL)=    0.0010257263 
ITERATION  53 : L=   10.9832166134 DL=  1.96e-05 (AVERGE_DL)=    0.0009670143 
ITERATION  54 : L=   10.9832340832 DL=  1.75e-05 (AVERGE_DL)=    0.0009120819 
ITERATION  55 : L=   10.9832496434 DL=  1.56e-05 (AVERGE_DL)=    0.0008607907 
ITERATION  56 : L=   10.9832635232 DL=  1.39e-05 (AVERGE_DL)=    0.0008129848 
ITERATION  57 : L=   10.9832759251 DL=  1.24e-05 (AVERGE_DL)=    0.0007684848 
ITERATION  58 : L=   10.9832870277 DL=  1.11e-05 (AVERGE_DL)=    0.0007271129 
ITERATION  59 : L=   10.9832969870 DL=  9.96e-06 (AVERGE_DL)=    0.0006886603 
ITERATION  60 : L=   10.9833059402 DL=  8.95e-06 (AVERGE_DL)=    0.0006529476 
ITERATION  61 : L=   10.9833140066 DL=  8.07e-06 (AVERGE_DL)=    0.0006197730 
ITERATION  62 : L=   10.9833212910 DL=  7.28e-06 (AVERGE_DL)=    0.0005889596 
ITERATION  63 : L=   10.9833278838 DL=  6.59e-06 (AVERGE_DL)=    0.0005603059 
ITERATION  64 : L=   10.9833338642 DL=  5.98e-06 (AVERGE_DL)=    0.0005336510 
ITERATION  65 : L=   10.9833393013 DL=  5.44e-06 (AVERGE_DL)=    0.0005088279 
ITERATION  66 : L=   10.9833442550 DL=  4.95e-06 (AVERGE_DL)=    0.0004856896 
ITERATION  67 : L=   10.9833487777 DL=  4.52e-06 (AVERGE_DL)=    0.0004640732 
ITERATION  68 : L=   10.9833529147 DL=  4.14e-06 (AVERGE_DL)=    0.0004438482 
ITERATION  69 : L=   10.9833567066 DL=  3.79e-06 (AVERGE_DL)=    0.0004249282 
ITERATION  70 : L=   10.9833601878 DL=  3.48e-06 (AVERGE_DL)=    0.0004071541 
ITERATION  71 : L=   10.9833633885 DL=  3.20e-06 (AVERGE_DL)=    0.0003903999 
ITERATION  72 : L=   10.9833663362 DL=  2.95e-06 (AVERGE_DL)=    0.0003746580 
ITERATION  73 : L=   10.9833690542 DL=  2.72e-06 (AVERGE_DL)=    0.0003597635 
ITERATION  74 : L=   10.9833715640 DL=  2.51e-06 (AVERGE_DL)=    0.0003457042 
ITERATION  75 : L=   10.9833738833 DL=  2.32e-06 (AVERGE_DL)=    0.0003323296 
ITERATION  76 : L=   10.9833760295 DL=  2.15e-06 (AVERGE_DL)=    0.0003196858 
ITERATION  77 : L=   10.9833780164 DL=  1.99e-06 (AVERGE_DL)=    0.0003075981 
ITERATION  78 : L=   10.9833798579 DL=  1.84e-06 (AVERGE_DL)=    0.0002961284 
ITERATION  79 : L=   10.9833815653 DL=  1.71e-06 (AVERGE_DL)=    0.0002851345 
ITERATION  80 : L=   10.9833831497 DL=  1.58e-06 (AVERGE_DL)=    0.0002746825 
ITERATION  81 : L=   10.9833846203 DL=  1.47e-06 (AVERGE_DL)=    0.0002646288 
ITERATION  82 : L=   10.9833859861 DL=  1.37e-06 (AVERGE_DL)=    0.0002550216 
ITERATION  83 : L=   10.9833872548 DL=  1.27e-06 (AVERGE_DL)=    0.0002457966 
ITERATION  84 : L=   10.9833884338 DL=  1.18e-06 (AVERGE_DL)=    0.0002369385 
ITERATION  85 : L=   10.9833895295 DL=  1.10e-06 (AVERGE_DL)=    0.0002284252 
ITERATION  86 : L=   10.9833905482 DL=  1.02e-06 (AVERGE_DL)=    0.0002202475 
ITERATION  87 : L=   10.9833914952 DL=  9.47e-07 (AVERGE_DL)=    0.0002123541 
LOCALIZATION SUM CONVERGED


--------------------------------------------------------------------------------
                    LOCALIZED MOLECULAR ORBITAL COMPOSITIONS
--------------------------------------------------------------------------------

The Mulliken populations for each LMO on each atom are computed
The LMO`s will be ordered according to atom index and type
  (A) Strongly localized MO`s have populations of >=0.950 on one atom
  (B) Two center bond orbitals have populations of >=0.850 on two atoms
  (C) Other MO`s are considered to be `delocalized`

FOUND  -   5 strongly local MO`s
       -   2 two center bond MO`s
       -   0 significantly delocalized MO`s

Rather strongly localized orbitals:
MO   5:   0Si -   0.977239
MO   4:   0Si -   1.187375
MO   3:   0Si -   0.986826
MO   2:   0Si -   0.999681
MO   1:   0Si -   0.991247
Bond-like localized orbitals:
MO   7:   2H  -   0.701168  and   0Si -   0.341712
MO   6:   1H  -   0.701094  and   0Si -   0.341701
Localized MO's were stored in: /cluster/projects/nn14654k/ylvaos/basis_set_n_funcs/functionals/gga_c_N12/SiH2/inp/SiH2_gga_c_N12_pcseg4.loc

-------------------------   --------------------
FINAL SINGLE POINT ENERGY      -270.498674711668
-------------------------   --------------------



           ************************************************************
           *        Program running with 8 parallel MPI-processes     *
           *              working on a common directory               *
           ************************************************************

------------------------------------------------------------------------------
                              ORCA PROPERTY CALCULATIONS
------------------------------------------------------------------------------

GBWName                                 ... /cluster/projects/nn14654k/ylvaos/basis_set_n_funcs/functionals/gga_c_N12/SiH2/inp/SiH2_gga_c_N12_pcseg4.gbw
Number of atoms                         ...      3
Number of basis functions               ...    227
Max core memory                         ...   4096 MB

Electric properties:
Dipole moment                           ... YES
Quadrupole moment                       ... YES
Static polarizability (Dipole/Dipole)   ...  NO
Static polarizability (Dipole/Quad.)    ...  NO
Static polarizability (Quad./Quad.)     ...  NO
Static polarizability (Velocity)        ...  NO
Static hyperpolarizability              ...  NO

Atomic electric properties:
Dipole moment                           ...  NO
Quadrupole moment                       ...  NO
Static polarizability                   ...  NO

Choice of electric origin               ... Center of mass
Position of electric origin             ...     0.000000     0.095755    -0.092471

General magnetic properties:
Magnetizability                         ...  NO

EPR properties:
g-Tensor (aka g-matrix)                 ...  NO
Zero-Field splitting spin-orbit         ...  NO
Zero-field splitting spin-spin          ...  NO
Hyperfine couplings                     ...  NO (   0 nuclei)
Quadrupole couplings                    ...  NO (   0 nuclei)
Contact density                         ...  NO (   0 nuclei)

NMR properties:
Chemical shifts                         ...  NO (   0 nuclei)
Spin-rotation constants                 ...  NO (   0 nuclei)
Spin-spin couplings                     ...  NO (   0 nuclei,    0 pairs)

Choice of magnetic origin               ... GIAO
Position of magnetic origin             ...     0.000000     0.000000     0.000000

Properties with geometric perturbations:
SCF Hessian                             ...  NO
IR spectrum                             ...  NO
VCD spectrum                            ...  NO
X-ray spectroscopy properties:
SCF XES/XAS/RIXS spectra                ...  NO

SCF SOC stabilization energy            ...  NO
Diagonal Born-Oppenheimer correction    ...  NO

-------------
DIPOLE MOMENT
-------------

Method             : SCF
Type of density    : Electron Density
Multiplicity       :   1
Irrep              :   0
Energy             :  -270.4986747116678885 Eh
Basis              : AO
                                X                 Y                 Z
Electronic contribution:      0.000000000      -0.974518509       0.941085519
Nuclear contribution   :      0.000000000       1.327457389      -1.281928022
                        -----------------------------------------
Total Dipole Moment    :      0.000000000       0.352938880      -0.340842503
                        -----------------------------------------
Magnitude (a.u.)       :      0.490652082
Magnitude (Debye)      :      1.247138480



--------------------
Rotational spectrum 
--------------------
 
Rotational constants in cm-1:             8.101050             7.049111             3.769280 
Rotational constants in MHz :        242863.361200        211327.036298        113000.174884 

Dipole components along the rotational axes: 
x,y,z [a.u.] :    -0.000046    -0.490652     0.000000 
x,y,z [Debye]:    -0.000117    -1.247138     0.000000 

 

Dipole moment calculation done in   0.0 sec 

-----------------
QUADRUPOLE MOMENT
-----------------

Method             : SCF
Type of density    : Electron Density
Multiplicity       :   1
Irrep              :   0
Energy             :  -270.4986747116678885 Eh
Basis              : AO

                XX              YY              ZZ              XY              XZ              YZ
  NUC        0.000000000     7.776008003     7.822723490     0.000000000     0.000000000     0.672490579
  EL       -13.958873802   -27.046666545   -26.983343480    -0.000000007    -0.000000006     0.904965341
  TOT      -13.958873802   -19.270658542   -19.160619990    -0.000000007    -0.000000006     1.577455920 (a.u.)
           -18.775162658   -25.919694795   -25.771689180    -0.000000010    -0.000000008     2.121732161 (Buckingham)

diagonalized tensor:
           -20.794054388   -17.637224143   -13.958873802 (a.u.)
           -27.968714309   -23.722669666   -18.775162658 (Buckingham)
           -13.439596295    -0.701462365    14.141058660 (traceless form in Buckingham)

            -0.000000000     0.000000003     1.000000000
            -0.719325132     0.694673560    -0.000000002
             0.694673560     0.719325132    -0.000000002
        
Isotropic quadrupole :   -17.463384111

Quadrupole moment calculation done in   0.0 sec (  0.0 sec for integrals)

Maximum memory used throughout the entire PROP-calculation: 12.2 MB

--------------------------------
SUGGESTED CITATIONS FOR THIS RUN
--------------------------------

Below you find a list of papers that are relevant to this ORCA run
We neither can nor want to force you to cite these papers, but we appreciate if you do
You receive ORCA, which is the product of decades of hard work by many enthusiastic individuals, for free
The only thing we kindly ask in return is that you cite our papers,
We deeply appreciate it, if you show your appreciation for ORCA by not just citing the generic ORCA reference.

Please note that relegating all ORCA citations to the supporting information does *not* help us.
SI sections are not indexed - citations you put there will not count into any citation statistics
But we need these citations in order to attract the funding resources that allow us to do what we are doing

Therefore, if you are a happy ORCA user, please consider citing a few of the papers listed below in the main body of your paper

In addition to the list printed below, the program has created the file /cluster/projects/nn14654k/ylvaos/basis_set_n_funcs/functionals/gga_c_N12/SiH2/inp/SiH2_gga_c_N12_pcseg4.bibtex that contains the list in bibtex format
You can import this file easily into all common literature databanks and citation aid programs

It goes without saying that in many instances, there are alternative algorithms to achieve similar
results as the ones you have gotten from ORCA. It is, of course, also the case that in some instances
ORCA just re-implements algorithms worked out by others. We are fully aware of that and we are also
fully appreciative of our colleagues work. Hence this citation list should not be read as indicating
that the listed papers, which are focused on our own work, are the only ones worth citing. It simply
meant to make it easier for users to cite ORCA specific papers. It is not a substitute for doing your
own literature research and citing the relevant literature in a scientifically appropriate manner.

List of essential papers. We consider these as the minimum necessary citations

  1. Neese, F.
     Software update: the ORCA program system, version 6.0
     WIRES Comput. Molec. Sci. 2025 15(1), e70019
     doi.org/10.1002/wcms.70019

List of papers to cite with high priority. The work reported in these papers was absolutely
necessary for this run to complete.
Our perspective: the developers of density functionals and basis sets usually get cited in chemistry papers
Good! But without the algorithms to do something with them, the functionals or basis sets would not do anything.
Hence, in our opinion, the algorithm design and method developments papers are equally worthy of getting cited

  1. Lehtola, S.; Steigemann, C.; Oliveira, M.; Marques, M.
     Recent developments in Libxc - A comprehensive library of functionals for density functional theory
     Software X 2018 7 , 
     doi.org/10.1016/j.softx.2017.11.002
  2. Neese, F.
     The SHARK Integral Generation and Digestion System
     J. Comp. Chem. 2022 44(3), 381
     doi.org/10.1002/jcc.26942

List of suggested additional citations. These are papers that are important in the 'surrounding' of 
of this run, or papers that preceded the highly important papers. If you like your results we are grateful for a citation.

  1. Neese, F.
     The ORCA program system
     WIRES Comput. Molec. Sci. 2012 2(1), 73-78
     doi.org/10.1002/wcms.81
  2. Neese, F.
     Software update: the ORCA program system, version 4.0
     WIRES Comput. Molec. Sci. 2018 8(1), 1-6
     doi.org/10.1002/wcms.1327
  3. Neese, F.; Wennmohs, F.; Becker, U.; Riplinger, C.
     The ORCA quantum chemistry program package
     J. Chem. Phys. 2020 152(22), 224108
     doi.org/10.1063/5.0004608
  4. Neese, F.
     Software update: The ORCA program system—Version 5.0
     WIRES Comput. Molec. Sci. 2022 12(1), e1606
     doi.org/10.1002/wcms.1606

List of optional additional citations

  1. Neese, F.
     Approximate second-order SCF convergence for spin unrestricted wavefunctions
     Chem. Phys. Lett. 2000 325(1-3), 93-98
     doi.org/10.1016/s0009-2614(00)00662-x

Timings for individual modules:

Sum of individual times          ...       19.490 sec (=   0.325 min)
Startup calculation              ...        0.515 sec (=   0.009 min)   2.6 %
SCF iterations                   ...       18.486 sec (=   0.308 min)  94.9 %
Property integrals               ...        0.247 sec (=   0.004 min)   1.3 %
Property calculations            ...        0.235 sec (=   0.004 min)   1.2 %
Orbital localization             ...        0.005 sec (=   0.000 min)   0.0 %
                             ****ORCA TERMINATED NORMALLY****
TOTAL RUN TIME: 0 days 0 hours 0 minutes 20 seconds 161 msec
