
                                 *****************
                                 * O   R   C   A *
                                 *****************

                                            #,                                       
                                            ###                                      
                                            ####                                     
                                            #####                                    
                                            ######                                   
                                           ########,                                 
                                     ,,################,,,,,                         
                               ,,#################################,,                 
                          ,,##########################################,,             
                       ,#########################################, ''#####,          
                    ,#############################################,,   '####,        
                  ,##################################################,,,,####,       
                ,###########''''           ''''###############################       
              ,#####''   ,,,,##########,,,,          '''####'''          '####       
            ,##' ,,,,###########################,,,                        '##       
           ' ,,###''''                  '''############,,,                           
         ,,##''                                '''############,,,,        ,,,,,,###''
      ,#''                                            '''#######################'''  
     '                                                          ''''####''''         
             ,#######,   #######,   ,#######,      ##                                
            ,#'     '#,  ##    ##  ,#'     '#,    #''#        ,####,    ,#,          
            ##       ##  ##   ,#'  ##            #'  '#       #'       ,# #          
            ##       ##  #######   ##           ,######,      #####,      #          
            '#,     ,#'  ##    ##  '#,     ,#' ,#      #,     #,   #      #          
             '#######'   ##     ##  '#######'  #'      '#     '####' #    #          



                #########################################################
                #                        -***-                          #
                #          Department of theory and spectroscopy        #
                #                                                       #
                #                      Frank Neese                      #
                #                                                       #
                #     Directorship, Architecture, Infrastructure        #
                #                    SHARK, DRIVERS                     #
                #        Core code/Algorithms in most modules           #
                #                                                       #
                #        Max Planck Institute fuer Kohlenforschung      #
                #                Kaiser Wilhelm Platz 1                 #
                #                 D-45470 Muelheim/Ruhr                 #
                #                      Germany                          #
                #                                                       #
                #                  All rights reserved                  #
                #                        -***-                          #
                #########################################################


                         Program Version 6.1.1  -  RELEASE   -
                                (GIT: $487d211c$)
                          ($2025-11-21 10:33:24 +0100$)


 With contributions from (in alphabetic order):
[Max-Planck-Institut fuer Kohlenforschung]                               
  Daniel Aravena         : Magnetic Suceptibility                        
  Michael Atanasov       : Ab Initio Ligand Field Theory (pilot matlab implementation)
  Alexander A. Auer      : GIAO ZORA, VPT2 properties, NMR spectrum      
  Ute Becker             : All parallelization in ORCA, NUMFREQ, NUMCALC 
  Giovanni Bistoni       : ED, misc. LED, open-shell LED, HFLD           
  Dmytro Bykov           : pre 5.0 version of the SCF Hessian            
  Marcos Casanova-Páez   : Triplet and SCS-CIS(D). UHF-(DLPNO)-IP/EA/STEOM-CCSD. UHF-CVS-IP/STEOM-CCSD   
  Vijay G. Chilkuri      : MRCI spin determinant printing, contributions to CSF-ICE 
  Pauline Colinet        : FMM embedding                                 
  Dipayan Datta          : RHF DLPNO-CCSD density                        
  Achintya Kumar Dutta   : EOM-CC, STEOM-CC                              
  Nicolas Foglia         : Exact transition moments, OPA infrastructure, MCD improvements    
  Dmitry Ganyushin       : Spin-Orbit,Spin-Spin,Magnetic field MRCI      
  Miquel Garcia-Rates    : C-PCM and meta-GGA Hessian, CCSD/C-PCM, Gaussian charge scheme 
  Tiago L. C. Gouveia    : GS-ROHF, GS-ROCIS                             
  Yang Guo               : DLPNO-NEVPT2, F12-NEVPT2, CIM, IAO-localization        
  Andreas Hansen         : Spin unrestricted coupled pair/coupled cluster methods 
  Ingolf Harden          : AUTO-CI MPn and infrastructure                
  Benjamin Helmich-Paris : MC-RPA, TRAH-(SCF,CASSCF), AVAS, COSX integrals, SCF dyn. polar., MC-PDFT, srDFT 
  Lee Huntington         : MR-EOM, pCC                                   
  Robert Izsak           : Overlap fitted RIJCOSX, COSX-SCS-MP3, EOM     
  Riya Kayal             : Wick's Theorem for AUTO-CI, AUTO-CI UHF-CCSDT 
  Emily Kempfer          : AUTO-CI RHF CISDT and CCSDT, approximate NEVPT4
  Christian Kollmar      : KDIIS, OOCD, Brueckner-CCSD(T), CCSD density, CASPT2, CASPT2-K, improved NEVPT2 
  Axel Koslowski         : Symmetry handling                             
  Simone Kossmann        : meta-GGA functionals, TD-DFT gradient, OOMP2, (MP2 Hessian; deprecated post 5.0) 
  Lucas Lang             : DCDCAS, Hyperfine gauge corrections, ICE-SOC+SSC
  Marvin Lechner         : AUTO-CI (C++ implementation), FIC-MRCC        
  Spencer Leger          : CASSCF response                               
  Dagmar Lenk            : GEPOL surface, SMD, ORCA-2-JSON               
  Dimitrios Liakos       : Extrapolation schemes; Compound Job, Property file
  Dimitrios Manganas     : Further ROCIS development; embedding schemes. LFT, Crystal Embedding 
  Dimitrios Pantazis     : SARC Basis sets                               
  Anastasios Papadopoulos: AUTO-CI, single reference methods and gradients 
  Taras Petrenko         : pre 6.0 DFT Hessian and TD-DFT gradient,  ECA, NRVS 
  Petra Pikulova         : Analytic Raman intensities                    
  Peter Pinski           : DLPNO-MP2, DLPNO-MP2 Gradient                 
  Shashank Vittal Rao    : ES-AILFT, MagRelax                            
  Christoph Reimann      : Effective Core Potentials                     
  Marius Retegan         : Local ZFS, SOC                                
  Christoph Riplinger    : Optimizer, TS searches, QM/MM, DLPNO-CCSD(T), (RO)-DLPNO pert. Triples 
  Michael Roemelt        : Original ROCIS implementation, recursive CI coupling coefficients
  Masaaki Saitow         : Open-shell DLPNO-CCSD energy and density      
  Barbara Sandhoefer     : DKH picture change effects                    
  Yorick L. A. Schmerwitz: GMF and freeze-and-release deltaSCF, NEB S-IDPP initial path                    
  Kantharuban Sivalingam : CASSCF convergence/infrastructure, NEVPT2, NEVPT3, NEVPT4(SD), FIC-MRCI and CEPA variants
  Bernardo de Souza      : ESD, SOC TD-DFT                               
  Georgi L. Stoychev     : AutoAux, RI-MP2 NMR, DLPNO-MP2 response, X2C  
  Van Anh Tran           : RI-MP2 g-tensors                              
  Willem Van den Heuvel  : Paramagnetic NMR                              
  Zikuan Wang            : NOTCH, Electric field optimization            
  Frank Wennmohs         : Technical directorship and infrastructure     
  Hang Xu                : AUTO-CI-Response properties                   
                                                                         
[FACCTs GmbH]                                                            
  Markus Bursch, Nicolas Foglia, Miquel Garcia-Rates, Ingolf Harden, Hagen Neugebauer, Anastasios Papadopoulos, 
  Christoph Riplinger, Bernardo de Souza, Georgi L. Stoychev                                                    
                                                                 
  APM, various basis sets, CI-OPT, improved COSX, DLPNO-Multilevel,           
  DOCKER, DRACO, updates on ESD, Fragmentator, GOAT, IRC, LR-CPCM, L-BFGS, MBIS, meta-GGA TD-DFT gradient, ML-optimized integration grids, 
  MM, NACMEs, nearIR, NEB, NEB-TS, NL-DFT gradient (VV10), 2- and 3-layer-ONIOM, interface openCOSMO-RS, QMMM,   
  Crystal-QMMM, RESP, rigid body optimization, SF, symmetry and pop. for TD-DFT, various functionals, SOLVATOR                                   
                                                                         
[Other institutions]                                                     
  V. Asgeirsson          : NEB                                           
  Christoph Bannwarth    : sTDA-DFT, sTD-DFT, PBEh-3c, B97-3c, D3        
  Giovanni Bistoni       : ETS/NOCV, ADLD/ADEX, COVALED                  
  Martin Brehm           : Molecular dynamics                            
  Ronald Cardenas        : ETS/NOCV                                      
  Martina Colucci        : COVALED                                       
  Sebastian Ehlert       : rSCAN, r2SCAN, r2SCAN-3c, D4, dhf basis sets  
  Marvin Friede          : D4 for Fr, Ra, Ac-Lr                          
  Lars Goerigk           : TD-DFT with DH, B97 family of functionals     
  Stefan Grimme          : VdW corrections, initial TS optimization, DFT functionals, gCP, sTDA/sTD-DF 
  Waldemar Hujo          : DFT-NL                                        
  H. Jonsson             : NEB                                           
  Holger Kruse           : gCP                                           
  Marcel Mueller         : wB97X-3c, vDZP basis set                      
  Hagen Neugebauer       : wr2SCAN, Native XTB                           
  Gianluca Regni         : ADLD/ADEX                                     
  Tobias Risthaus        : pre 6.0 range-separated hybrid DFT and stability analysis
  Lukas Wittmann         : regularized MP2, r2SCAN double-hybrids, wr2SCAN        
                                                                         
We gratefully acknowledge several colleagues who have allowed us to      
interface, adapt or use parts of their codes:                            
  Ed Valeev, F. Pavosevic, A. Kumar             : LibInt (2-el integral package), F12 methods 
  Garnet Chan, S. Sharma, J. Yang, R. Olivares  : DMRG                   
  Ulf Ekstrom                                   : XCFun DFT Library      
  Mihaly Kallay                                 : mrcc  (arbitrary order and MRCC methods)
  Frank Weinhold                                : gennbo (NPA and NBO analysis)           
  Simon Mueller                                 : openCOSMO-RS                            
  Christopher J. Cramer and Donald G. Truhlar   : smd solvation model                     
  S Lehtola, MJT Oliveira, MAL Marques          : LibXC Library                           
  Liviu Ungur et al                             : ANISO software                          


 Your calculation uses the libint2 library for the computation of 2-el integrals
 For citations please refer to: http://libint.valeyev.net

 Your ORCA version has been built with support for libXC version: 7.0.0
 For citations please refer to: https://libxc.gitlab.io

 This ORCA versions uses:
   CBLAS   interface :  Fast vector & matrix operations
   LAPACKE interface :  Fast linear algebra routines
   SCALAPACK package :  Parallel linear algebra routines
   Shared memory     :  Shared parallel matrices
   BLAS/LAPACK       :  OpenBLAS 0.3.29  USE64BITINT DYNAMIC_ARCH NO_AFFINITY Cooperlake SINGLE_THREADED
        Core in use  :  Cooperlake
   Copyright (c) 2011-2014, The OpenBLAS Project


  ***********************************
  * Starting time: Wed May 20 12:36:45 2026
  * Host name:     c1-46
  * Process ID:    3932494
  * Working dir.:  /cluster/projects/nn14654k/ylvaos/basis_set_n_funcs/functionals/pbe/LiS/out
  ***********************************

================================================================================

----- Orbital basis set information -----
Your calculation utilizes the basis: pcseg-2
   F. Jensen, J. Chem. Theory Comput. 10, 1074 (2014).

================================================================================
                                        WARNINGS
                       Please study these warnings very carefully!
================================================================================


WARNING: your system is open-shell and RHF/RKS was chosen
  ===> : WILL SWITCH to UHF/UKS


================================================================================
                                       INPUT FILE
================================================================================
NAME = /cluster/projects/nn14654k/ylvaos/basis_set_n_funcs/functionals/pbe/LiS/inp/LiS_pbe_pcseg2.inp
|  1> ! dft pcseg-2 TightSCF
|  2> %pal nprocs 8 end
|  3> 
|  4> %loc
|  5>   LocMet NewBoys
|  6>   Occ true
|  7> end
|  8> 
|  9> %method
| 10>   
| 11>   functional pbe
| 12> end
| 13> 
| 14> %elprop
| 15>   Dipole true
| 16>   Quadrupole true
| 17> end
| 18> 
| 19> * xyz 0 2
| 20> Li    0.000000000000   0.000000000000  -1.074850000000
| 21> S    0.000000000000   0.000000000000   1.074850000000
| 22> *
| 23> 
| 24> 
| 25>                          ****END OF INPUT****
================================================================================

                       ****************************
                       * Single Point Calculation *
                       ****************************

---------------------------------
CARTESIAN COORDINATES (ANGSTROEM)
---------------------------------
  Li     0.000000    0.000000   -1.074850
  S      0.000000    0.000000    1.074850

----------------------------
CARTESIAN COORDINATES (A.U.)
----------------------------
  NO LB      ZA    FRAG     MASS         X           Y           Z
   0 Li    3.0000    0     6.941    0.000000    0.000000   -2.031172
   1 S    16.0000    0    32.060    0.000000    0.000000    2.031172

--------------------------------
INTERNAL COORDINATES (ANGSTROEM)
--------------------------------
 Li     0   0   0     0.000000000000     0.00000000     0.00000000
 S      1   0   0     2.149700000000     0.00000000     0.00000000

---------------------------
INTERNAL COORDINATES (A.U.)
---------------------------
 Li     0   0   0     0.000000000000     0.00000000     0.00000000
 S      1   0   0     4.062344270091     0.00000000     0.00000000

---------------------
BASIS SET INFORMATION
---------------------
There are 2 groups of distinct atoms

 Group   1 Type Li  : 11s4p1d contracted to 4s2p1d pattern {7211/31/1}
 Group   2 Type S   : 15s11p2d1f contracted to 5s4p2d1f pattern {83211/7211/11/1}

Atom   0Li   basis set group =>   1
Atom   1S    basis set group =>   2


           ************************************************************
           *        Program running with 8 parallel MPI-processes     *
           *              working on a common directory               *
           ************************************************************
------------------------------------------------------------------------------
                             ORCA STARTUP CALCULATIONS
------------------------------------------------------------------------------
------------------------------------------------------------------------------
                   ___                                                        
                  /   \      - P O W E R E D   B Y -                         
                 /     \                                                     
                 |  |  |   _    _      __       _____    __    __             
                 |  |  |  | |  | |    /  \     |  _  \  |  |  /  |          
                  \  \/   | |  | |   /    \    | | | |  |  | /  /          
                 / \  \   | |__| |  /  /\  \   | |_| |  |  |/  /          
                |  |  |   |  __  | /  /__\  \  |    /   |      \           
                |  |  |   | |  | | |   __   |  |    \   |  |\   \          
                \     /   | |  | | |  |  |  |  | |\  \  |  | \   \       
                 \___/    |_|  |_| |__|  |__|  |_| \__\ |__|  \__/        
                                                                              
                      - O R C A' S   B I G   F R I E N D -                    
                                      &                                       
                       - I N T E G R A L  F E E D E R -                       
                                                                              
 v1 FN, 2020, v2 2021, v3 2022-2024                                           
------------------------------------------------------------------------------


----------------------
SHARK INTEGRAL PACKAGE
----------------------

Number of atoms                             ...      2
Number of basis functions                   ...     49
Number of shells                            ...     19
Maximum angular momentum                    ...      3
Integral batch strategy                     ... SHARK/LIBINT Hybrid
RI-J (if used) integral strategy            ... SPLIT-RIJ (Revised 2003 algorithm where possible)
Printlevel                                  ...      1
Contraction scheme used                     ... SEGMENTED contraction
Prescreening option                         ... SCHWARTZ
   Thresh                                   ... 2.500e-11
   Tcut                                     ... 2.500e-12
   Tpresel                                  ... 2.500e-12 
Coulomb Range Separation                    ... NOT USED
Exchange Range Separation                   ... NOT USED
Multipole approximations                    ... NOT USED
Finite Nucleus Model                        ... NOT USED
CABS basis                                  ... NOT available
Auxiliary Coulomb fitting basis             ... NOT available
Auxiliary J/K fitting basis                 ... NOT available
Auxiliary Correlation fitting basis         ... NOT available
Auxiliary 'external' fitting basis          ... NOT available

Checking pre-screening integrals            ... done (  0.0 sec) Dimension = 19
   => SHARK Basis and OBASIS are compatible. Storing Pre-screening
Shell pair information
Shell pair cut-off parameter TPreSel        ...   2.5e-12
Total number of shell pairs                 ...       190
Shell pairs after pre-screening             ...       190
Total number of primitive shell pairs       ...      1114
Primitive shell pairs kept                  ...       994
          la=0 lb=0:     45 shell pairs
          la=1 lb=0:     54 shell pairs
          la=1 lb=1:     21 shell pairs
          la=2 lb=0:     27 shell pairs
          la=2 lb=1:     18 shell pairs
          la=2 lb=2:      6 shell pairs
          la=3 lb=0:      9 shell pairs
          la=3 lb=1:      6 shell pairs
          la=3 lb=2:      3 shell pairs
          la=3 lb=3:      1 shell pairs

Checking whether 4 symmetric matrices of dimension 49 fit in memory
:Max Core in MB      =   4096.00
 MB in use           =      2.16
 MB left             =   4093.84
 MB needed           =      0.04
 Data fit in memory  = YES
Calculating Nuclear repulsion               ... done (  0.0 sec) ENN=     11.815837557985 Eh

Diagonalization of the overlap matrix:
Smallest eigenvalue                        ... 2.035e-03
Time for diagonalization                   ...    0.000 sec
Threshold for overlap eigenvalues          ... 1.000e-07
Number of eigenvalues below threshold      ... 0
Time for construction of square roots      ...    0.001 sec
Total time needed                          ...    0.004 sec

-------------------
DFT GRID GENERATION
-------------------

General Integration Accuracy     IntAcc      ... 4.388
Radial Grid Type                 RadialGrid  ... OptM3 with GC (2021)
Angular Grid (max. ang.)         AngularGrid ... 4 (Lebedev-302)
Angular grid pruning method      GridPruning ... 4 (adaptive)
Weight generation scheme         WeightScheme... mBecke (2022)
Basis function cutoff            BFCut       ... 1.0000e-11
Integration weight cutoff        WCut        ... 1.0000e-14
Partially contracted basis set               ... off
Rotationally invariant grid construction     ... off
Angular grids for H and He will be reduced by one unit

Total number of grid points                  ...    13486
Total number of batches                      ...      212
Average number of points per batch           ...       63
Average number of grid points per atom       ...     6743
Grids setup in   0.1 sec
Initializing property integral containers    ... done (  0.0 sec)

SHARK setup successfully completed in   0.1 seconds

Maximum memory used throughout the entire STARTUP-calculation: 16.0 MB


           ************************************************************
           *        Program running with 8 parallel MPI-processes     *
           *              working on a common directory               *
           ************************************************************
-------------------------------------------------------------------------------
                                 ORCA GUESS
                   Start orbitals & Density for SCF / CASSCF
-------------------------------------------------------------------------------

------------
SCF SETTINGS
------------
Hamiltonian:
 Density Functional     Method          .... DFT(GTOs)
 Exchange Functional    Exchange        .... PBE
   PBE kappa parameter   XKappa         ....  0.804000
   PBE mue parameter    XMuePBE         ....  0.219520
 Correlation Functional Correlation     .... PBE
   PBE beta parameter  CBetaPBE         ....  0.066725
 LDA part of GGA corr.  LDAOpt          .... PW91-LDA
 Gradients option       PostSCFGGA      .... off
   NL short-range parameter             ....  6.400000


General Settings:
 Integral files         IntName         .... /cluster/projects/nn14654k/ylvaos/basis_set_n_funcs/functionals/pbe/LiS/inp/LiS_pbe_pcseg2
 Hartree-Fock type      HFTyp           .... UHF
 Total Charge           Charge          ....    0
 Multiplicity           Mult            ....    2
 Number of Electrons    NEL             ....   19
 Basis Dimension        Dim             ....   49
 Nuclear Repulsion      ENuc            ....     11.8158375580 Eh

Convergence Acceleration:
 AO-DIIS                CNVDIIS         .... on
   Start iteration      DIISMaxIt       ....    12
   Startup error        DIISStart       ....  0.200000
   # of expansion vecs  DIISMaxEq       ....     5
   Bias factor          DIISBfac        ....   1.050
   Max. coefficient     DIISMaxC        ....  10.000
 MO-DIIS                CNVKDIIS        .... off
 Trust-Rad. Augm. Hess. CNVTRAH         .... auto
   Auto Start mean grad. ratio tolernc. ....  1.125000
   Auto Start start iteration           ....    50
   Auto Start num. interpolation iter.  ....    10
   Max. Number of Micro iterations      ....    24
   Max. Number of Macro iterations      .... Maxiter - #DIIS iter
   Number of Davidson start vectors     ....     2
   Converg. threshold    (grad. norm)   ....   1.000e-05
   Grad. Scal. Fac. for Micro threshold ....   0.100
   Minimum threshold for Micro iter.    ....   1.000e-02
   NR start threshold (gradient norm)   ....   1.000e-04
   Initial trust radius                 ....   0.400
   Minimum AH scaling param. (alpha)    ....   1.000
   Maximum AH scaling param. (alpha)    .... 1000.000
   Quad. conv. algorithm                .... NR
   White noise on init. David. guess    .... on
   Maximum white noise                  ....   0.010
   Pseudo random numbers                .... off
   Inactive MOs                         .... canonical
   Orbital update algorithm             .... Taylor
   Preconditioner                       .... Diag
   Full preconditioner red. dimension   ....   250
 SOSCF                 CNVSOSCF           .... on
   Start iteration     SOSCFMaxIt         ....   150
   Startup grad/error  SOSCFStart         ....  0.003300
   Hessian update      SOSCFHessUp        .... L-BFGS
   Autom. constraints  SOSCFAutoConstrain .... off
 Level Shifting         CNVShift        .... on
   Level shift para.    LevelShift      ....    0.2500
   Turn off err/grad.   ShiftErr        ....    0.0010
 Zerner damping         CNVZerner       .... off
 Static damping         CNVDamp         .... on
   Fraction old density DampFac         ....    0.7000
   Max. Damping (<1)    DampMax         ....    0.9800
   Min. Damping (>=0)   DampMin         ....    0.0000
   Turn off err/grad.   DampErr         ....    0.1000

SCF Procedure:
 Maximum # iterations   MaxIter         ....   125
 SCF integral mode      SCFMode         .... Direct
   Integral package                     .... SHARK and LIBINT hybrid scheme
 Reset frequency        DirectResetFreq ....    20
 Integral Threshold     Thresh          ....  2.500e-11 Eh
 Primitive CutOff       TCut            ....  2.500e-12 Eh

Convergence Tolerance:
 Convergence Check Mode ConvCheckMode   .... Total+1el-Energy
 Convergence forced     ConvForced      .... 0
 Energy Change          TolE            ....  1.000e-08 Eh
 1-El. energy change                    ....  1.000e-05 Eh
 Orbital Gradient       TolG            ....  1.000e-05
 Orbital Rotation angle TolX            ....  1.000e-05
 DIIS Error             TolErr          ....  5.000e-07

------------------------------
INITIAL GUESS: MODEL POTENTIAL
------------------------------
Loading Hartree-Fock densities                     ... done
Calculating cut-offs                               ... done
Initializing the effective Hamiltonian             ... done
Setting up the integral package (SHARK)            ... done
Starting the Coulomb interaction                   ... done (   0.0 sec)
Making the grid                                    ... done (   0.0 sec)
Mapping shells                                     ... done
Starting the XC term evaluation                    ... done (   0.0 sec)
  promolecular density results
     # of electrons  =     18.999659774
     EX              =    -26.589782764
     EC              =     -0.660299167
     EX+EC           =    -27.250081931
Transforming the Hamiltonian                       ... done (   0.0 sec)
Diagonalizing the Hamiltonian                      ... done (   0.0 sec)
Back transforming the eigenvectors                 ... done (   0.0 sec)
Now organizing SCF variables                       ... done
                      ------------------
                      INITIAL GUESS DONE (   0.0 sec)
                      ------------------
             **** ENERGY FILE WAS UPDATED (/cluster/projects/nn14654k/ylvaos/basis_set_n_funcs/functionals/pbe/LiS/inp/LiS_pbe_pcseg2.en.tmp) ****
Finished Guess after   0.1 sec
Maximum memory used throughout the entire GUESS-calculation: 5.7 MB


           ************************************************************
           *        Program running with 8 parallel MPI-processes     *
           *              working on a common directory               *
           ************************************************************

-------------------------------------------------------------------------------------------
                                      ORCA LEAN-SCF
                              memory conserving SCF solver
-------------------------------------------------------------------------------------------

----------------------------------------D-I-I-S--------------------------------------------
Iteration    Energy (Eh)           Delta-E    RMSDP     MaxDP     DIISErr   Damp  Time(sec)
-------------------------------------------------------------------------------------------
               ***  Starting incremental Fock matrix formation  ***
    1    -405.4886529215910969     0.00e+00  5.97e-03  3.87e-02  6.03e-02  0.700   0.1
Warning: op=0 Small HOMO/LUMO gap (   0.060) - skipping pre-diagonalization
         Will do a full diagonalization
    2    -405.5052678284168906    -1.66e-02  4.85e-03  2.79e-02  3.41e-02  0.700   0.1
                               ***Turning on AO-DIIS***
    3    -405.5130802059825896    -7.81e-03  1.92e-03  1.33e-02  1.52e-02  0.700   0.1
    4    -405.5170811062072289    -4.00e-03  3.11e-03  1.95e-02  1.03e-02  0.000   0.1
    5    -405.5256798275351571    -8.60e-03  6.43e-04  3.96e-03  3.83e-03  0.000   0.1
                              *** Initializing SOSCF ***
---------------------------------------S-O-S-C-F--------------------------------------
Iteration    Energy (Eh)           Delta-E    RMSDP     MaxDP     MaxGrad    Time(sec)
--------------------------------------------------------------------------------------
    6    -405.5258677412639940    -1.88e-04  2.58e-04  1.30e-03  1.85e-03     0.1
               *** Restarting incremental Fock matrix formation ***
    7    -405.5259113790271499    -4.36e-05  3.00e-04  1.49e-03  9.89e-04     0.1
    8    -405.5259219898333640    -1.06e-05  2.07e-04  1.43e-03  7.87e-04     0.1
    9    -405.5259268149424656    -4.83e-06  3.71e-05  2.14e-04  1.61e-04     0.1
   10    -405.5259269357608218    -1.21e-07  9.20e-06  4.68e-05  4.81e-05     0.1
   11    -405.5259269513470599    -1.56e-08  3.44e-06  1.75e-05  1.75e-05     0.1
   12    -405.5259269530110373    -1.66e-09  7.96e-07  3.53e-06  7.50e-06     0.1
                 **** Energy Check signals convergence ****

               *****************************************************
               *                     SUCCESS                       *
               *           SCF CONVERGED AFTER  12 CYCLES          *
               *****************************************************

             **** ENERGY FILE WAS UPDATED (/cluster/projects/nn14654k/ylvaos/basis_set_n_funcs/functionals/pbe/LiS/inp/LiS_pbe_pcseg2.en.tmp) ****

----------------
TOTAL SCF ENERGY
----------------

Total Energy       :       -405.52592695314468 Eh          -11034.92148 eV

Components:
Nuclear Repulsion  :         11.81583755798484 Eh             321.52529 eV
Electronic Energy  :       -417.34176451112950 Eh          -11356.44676 eV
One Electron Energy:       -584.55648146119211 Eh          -15906.59054 eV
Two Electron Energy:        167.21471695006261 Eh            4550.14377 eV

Virial components:
Potential Energy   :       -810.67119179998713 Eh          -22059.48461 eV
Kinetic Energy     :        405.14526484684239 Eh           11024.56313 eV
Virial Ratio       :          2.00093956943183

DFT components:
N(Alpha)           :        9.999997527578 electrons
N(Beta)            :        8.999997638894 electrons
N(Total)           :       18.999995166472 electrons
E(X)               :      -26.702646011595 Eh       
E(C)               :       -0.668206445440 Eh       
E(XC)              :      -27.370852457035 Eh       

---------------
SCF CONVERGENCE
---------------

  Last Energy change         ...    1.6640e-09  Tolerance :   1.0000e-08
  Last MAX-Density change    ...    3.5253e-06  Tolerance :   1.0000e-07
  Last RMS-Density change    ...    7.9594e-07  Tolerance :   5.0000e-09
  Last DIIS Error            ...    1.8474e-03  Tolerance :   5.0000e-07
  Last Orbital Gradient      ...    7.5017e-06  Tolerance :   1.0000e-05
  Last Orbital Rotation      ...    9.4510e-06  Tolerance :   1.0000e-05


----------------------
UHF SPIN CONTAMINATION
----------------------

Warning: in a DFT calculation there is little theoretical justification to 
         calculate <S**2> as in Hartree-Fock theory. We will do it anyways
         but you should keep in mind that the values have only limited relevance

Expectation value of <S**2>     :     0.753262
Ideal value S*(S+1) for S=0.5   :     0.750000
Deviation                       :     0.003262

----------------
ORBITAL ENERGIES
----------------
                 SPIN UP ORBITALS
  NO   OCC          E(Eh)            E(eV) 
   0   1.0000     -87.974623     -2393.9112 
   1   1.0000      -7.611886      -207.1299 
   2   1.0000      -5.640668      -153.4904 
   3   1.0000      -5.624696      -153.0558 
   4   1.0000      -5.624099      -153.0395 
   5   1.0000      -1.896024       -51.5934 
   6   1.0000      -0.554149       -15.0792 
   7   1.0000      -0.217753        -5.9254 
   8   1.0000      -0.198279        -5.3954 
   9   1.0000      -0.175822        -4.7843 
  10   0.0000      -0.071245        -1.9387 
  11   0.0000      -0.011127        -0.3028 
  12   0.0000      -0.006851        -0.1864 
  13   0.0000       0.026843         0.7304 
  14   0.0000       0.066309         1.8044 
  15   0.0000       0.149214         4.0603 
  16   0.0000       0.153034         4.1643 
  17   0.0000       0.228181         6.2091 
  18   0.0000       0.278654         7.5826 
  19   0.0000       0.281088         7.6488 
  20   0.0000       0.302166         8.2224 

                 SPIN DOWN ORBITALS
  NO   OCC          E(Eh)            E(eV) 
   0   1.0000     -87.970478     -2393.7984 
   1   1.0000      -7.607537      -207.0116 
   2   1.0000      -5.628349      -153.1552 
   3   1.0000      -5.622078      -152.9845 
   4   1.0000      -5.621411      -152.9664 
   5   1.0000      -1.896059       -51.5944 
   6   1.0000      -0.519072       -14.1247 
   7   1.0000      -0.186257        -5.0683 
   8   1.0000      -0.164080        -4.4648 
   9   0.0000      -0.151104        -4.1118 
  10   0.0000      -0.070093        -1.9073 
  11   0.0000      -0.006771        -0.1842 
  12   0.0000      -0.001229        -0.0334 
  13   0.0000       0.034139         0.9290 
  14   0.0000       0.067327         1.8321 
  15   0.0000       0.152197         4.1415 
  16   0.0000       0.155983         4.2445 
  17   0.0000       0.237170         6.4537 
  18   0.0000       0.284800         7.7498 
  19   0.0000       0.308317         8.3897 
*Only the first 10 virtual orbitals were printed.

                    ********************************
                    * MULLIKEN POPULATION ANALYSIS *
                    ********************************

--------------------------------------------
MULLIKEN ATOMIC CHARGES AND SPIN POPULATIONS
--------------------------------------------
   0 Li:    0.463091    0.007948
   1 S :   -0.463091    0.992052
Sum of atomic charges         :    0.0000000
Sum of atomic spin populations:    1.0000000

-----------------------------------------------------
MULLIKEN REDUCED ORBITAL CHARGES AND SPIN POPULATIONS
-----------------------------------------------------
CHARGE
  0 Lis       :     2.182222  s :     2.182222
      pz      :     0.164200  p :     0.323292
      px      :     0.035186
      py      :     0.123907
      dz2     :     0.014285  d :     0.031396
      dxz     :     0.005176
      dyz     :     0.011923
      dx2y2   :     0.000012
      dxy     :     0.000000

  1 S s       :     5.936632  s :     5.936632
      pz      :     3.698253  p :    10.519510
      px      :     2.958779
      py      :     3.862478
      dz2     :     0.003242  d :     0.006450
      dxz     :     0.000748
      dyz     :     0.001506
      dx2y2   :     0.000954
      dxy     :     0.000000
      f0      :     0.000111  f :     0.000498
      f+1     :    -0.000014
      f-1     :     0.000056
      f+2     :     0.000089
      f-2     :     0.000000
      f+3     :     0.000126
      f-3     :     0.000131


SPIN
  0 Lis       :    -0.012675  s :    -0.012675
      pz      :    -0.007645  p :     0.016454
      px      :     0.035189
      py      :    -0.011089
      dz2     :    -0.000529  d :     0.004168
      dxz     :     0.005174
      dyz     :    -0.000485
      dx2y2   :     0.000008
      dxy     :     0.000000

  1 S s       :     0.010851  s :     0.010851
      pz      :     0.009213  p :     0.979509
      px      :     0.958778
      py      :     0.011518
      dz2     :    -0.000008  d :     0.001520
      dxz     :     0.000748
      dyz     :    -0.000013
      dx2y2   :     0.000793
      dxy     :     0.000000
      f0      :    -0.000090  f :     0.000173
      f+1     :    -0.000014
      f-1     :    -0.000052
      f+2     :     0.000082
      f-2     :     0.000000
      f+3     :     0.000126
      f-3     :     0.000121



                     *******************************
                     * LOEWDIN POPULATION ANALYSIS *
                     *******************************

-------------------------------------------
LOEWDIN ATOMIC CHARGES AND SPIN POPULATIONS
-------------------------------------------
   0 Li:    0.137682    0.040562
   1 S :   -0.137682    0.959438

----------------------------------------------------
LOEWDIN REDUCED ORBITAL CHARGES AND SPIN POPULATIONS
----------------------------------------------------
CHARGE
  0 Lis       :     2.261296  s :     2.261296
      pz      :     0.290566  p :     0.494304
      px      :     0.049956
      py      :     0.153783
      dz2     :     0.063297  d :     0.106719
      dxz     :     0.014177
      dyz     :     0.029232
      dx2y2   :     0.000013
      dxy     :     0.000000

  1 S s       :     5.693369  s :     5.693369
      pz      :     3.686617  p :    10.437802
      px      :     2.935274
      py      :     3.815911
      dz2     :     0.003509  d :     0.005819
      dxz     :     0.000435
      dyz     :     0.000922
      dx2y2   :     0.000953
      dxy     :     0.000000
      f0      :     0.000292  f :     0.000692
      f+1     :     0.000033
      f-1     :     0.000022
      f+2     :     0.000089
      f-2     :     0.000000
      f+3     :     0.000126
      f-3     :     0.000131


SPIN
  0 Lis       :    -0.008984  s :    -0.008984
      pz      :    -0.003933  p :     0.035333
      px      :     0.049948
      py      :    -0.010683
      dz2     :     0.000285  d :     0.014214
      dxz     :     0.014171
      dyz     :    -0.000250
      dx2y2   :     0.000009
      dxy     :     0.000000

  1 S s       :     0.005870  s :     0.005870
      pz      :     0.005302  p :     0.951447
      px      :     0.935288
      py      :     0.010857
      dz2     :     0.000611  d :     0.001814
      dxz     :     0.000435
      dyz     :    -0.000025
      dx2y2   :     0.000793
      dxy     :     0.000000
      f0      :    -0.000034  f :     0.000307
      f+1     :     0.000033
      f-1     :    -0.000021
      f+2     :     0.000082
      f-2     :     0.000000
      f+3     :     0.000126
      f-3     :     0.000121



                      *****************************
                      * MAYER POPULATION ANALYSIS *
                      *****************************

  NA   - Mulliken gross atomic population
  ZA   - Total nuclear charge
  QA   - Mulliken gross atomic charge
  VA   - Mayer's total valence
  BVA  - Mayer's bonded valence
  FA   - Mayer's free valence

  ATOM       NA         ZA         QA         VA         BVA        FA
  0 Li     2.5369     3.0000     0.4631     0.9350     0.9329     0.0022
  1 S     16.4631    16.0000    -0.4631     1.8591     0.9329     0.9262

  Mayer bond orders larger than 0.100000
B(  0-Li,  1-S ) :   0.9329 

-------
TIMINGS
-------

Total SCF time: 0 days 0 hours 0 min 1 sec 

Total time                  ....       1.185 sec
Sum of individual times     ....       1.095 sec  ( 92.4%)

SCF preparation             ....       0.063 sec  (  5.3%)
Fock matrix formation       ....       0.629 sec  ( 53.0%)
  Startup                   ....       0.015 sec  (  2.4% of F)
  Coulomb formation         ....       0.148 sec  ( 23.5% of F)
  XC integration            ....       0.258 sec  ( 41.0% of F)
    XC Preparation          ....       0.000 sec  (  0.0% of XC)
    Basis function eval.    ....       0.016 sec  (  6.4% of XC)
    Density eval.           ....       0.009 sec  (  3.4% of XC)
    XC-Functional eval.     ....       0.009 sec  (  3.5% of XC)
    XC-Potential eval.      ....       0.018 sec  (  7.1% of XC)
Diagonalization             ....       0.000 sec  (  0.0%)
Density matrix formation    ....       0.108 sec  (  9.1%)
Total Energy calculation    ....       0.022 sec  (  1.8%)
Population analysis         ....       0.012 sec  (  1.0%)
Orbital Transformation      ....       0.019 sec  (  1.6%)
Orbital Orthonormalization  ....       0.000 sec  (  0.0%)
DIIS solution               ....       0.126 sec  ( 10.6%)
SOSCF solution              ....       0.116 sec  (  9.8%)
Finished LeanSCF after   1.2 sec

Maximum memory used throughout the entire LEANSCF-calculation: 14.9 MB


           ************************************************************
           *        Program running with 8 parallel MPI-processes     *
           *              working on a common directory               *
           ************************************************************

------------------------------------------------------------------------------
                         ORCA PROPERTY INTEGRAL CALCULATIONS
------------------------------------------------------------------------------

GBWName                                   ... /cluster/projects/nn14654k/ylvaos/basis_set_n_funcs/functionals/pbe/LiS/inp/LiS_pbe_pcseg2.gbw
Number of atoms                           ...      2
Number of basis functions                 ...     49
Max core memory                           ...   4096 MB

Dipole integrals                          ... YES
Quadrupole integrals                      ... YES
Linear momentum integrals                 ...  NO
Angular momentum integrals                ...  NO
Higher moments length integrals           ...  NO
Higher moments velocity integrals         ...  NO
Kinetic energy integrals                  ...  NO
GIAO right hand sides                     ...  NO
GIAO dipole derivative integrals          ...  NO
SOC integrals                             ...  NO
EPR diamagnetic integrals (GIAO)          ...  NO
EPR gauge integrals                       ...  NO
Field gradient integrals                  ...  NO (   0 nuclei)
Spin-dipole/Fermi contact integrals       ...  NO (   0 nuclei)
Contact density integrals                 ...  NO (   0 nuclei)
Nucleus-orbit integrals                   ...  NO (   0 nuclei)
Geometric perturbations                   ...  NO (   2 nuclei)

Choice of electric origin   ... Center of mass
Position of electric origin ... (  0.0000,  0.0000,  1.3082) 
Choice of magnetic origin   ... GIAO
Position of magnetic origin ... (  0.0000,  0.0000,  0.0000) 

Calculating integrals                     ... Electric Dipole (Length)     done (  0.0 sec)
Calculating integrals                     ... Electric Quadrupole (Length) done (  0.0 sec)

Property integrals calculated in   0.0 sec

Maximum memory used throughout the entire PROPINT-calculation: 5.9 MB
------------------------------------------------------------------------------
                           ORCA ORBITAL LOCALIZATION
------------------------------------------------------------------------------

Input orbitals are from                  ... /cluster/projects/nn14654k/ylvaos/basis_set_n_funcs/functionals/pbe/LiS/inp/LiS_pbe_pcseg2.gbw
Output orbitals are to                   ... /cluster/projects/nn14654k/ylvaos/basis_set_n_funcs/functionals/pbe/LiS/inp/LiS_pbe_pcseg2.loc
Max. number of iterations                ... 128
Localizations seeded randomly            ... on
Convergence tolerance                    ... 1.000e-06
Threshold for strong local MOs           ... 9.500e-01
Threshold for bond MOs                   ... 8.500e-01
Operator                                 ... 0
Orbital range for localization           ... 5 to 9
Localization criterion                   ... NEW-BOYS
Doing the dipole integrals               ... o.k.
Initial value of the localization sum :    12.318633
ITERATION   0 : L=   15.5936075878 DL=  3.27e+00 (AVERGE_DL)=    0.5722739275 
ITERATION   1 : L=   15.7781768963 DL=  1.85e-01 (AVERGE_DL)=    0.1358562875 
ITERATION   2 : L=   15.8112187951 DL=  3.30e-02 (AVERGE_DL)=    0.0574820831 
ITERATION   3 : L=   15.8377166045 DL=  2.65e-02 (AVERGE_DL)=    0.0514760230 
ITERATION   4 : L=   15.8532513064 DL=  1.55e-02 (AVERGE_DL)=    0.0394140862 
ITERATION   5 : L=   15.8630023869 DL=  9.75e-03 (AVERGE_DL)=    0.0312267202 
ITERATION   6 : L=   15.8689203964 DL=  5.92e-03 (AVERGE_DL)=    0.0243269593 
ITERATION   7 : L=   15.8727460854 DL=  3.83e-03 (AVERGE_DL)=    0.0195593687 
ITERATION   8 : L=   15.8754534165 DL=  2.71e-03 (AVERGE_DL)=    0.0164539694 
ITERATION   9 : L=   15.8775662469 DL=  2.11e-03 (AVERGE_DL)=    0.0145355785 
ITERATION  10 : L=   15.8793466945 DL=  1.78e-03 (AVERGE_DL)=    0.0133433414 
ITERATION  11 : L=   15.8809193044 DL=  1.57e-03 (AVERGE_DL)=    0.0125403745 
ITERATION  12 : L=   15.8823404932 DL=  1.42e-03 (AVERGE_DL)=    0.0119213623 
ITERATION  13 : L=   15.8836346830 DL=  1.29e-03 (AVERGE_DL)=    0.0113762463 
ITERATION  14 : L=   15.8848125523 DL=  1.18e-03 (AVERGE_DL)=    0.0108529685 
ITERATION  15 : L=   15.8858797957 DL=  1.07e-03 (AVERGE_DL)=    0.0103307473 
ITERATION  16 : L=   15.8868410583 DL=  9.61e-04 (AVERGE_DL)=    0.0098044002 
ITERATION  17 : L=   15.8877014688 DL=  8.60e-04 (AVERGE_DL)=    0.0092758316 
ITERATION  18 : L=   15.8884670339 DL=  7.66e-04 (AVERGE_DL)=    0.0087496575 
ITERATION  19 : L=   15.8891445346 DL=  6.78e-04 (AVERGE_DL)=    0.0082310432 
ITERATION  20 : L=   15.8897412459 DL=  5.97e-04 (AVERGE_DL)=    0.0077247091 
ITERATION  21 : L=   15.8902646309 DL=  5.23e-04 (AVERGE_DL)=    0.0072345350 
ITERATION  22 : L=   15.8907220758 DL=  4.57e-04 (AVERGE_DL)=    0.0067634673 
ITERATION  23 : L=   15.8911206874 DL=  3.99e-04 (AVERGE_DL)=    0.0063135699 
ITERATION  24 : L=   15.8914671535 DL=  3.46e-04 (AVERGE_DL)=    0.0058861370 
ITERATION  25 : L=   15.8917676575 DL=  3.01e-04 (AVERGE_DL)=    0.0054818240 
ITERATION  26 : L=   15.8920278367 DL=  2.60e-04 (AVERGE_DL)=    0.0051007769 
ITERATION  27 : L=   15.8922527732 DL=  2.25e-04 (AVERGE_DL)=    0.0047427474 
ITERATION  28 : L=   15.8924470067 DL=  1.94e-04 (AVERGE_DL)=    0.0044071927 
ITERATION  29 : L=   15.8926145625 DL=  1.68e-04 (AVERGE_DL)=    0.0040933577 
ITERATION  30 : L=   15.8927589872 DL=  1.44e-04 (AVERGE_DL)=    0.0038003251 
ITERATION  31 : L=   15.8928833954 DL=  1.24e-04 (AVERGE_DL)=    0.0035271543 
ITERATION  32 : L=   15.8929905043 DL=  1.07e-04 (AVERGE_DL)=    0.0032727494 
ITERATION  33 : L=   15.8930826803 DL=  9.22e-05 (AVERGE_DL)=    0.0030360501 
ITERATION  34 : L=   15.8931619790 DL=  7.93e-05 (AVERGE_DL)=    0.0028160031 
ITERATION  35 : L=   15.8932301818 DL=  6.82e-05 (AVERGE_DL)=    0.0026115665 
ITERATION  36 : L=   15.8932888296 DL=  5.86e-05 (AVERGE_DL)=    0.0024217301 
ITERATION  37 : L=   15.8933392530 DL=  5.04e-05 (AVERGE_DL)=    0.0022455156 
ITERATION  38 : L=   15.8933826006 DL=  4.33e-05 (AVERGE_DL)=    0.0020820100 
ITERATION  39 : L=   15.8934198623 DL=  3.73e-05 (AVERGE_DL)=    0.0019303286 
ITERATION  40 : L=   15.8934518906 DL=  3.20e-05 (AVERGE_DL)=    0.0017896437 
ITERATION  41 : L=   15.8934794193 DL=  2.75e-05 (AVERGE_DL)=    0.0016591801 
ITERATION  42 : L=   15.8935030804 DL=  2.37e-05 (AVERGE_DL)=    0.0015382147 
ITERATION  43 : L=   15.8935234167 DL=  2.03e-05 (AVERGE_DL)=    0.0014260547 
ITERATION  44 : L=   15.8935408951 DL=  1.75e-05 (AVERGE_DL)=    0.0013220597 
ITERATION  45 : L=   15.8935559179 DL=  1.50e-05 (AVERGE_DL)=    0.0012256739 
ITERATION  46 : L=   15.8935688301 DL=  1.29e-05 (AVERGE_DL)=    0.0011363188 
ITERATION  47 : L=   15.8935799283 DL=  1.11e-05 (AVERGE_DL)=    0.0010534786 
ITERATION  48 : L=   15.8935894675 DL=  9.54e-06 (AVERGE_DL)=    0.0009766918 
ITERATION  49 : L=   15.8935976669 DL=  8.20e-06 (AVERGE_DL)=    0.0009055053 
ITERATION  50 : L=   15.8936047149 DL=  7.05e-06 (AVERGE_DL)=    0.0008395201 
ITERATION  51 : L=   15.8936107731 DL=  6.06e-06 (AVERGE_DL)=    0.0007783473 
ITERATION  52 : L=   15.8936159809 DL=  5.21e-06 (AVERGE_DL)=    0.0007216473 
ITERATION  53 : L=   15.8936204575 DL=  4.48e-06 (AVERGE_DL)=    0.0006690748 
ITERATION  54 : L=   15.8936243057 DL=  3.85e-06 (AVERGE_DL)=    0.0006203425 
ITERATION  55 : L=   15.8936276136 DL=  3.31e-06 (AVERGE_DL)=    0.0005751455 
ITERATION  56 : L=   15.8936304576 DL=  2.84e-06 (AVERGE_DL)=    0.0005332826 
ITERATION  57 : L=   15.8936329024 DL=  2.44e-06 (AVERGE_DL)=    0.0004944573 
ITERATION  58 : L=   15.8936350041 DL=  2.10e-06 (AVERGE_DL)=    0.0004584357 
ITERATION  59 : L=   15.8936368110 DL=  1.81e-06 (AVERGE_DL)=    0.0004250796 
ITERATION  60 : L=   15.8936383643 DL=  1.55e-06 (AVERGE_DL)=    0.0003941180 
ITERATION  61 : L=   15.8936396999 DL=  1.34e-06 (AVERGE_DL)=    0.0003654568 
ITERATION  62 : L=   15.8936408480 DL=  1.15e-06 (AVERGE_DL)=    0.0003388338 
ITERATION  63 : L=   15.8936418352 DL=  9.87e-07 (AVERGE_DL)=    0.0003141982 
LOCALIZATION SUM CONVERGED


--------------------------------------------------------------------------------
                    LOCALIZED MOLECULAR ORBITAL COMPOSITIONS
--------------------------------------------------------------------------------

The Mulliken populations for each LMO on each atom are computed
The LMO`s will be ordered according to atom index and type
  (A) Strongly localized MO`s have populations of >=0.950 on one atom
  (B) Two center bond orbitals have populations of >=0.850 on two atoms
  (C) Other MO`s are considered to be `delocalized`

FOUND  -   3 strongly local MO`s
       -   2 two center bond MO`s
       -   0 significantly delocalized MO`s

Rather strongly localized orbitals:
MO   7:   1S  -   0.978367
MO   6:   1S  -   0.978289
MO   5:   0Li -   1.000673
Bond-like localized orbitals:
MO   9:   1S  -   0.885870  and   0Li -   0.114130
MO   8:   1S  -   0.885846  and   0Li -   0.114154
Localized MO's were stored in: /cluster/projects/nn14654k/ylvaos/basis_set_n_funcs/functionals/pbe/LiS/inp/LiS_pbe_pcseg2.loc
------------------------------------------------------------------------------
                           ORCA ORBITAL LOCALIZATION
------------------------------------------------------------------------------

Input orbitals are from                  ... /cluster/projects/nn14654k/ylvaos/basis_set_n_funcs/functionals/pbe/LiS/inp/LiS_pbe_pcseg2.loc
Output orbitals are to                   ... /cluster/projects/nn14654k/ylvaos/basis_set_n_funcs/functionals/pbe/LiS/inp/LiS_pbe_pcseg2.loc
Max. number of iterations                ... 128
Localizations seeded randomly            ... on
Convergence tolerance                    ... 1.000e-06
Threshold for strong local MOs           ... 9.500e-01
Threshold for bond MOs                   ... 8.500e-01
Operator                                 ... 1
Orbital range for localization           ... 5 to 8
Localization criterion                   ... NEW-BOYS
Doing the dipole integrals               ... o.k.
Initial value of the localization sum :    11.952470
ITERATION   0 : L=   14.9282465720 DL=  2.98e+00 (AVERGE_DL)=    0.7042462493 
ITERATION   1 : L=   15.1275440980 DL=  1.99e-01 (AVERGE_DL)=    0.1822532697 
ITERATION   2 : L=   15.1791664247 DL=  5.16e-02 (AVERGE_DL)=    0.0927562457 
ITERATION   3 : L=   15.2256807502 DL=  4.65e-02 (AVERGE_DL)=    0.0880476439 
ITERATION   4 : L=   15.2553681593 DL=  2.97e-02 (AVERGE_DL)=    0.0703413214 
ITERATION   5 : L=   15.2729293431 DL=  1.76e-02 (AVERGE_DL)=    0.0541004988 
ITERATION   6 : L=   15.2824996207 DL=  9.57e-03 (AVERGE_DL)=    0.0399380303 
ITERATION   7 : L=   15.2874939056 DL=  4.99e-03 (AVERGE_DL)=    0.0288510106 
ITERATION   8 : L=   15.2900327791 DL=  2.54e-03 (AVERGE_DL)=    0.0205705029 
ITERATION   9 : L=   15.2913042622 DL=  1.27e-03 (AVERGE_DL)=    0.0145572612 
ITERATION  10 : L=   15.2919354879 DL=  6.31e-04 (AVERGE_DL)=    0.0102569137 
ITERATION  11 : L=   15.2922472403 DL=  3.12e-04 (AVERGE_DL)=    0.0072082411 
ITERATION  12 : L=   15.2924007262 DL=  1.53e-04 (AVERGE_DL)=    0.0050577633 
ITERATION  13 : L=   15.2924761451 DL=  7.54e-05 (AVERGE_DL)=    0.0035453942 
ITERATION  14 : L=   15.2925131572 DL=  3.70e-05 (AVERGE_DL)=    0.0024836834 
ITERATION  15 : L=   15.2925313064 DL=  1.81e-05 (AVERGE_DL)=    0.0017392138 
ITERATION  16 : L=   15.2925402012 DL=  8.89e-06 (AVERGE_DL)=    0.0012175654 
ITERATION  17 : L=   15.2925445589 DL=  4.36e-06 (AVERGE_DL)=    0.0008522222 
ITERATION  18 : L=   15.2925466932 DL=  2.13e-06 (AVERGE_DL)=    0.0005964304 
ITERATION  19 : L=   15.2925477383 DL=  1.05e-06 (AVERGE_DL)=    0.0004173475 
ITERATION  20 : L=   15.2925482502 DL=  5.12e-07 (AVERGE_DL)=    0.0002920972 
LOCALIZATION SUM CONVERGED


--------------------------------------------------------------------------------
                    LOCALIZED MOLECULAR ORBITAL COMPOSITIONS
--------------------------------------------------------------------------------

The Mulliken populations for each LMO on each atom are computed
The LMO`s will be ordered according to atom index and type
  (A) Strongly localized MO`s have populations of >=0.950 on one atom
  (B) Two center bond orbitals have populations of >=0.850 on two atoms
  (C) Other MO`s are considered to be `delocalized`

FOUND  -   2 strongly local MO`s
       -   2 two center bond MO`s
       -   0 significantly delocalized MO`s

Rather strongly localized orbitals:
MO   6:   1S  -   0.977026
MO   5:   0Li -   1.000712
Bond-like localized orbitals:
MO   8:   1S  -   0.879570  and   0Li -   0.120430
MO   7:   1S  -   0.879735  and   0Li -   0.120265
Localized MO's were stored in: /cluster/projects/nn14654k/ylvaos/basis_set_n_funcs/functionals/pbe/LiS/inp/LiS_pbe_pcseg2.loc

-------------------------   --------------------
FINAL SINGLE POINT ENERGY      -405.525926953145
-------------------------   --------------------



           ************************************************************
           *        Program running with 8 parallel MPI-processes     *
           *              working on a common directory               *
           ************************************************************

------------------------------------------------------------------------------
                              ORCA PROPERTY CALCULATIONS
------------------------------------------------------------------------------

GBWName                                 ... /cluster/projects/nn14654k/ylvaos/basis_set_n_funcs/functionals/pbe/LiS/inp/LiS_pbe_pcseg2.gbw
Number of atoms                         ...      2
Number of basis functions               ...     49
Max core memory                         ...   4096 MB

Electric properties:
Dipole moment                           ... YES
Quadrupole moment                       ... YES
Static polarizability (Dipole/Dipole)   ...  NO
Static polarizability (Dipole/Quad.)    ...  NO
Static polarizability (Quad./Quad.)     ...  NO
Static polarizability (Velocity)        ...  NO
Static hyperpolarizability              ...  NO

Atomic electric properties:
Dipole moment                           ...  NO
Quadrupole moment                       ...  NO
Static polarizability                   ...  NO

Choice of electric origin               ... Center of mass
Position of electric origin             ...     0.000000     0.000000     1.308198

General magnetic properties:
Magnetizability                         ...  NO

EPR properties:
g-Tensor (aka g-matrix)                 ...  NO
Zero-Field splitting spin-orbit         ...  NO
Zero-field splitting spin-spin          ...  NO
Hyperfine couplings                     ...  NO (   0 nuclei)
Quadrupole couplings                    ...  NO (   0 nuclei)
Contact density                         ...  NO (   0 nuclei)

NMR properties:
Chemical shifts                         ...  NO (   0 nuclei)
Spin-rotation constants                 ...  NO (   0 nuclei)
Spin-spin couplings                     ...  NO (   0 nuclei,    0 pairs)

Choice of magnetic origin               ... GIAO
Position of magnetic origin             ...     0.000000     0.000000     0.000000

Properties with geometric perturbations:
SCF Hessian                             ...  NO
IR spectrum                             ...  NO
VCD spectrum                            ...  NO
X-ray spectroscopy properties:
SCF XES/XAS/RIXS spectra                ...  NO

SCF SOC stabilization energy            ...  NO
Diagonal Born-Oppenheimer correction    ...  NO

-------------
DIPOLE MOMENT
-------------

Method             : SCF
Type of density    : Electron Density
Multiplicity       :   2
Irrep              :   0
Energy             :  -405.5259269531446762 Eh
Basis              : AO
                                X                 Y                 Z
Electronic contribution:     -0.000000000       0.000000000      -4.226405379
Nuclear contribution   :      0.000000000       0.000000000       1.549484202
                        -----------------------------------------
Total Dipole Moment    :     -0.000000000       0.000000000      -2.676921177
                        -----------------------------------------
Magnitude (a.u.)       :      2.676921177
Magnitude (Debye)      :      6.804192895



--------------------
Rotational spectrum 
--------------------
 
Rotational constants in cm-1:             0.000000             0.639339             0.639339 
Rotational constants in MHz :             0.000000         19166.891897         19166.891897 

Dipole components along the rotational axes: 
x,y,z [a.u.] :    -2.676921     0.000000    -0.000000 
x,y,z [Debye]:    -6.804193     0.000000    -0.000000 

 

Dipole moment calculation done in   0.0 sec 

-----------------
QUADRUPOLE MOMENT
-----------------

Method             : SCF
Type of density    : Electron Density
Multiplicity       :   2
Irrep              :   0
Energy             :  -405.5259269531446762 Eh
Basis              : AO

                XX              YY              ZZ              XY              XZ              YZ
  NUC        0.000000000     0.000000000    41.817245673     0.000000000     0.000000000     0.000000000
  EL       -11.750646407   -14.324286240   -45.346732112     0.000000020    -0.000000000    -0.000000000
  TOT      -11.750646407   -14.324286240    -3.529486439     0.000000020    -0.000000000    -0.000000000 (a.u.)
           -15.805021290   -19.266654884    -4.747279969     0.000000027    -0.000000000    -0.000000000 (Buckingham)

diagonalized tensor:
           -14.324286240   -11.750646407    -3.529486439 (a.u.)
           -19.266654884   -15.805021290    -4.747279969 (Buckingham)
           -17.981008510    -7.596107727    25.577116236 (traceless form in Buckingham)

             0.000000008    -1.000000000    -0.000000000
            -1.000000000    -0.000000008    -0.000000000
            -0.000000000    -0.000000000     1.000000000
        
Isotropic quadrupole :    -9.868139695

Quadrupole moment calculation done in   0.0 sec (  0.0 sec for integrals)

Maximum memory used throughout the entire PROP-calculation: 2.4 MB

--------------------------------
SUGGESTED CITATIONS FOR THIS RUN
--------------------------------

Below you find a list of papers that are relevant to this ORCA run
We neither can nor want to force you to cite these papers, but we appreciate if you do
You receive ORCA, which is the product of decades of hard work by many enthusiastic individuals, for free
The only thing we kindly ask in return is that you cite our papers,
We deeply appreciate it, if you show your appreciation for ORCA by not just citing the generic ORCA reference.

Please note that relegating all ORCA citations to the supporting information does *not* help us.
SI sections are not indexed - citations you put there will not count into any citation statistics
But we need these citations in order to attract the funding resources that allow us to do what we are doing

Therefore, if you are a happy ORCA user, please consider citing a few of the papers listed below in the main body of your paper

In addition to the list printed below, the program has created the file /cluster/projects/nn14654k/ylvaos/basis_set_n_funcs/functionals/pbe/LiS/inp/LiS_pbe_pcseg2.bibtex that contains the list in bibtex format
You can import this file easily into all common literature databanks and citation aid programs

It goes without saying that in many instances, there are alternative algorithms to achieve similar
results as the ones you have gotten from ORCA. It is, of course, also the case that in some instances
ORCA just re-implements algorithms worked out by others. We are fully aware of that and we are also
fully appreciative of our colleagues work. Hence this citation list should not be read as indicating
that the listed papers, which are focused on our own work, are the only ones worth citing. It simply
meant to make it easier for users to cite ORCA specific papers. It is not a substitute for doing your
own literature research and citing the relevant literature in a scientifically appropriate manner.

List of essential papers. We consider these as the minimum necessary citations

  1. Neese, F.
     Software update: the ORCA program system, version 6.0
     WIRES Comput. Molec. Sci. 2025 15(1), e70019
     doi.org/10.1002/wcms.70019

List of papers to cite with high priority. The work reported in these papers was absolutely
necessary for this run to complete.
Our perspective: the developers of density functionals and basis sets usually get cited in chemistry papers
Good! But without the algorithms to do something with them, the functionals or basis sets would not do anything.
Hence, in our opinion, the algorithm design and method developments papers are equally worthy of getting cited

  1. Neese, F.
     The SHARK Integral Generation and Digestion System
     J. Comp. Chem. 2022 44(3), 381
     doi.org/10.1002/jcc.26942

List of suggested additional citations. These are papers that are important in the 'surrounding' of 
of this run, or papers that preceded the highly important papers. If you like your results we are grateful for a citation.

  1. Neese, F.
     The ORCA program system
     WIRES Comput. Molec. Sci. 2012 2(1), 73-78
     doi.org/10.1002/wcms.81
  2. Neese, F.
     Software update: the ORCA program system, version 4.0
     WIRES Comput. Molec. Sci. 2018 8(1), 1-6
     doi.org/10.1002/wcms.1327
  3. Neese, F.; Wennmohs, F.; Becker, U.; Riplinger, C.
     The ORCA quantum chemistry program package
     J. Chem. Phys. 2020 152(22), 224108
     doi.org/10.1063/5.0004608
  4. Neese, F.
     Software update: The ORCA program system—Version 5.0
     WIRES Comput. Molec. Sci. 2022 12(1), e1606
     doi.org/10.1002/wcms.1606

List of optional additional citations

  1. Neese, F.
     Approximate second-order SCF convergence for spin unrestricted wavefunctions
     Chem. Phys. Lett. 2000 325(1-3), 93-98
     doi.org/10.1016/s0009-2614(00)00662-x

Timings for individual modules:

Sum of individual times          ...        2.952 sec (=   0.049 min)
Startup calculation              ...        0.445 sec (=   0.007 min)  15.1 %
SCF iterations                   ...        1.712 sec (=   0.029 min)  58.0 %
Property integrals               ...        0.264 sec (=   0.004 min)   8.9 %
Property calculations            ...        0.525 sec (=   0.009 min)  17.8 %
Orbital localization             ...        0.007 sec (=   0.000 min)   0.2 %
                             ****ORCA TERMINATED NORMALLY****
TOTAL RUN TIME: 0 days 0 hours 0 minutes 3 seconds 701 msec
