
                                 *****************
                                 * O   R   C   A *
                                 *****************

                                            #,                                       
                                            ###                                      
                                            ####                                     
                                            #####                                    
                                            ######                                   
                                           ########,                                 
                                     ,,################,,,,,                         
                               ,,#################################,,                 
                          ,,##########################################,,             
                       ,#########################################, ''#####,          
                    ,#############################################,,   '####,        
                  ,##################################################,,,,####,       
                ,###########''''           ''''###############################       
              ,#####''   ,,,,##########,,,,          '''####'''          '####       
            ,##' ,,,,###########################,,,                        '##       
           ' ,,###''''                  '''############,,,                           
         ,,##''                                '''############,,,,        ,,,,,,###''
      ,#''                                            '''#######################'''  
     '                                                          ''''####''''         
             ,#######,   #######,   ,#######,      ##                                
            ,#'     '#,  ##    ##  ,#'     '#,    #''#        ,####,    ,#,          
            ##       ##  ##   ,#'  ##            #'  '#       #'       ,# #          
            ##       ##  #######   ##           ,######,      #####,      #          
            '#,     ,#'  ##    ##  '#,     ,#' ,#      #,     #,   #      #          
             '#######'   ##     ##  '#######'  #'      '#     '####' #    #          



                #########################################################
                #                        -***-                          #
                #          Department of theory and spectroscopy        #
                #                                                       #
                #                      Frank Neese                      #
                #                                                       #
                #     Directorship, Architecture, Infrastructure        #
                #                    SHARK, DRIVERS                     #
                #        Core code/Algorithms in most modules           #
                #                                                       #
                #        Max Planck Institute fuer Kohlenforschung      #
                #                Kaiser Wilhelm Platz 1                 #
                #                 D-45470 Muelheim/Ruhr                 #
                #                      Germany                          #
                #                                                       #
                #                  All rights reserved                  #
                #                        -***-                          #
                #########################################################


                         Program Version 6.1.1  -  RELEASE   -
                                (GIT: $487d211c$)
                          ($2025-11-21 10:33:24 +0100$)


 With contributions from (in alphabetic order):
[Max-Planck-Institut fuer Kohlenforschung]                               
  Daniel Aravena         : Magnetic Suceptibility                        
  Michael Atanasov       : Ab Initio Ligand Field Theory (pilot matlab implementation)
  Alexander A. Auer      : GIAO ZORA, VPT2 properties, NMR spectrum      
  Ute Becker             : All parallelization in ORCA, NUMFREQ, NUMCALC 
  Giovanni Bistoni       : ED, misc. LED, open-shell LED, HFLD           
  Dmytro Bykov           : pre 5.0 version of the SCF Hessian            
  Marcos Casanova-Páez   : Triplet and SCS-CIS(D). UHF-(DLPNO)-IP/EA/STEOM-CCSD. UHF-CVS-IP/STEOM-CCSD   
  Vijay G. Chilkuri      : MRCI spin determinant printing, contributions to CSF-ICE 
  Pauline Colinet        : FMM embedding                                 
  Dipayan Datta          : RHF DLPNO-CCSD density                        
  Achintya Kumar Dutta   : EOM-CC, STEOM-CC                              
  Nicolas Foglia         : Exact transition moments, OPA infrastructure, MCD improvements    
  Dmitry Ganyushin       : Spin-Orbit,Spin-Spin,Magnetic field MRCI      
  Miquel Garcia-Rates    : C-PCM and meta-GGA Hessian, CCSD/C-PCM, Gaussian charge scheme 
  Tiago L. C. Gouveia    : GS-ROHF, GS-ROCIS                             
  Yang Guo               : DLPNO-NEVPT2, F12-NEVPT2, CIM, IAO-localization        
  Andreas Hansen         : Spin unrestricted coupled pair/coupled cluster methods 
  Ingolf Harden          : AUTO-CI MPn and infrastructure                
  Benjamin Helmich-Paris : MC-RPA, TRAH-(SCF,CASSCF), AVAS, COSX integrals, SCF dyn. polar., MC-PDFT, srDFT 
  Lee Huntington         : MR-EOM, pCC                                   
  Robert Izsak           : Overlap fitted RIJCOSX, COSX-SCS-MP3, EOM     
  Riya Kayal             : Wick's Theorem for AUTO-CI, AUTO-CI UHF-CCSDT 
  Emily Kempfer          : AUTO-CI RHF CISDT and CCSDT, approximate NEVPT4
  Christian Kollmar      : KDIIS, OOCD, Brueckner-CCSD(T), CCSD density, CASPT2, CASPT2-K, improved NEVPT2 
  Axel Koslowski         : Symmetry handling                             
  Simone Kossmann        : meta-GGA functionals, TD-DFT gradient, OOMP2, (MP2 Hessian; deprecated post 5.0) 
  Lucas Lang             : DCDCAS, Hyperfine gauge corrections, ICE-SOC+SSC
  Marvin Lechner         : AUTO-CI (C++ implementation), FIC-MRCC        
  Spencer Leger          : CASSCF response                               
  Dagmar Lenk            : GEPOL surface, SMD, ORCA-2-JSON               
  Dimitrios Liakos       : Extrapolation schemes; Compound Job, Property file
  Dimitrios Manganas     : Further ROCIS development; embedding schemes. LFT, Crystal Embedding 
  Dimitrios Pantazis     : SARC Basis sets                               
  Anastasios Papadopoulos: AUTO-CI, single reference methods and gradients 
  Taras Petrenko         : pre 6.0 DFT Hessian and TD-DFT gradient,  ECA, NRVS 
  Petra Pikulova         : Analytic Raman intensities                    
  Peter Pinski           : DLPNO-MP2, DLPNO-MP2 Gradient                 
  Shashank Vittal Rao    : ES-AILFT, MagRelax                            
  Christoph Reimann      : Effective Core Potentials                     
  Marius Retegan         : Local ZFS, SOC                                
  Christoph Riplinger    : Optimizer, TS searches, QM/MM, DLPNO-CCSD(T), (RO)-DLPNO pert. Triples 
  Michael Roemelt        : Original ROCIS implementation, recursive CI coupling coefficients
  Masaaki Saitow         : Open-shell DLPNO-CCSD energy and density      
  Barbara Sandhoefer     : DKH picture change effects                    
  Yorick L. A. Schmerwitz: GMF and freeze-and-release deltaSCF, NEB S-IDPP initial path                    
  Kantharuban Sivalingam : CASSCF convergence/infrastructure, NEVPT2, NEVPT3, NEVPT4(SD), FIC-MRCI and CEPA variants
  Bernardo de Souza      : ESD, SOC TD-DFT                               
  Georgi L. Stoychev     : AutoAux, RI-MP2 NMR, DLPNO-MP2 response, X2C  
  Van Anh Tran           : RI-MP2 g-tensors                              
  Willem Van den Heuvel  : Paramagnetic NMR                              
  Zikuan Wang            : NOTCH, Electric field optimization            
  Frank Wennmohs         : Technical directorship and infrastructure     
  Hang Xu                : AUTO-CI-Response properties                   
                                                                         
[FACCTs GmbH]                                                            
  Markus Bursch, Nicolas Foglia, Miquel Garcia-Rates, Ingolf Harden, Hagen Neugebauer, Anastasios Papadopoulos, 
  Christoph Riplinger, Bernardo de Souza, Georgi L. Stoychev                                                    
                                                                 
  APM, various basis sets, CI-OPT, improved COSX, DLPNO-Multilevel,           
  DOCKER, DRACO, updates on ESD, Fragmentator, GOAT, IRC, LR-CPCM, L-BFGS, MBIS, meta-GGA TD-DFT gradient, ML-optimized integration grids, 
  MM, NACMEs, nearIR, NEB, NEB-TS, NL-DFT gradient (VV10), 2- and 3-layer-ONIOM, interface openCOSMO-RS, QMMM,   
  Crystal-QMMM, RESP, rigid body optimization, SF, symmetry and pop. for TD-DFT, various functionals, SOLVATOR                                   
                                                                         
[Other institutions]                                                     
  V. Asgeirsson          : NEB                                           
  Christoph Bannwarth    : sTDA-DFT, sTD-DFT, PBEh-3c, B97-3c, D3        
  Giovanni Bistoni       : ETS/NOCV, ADLD/ADEX, COVALED                  
  Martin Brehm           : Molecular dynamics                            
  Ronald Cardenas        : ETS/NOCV                                      
  Martina Colucci        : COVALED                                       
  Sebastian Ehlert       : rSCAN, r2SCAN, r2SCAN-3c, D4, dhf basis sets  
  Marvin Friede          : D4 for Fr, Ra, Ac-Lr                          
  Lars Goerigk           : TD-DFT with DH, B97 family of functionals     
  Stefan Grimme          : VdW corrections, initial TS optimization, DFT functionals, gCP, sTDA/sTD-DF 
  Waldemar Hujo          : DFT-NL                                        
  H. Jonsson             : NEB                                           
  Holger Kruse           : gCP                                           
  Marcel Mueller         : wB97X-3c, vDZP basis set                      
  Hagen Neugebauer       : wr2SCAN, Native XTB                           
  Gianluca Regni         : ADLD/ADEX                                     
  Tobias Risthaus        : pre 6.0 range-separated hybrid DFT and stability analysis
  Lukas Wittmann         : regularized MP2, r2SCAN double-hybrids, wr2SCAN        
                                                                         
We gratefully acknowledge several colleagues who have allowed us to      
interface, adapt or use parts of their codes:                            
  Ed Valeev, F. Pavosevic, A. Kumar             : LibInt (2-el integral package), F12 methods 
  Garnet Chan, S. Sharma, J. Yang, R. Olivares  : DMRG                   
  Ulf Ekstrom                                   : XCFun DFT Library      
  Mihaly Kallay                                 : mrcc  (arbitrary order and MRCC methods)
  Frank Weinhold                                : gennbo (NPA and NBO analysis)           
  Simon Mueller                                 : openCOSMO-RS                            
  Christopher J. Cramer and Donald G. Truhlar   : smd solvation model                     
  S Lehtola, MJT Oliveira, MAL Marques          : LibXC Library                           
  Liviu Ungur et al                             : ANISO software                          


 Your calculation uses the libint2 library for the computation of 2-el integrals
 For citations please refer to: http://libint.valeyev.net

 Your ORCA version has been built with support for libXC version: 7.0.0
 For citations please refer to: https://libxc.gitlab.io

 This ORCA versions uses:
   CBLAS   interface :  Fast vector & matrix operations
   LAPACKE interface :  Fast linear algebra routines
   SCALAPACK package :  Parallel linear algebra routines
   Shared memory     :  Shared parallel matrices
   BLAS/LAPACK       :  OpenBLAS 0.3.29  USE64BITINT DYNAMIC_ARCH NO_AFFINITY Cooperlake SINGLE_THREADED
        Core in use  :  Cooperlake
   Copyright (c) 2011-2014, The OpenBLAS Project


  ***********************************
  * Starting time: Wed May 20 12:36:44 2026
  * Host name:     c1-45
  * Process ID:    3587831
  * Working dir.:  /cluster/projects/nn14654k/ylvaos/basis_set_n_funcs/functionals/pbe/LiS/out
  ***********************************

================================================================================

----- Orbital basis set information -----
Your calculation utilizes the basis: cc-pVQZ 
       H, B-Ne : Obtained from the ccRepo (grant-hill.group.shef.ac.uk/ccrepo) Feb. 2017
                 T. H. Dunning, Jr., J. Chem. Phys. 90, 1007 (1989)
            He : Obtained from the ccRepo (grant-hill.group.shef.ac.uk/ccrepo) Feb. 2017
                 D. E. Woon, T. H. Dunning, Jr., J. Chem. Phys. 100, 2975 (1994)
  Li-Be, Na-Mg : Obtained from the ccRepo (grant-hill.group.shef.ac.uk/ccrepo) Feb. 2017
                 B. P. Prascher, D. E. Woon, K. A. Peterson, T. H. Dunning, Jr., A. K. Wilson, Theor. Chem. Acc. 128, 69 (2011)
         Al-Ar : Obtained from the ccRepo (grant-hill.group.shef.ac.uk/ccrepo) Feb. 2017
                 D. E. Woon, T. H. Dunning, Jr., J. Chem. Phys. 98, 1358 (1993)
            Ca : Obtained from the Peterson Research Group Website (tyr0.chem.wsu.edu/~kipeters) Feb. 2017
                 J. Koput, K. A. Peterson, J. Phys. Chem. 106, 9595 (2002)
         Sc-Zn : Obtained from the ccRepo (grant-hill.group.shef.ac.uk/ccrepo) Feb. 2017
                 N. B. Balabanov, K. A. Peterson, J. Chem. Phys. 123, 064107 (2005)
                 N. B. Balabanov, K. A. Peterson, J. Chem. Phys. 125, 074110 (2006)
         Ga-Kr : Obtained from the ccRepo (grant-hill.group.shef.ac.uk/ccrepo) Feb. 2017
                 A. K. Wilson, D. E. Woon, K. A. Peterson, T. H. Dunning, Jr., J. Chem. Phys. 110, 7667 (1999)

================================================================================
                                        WARNINGS
                       Please study these warnings very carefully!
================================================================================


WARNING: your system is open-shell and RHF/RKS was chosen
  ===> : WILL SWITCH to UHF/UKS


================================================================================
                                       INPUT FILE
================================================================================
NAME = /cluster/projects/nn14654k/ylvaos/basis_set_n_funcs/functionals/pbe/LiS/inp/LiS_pbe_ccpvqz.inp
|  1> ! dft cc-pVQZ TightSCF
|  2> %pal nprocs 8 end
|  3> 
|  4> %loc
|  5>   LocMet NewBoys
|  6>   Occ true
|  7> end
|  8> 
|  9> %method
| 10>   
| 11>   functional pbe
| 12> end
| 13> 
| 14> %elprop
| 15>   Dipole true
| 16>   Quadrupole true
| 17> end
| 18> 
| 19> * xyz 0 2
| 20> Li    0.000000000000   0.000000000000  -1.074850000000
| 21> S    0.000000000000   0.000000000000   1.074850000000
| 22> *
| 23> 
| 24> 
| 25>                          ****END OF INPUT****
================================================================================

                       ****************************
                       * Single Point Calculation *
                       ****************************

---------------------------------
CARTESIAN COORDINATES (ANGSTROEM)
---------------------------------
  Li     0.000000    0.000000   -1.074850
  S      0.000000    0.000000    1.074850

----------------------------
CARTESIAN COORDINATES (A.U.)
----------------------------
  NO LB      ZA    FRAG     MASS         X           Y           Z
   0 Li    3.0000    0     6.941    0.000000    0.000000   -2.031172
   1 S    16.0000    0    32.060    0.000000    0.000000    2.031172

--------------------------------
INTERNAL COORDINATES (ANGSTROEM)
--------------------------------
 Li     0   0   0     0.000000000000     0.00000000     0.00000000
 S      1   0   0     2.149700000000     0.00000000     0.00000000

---------------------------
INTERNAL COORDINATES (A.U.)
---------------------------
 Li     0   0   0     0.000000000000     0.00000000     0.00000000
 S      1   0   0     4.062344270091     0.00000000     0.00000000

---------------------
BASIS SET INFORMATION
---------------------
There are 2 groups of distinct atoms

 Group   1 Type Li  : 21s6p3d2f1g contracted to 5s4p3d2f1g pattern {99111/3111/111/11/1}
 Group   2 Type S   : 42s19p3d2f1g contracted to 6s5p3d2f1g pattern {131313111/88111/111/11/1}

Atom   0Li   basis set group =>   1
Atom   1S    basis set group =>   2


           ************************************************************
           *        Program running with 8 parallel MPI-processes     *
           *              working on a common directory               *
           ************************************************************
------------------------------------------------------------------------------
                             ORCA STARTUP CALCULATIONS
------------------------------------------------------------------------------
------------------------------------------------------------------------------
                   ___                                                        
                  /   \      - P O W E R E D   B Y -                         
                 /     \                                                     
                 |  |  |   _    _      __       _____    __    __             
                 |  |  |  | |  | |    /  \     |  _  \  |  |  /  |          
                  \  \/   | |  | |   /    \    | | | |  |  | /  /          
                 / \  \   | |__| |  /  /\  \   | |_| |  |  |/  /          
                |  |  |   |  __  | /  /__\  \  |    /   |      \           
                |  |  |   | |  | | |   __   |  |    \   |  |\   \          
                \     /   | |  | | |  |  |  |  | |\  \  |  | \   \       
                 \___/    |_|  |_| |__|  |__|  |_| \__\ |__|  \__/        
                                                                              
                      - O R C A' S   B I G   F R I E N D -                    
                                      &                                       
                       - I N T E G R A L  F E E D E R -                       
                                                                              
 v1 FN, 2020, v2 2021, v3 2022-2024                                           
------------------------------------------------------------------------------


----------------------
SHARK INTEGRAL PACKAGE
----------------------

Number of atoms                             ...      2
Number of basis functions                   ...    149
Number of shells                            ...     55
Maximum angular momentum                    ...      4
Integral batch strategy                     ... SHARK/LIBINT Hybrid
RI-J (if used) integral strategy            ... SPLIT-RIJ (Revised 2003 algorithm where possible)
Printlevel                                  ...      1
Contraction scheme used                     ... PARTIAL GENERAL contraction
Prescreening option                         ... SCHWARTZ
   Thresh                                   ... 2.500e-11
   Tcut                                     ... 2.500e-12
   Tpresel                                  ... 2.500e-12 
Coulomb Range Separation                    ... NOT USED
Exchange Range Separation                   ... NOT USED
Multipole approximations                    ... NOT USED
Finite Nucleus Model                        ... NOT USED
CABS basis                                  ... NOT available
Auxiliary Coulomb fitting basis             ... NOT available
Auxiliary J/K fitting basis                 ... NOT available
Auxiliary Correlation fitting basis         ... NOT available
Auxiliary 'external' fitting basis          ... NOT available

Checking pre-screening integrals            ... done (  0.0 sec) Dimension = 55
Save PGC pre-screening integrals            ... done (  0.0 sec) Dimension = 55
Calculate PGC overlap integrals             ... done (  0.0 sec) Dimension = 32
Calculating pre-screening integrals (ORCA)  ... done (  0.1 sec) Dimension = 32
Shell pair information
Shell pair cut-off parameter TPreSel        ...   2.5e-12
Total number of shell pairs                 ...      1540
Shell pairs after pre-screening             ...      1398
Total number of primitive shell pairs       ...      1656
Primitive shell pairs kept                  ...      1495
          la=0 lb=0:    317 shell pairs
          la=1 lb=0:    371 shell pairs
          la=1 lb=1:    120 shell pairs
          la=2 lb=0:    168 shell pairs
          la=2 lb=1:     90 shell pairs
          la=2 lb=2:     21 shell pairs
          la=3 lb=0:    110 shell pairs
          la=3 lb=1:     60 shell pairs
          la=3 lb=2:     24 shell pairs
          la=3 lb=3:     10 shell pairs
          la=4 lb=0:     54 shell pairs
          la=4 lb=1:     30 shell pairs
          la=4 lb=2:     12 shell pairs
          la=4 lb=3:      8 shell pairs
          la=4 lb=4:      3 shell pairs

Checking whether 4 symmetric matrices of dimension 149 fit in memory
:Max Core in MB      =   4096.00
 MB in use           =      4.72
 MB left             =   4091.28
 MB needed           =      0.34
 Data fit in memory  = YES
Calculating Nuclear repulsion               ... done (  0.0 sec) ENN=     11.815837557985 Eh

Diagonalization of the overlap matrix:
Smallest eigenvalue                        ... 4.948e-04
Time for diagonalization                   ...    0.001 sec
Threshold for overlap eigenvalues          ... 1.000e-07
Number of eigenvalues below threshold      ... 0
Time for construction of square roots      ...    0.002 sec
Total time needed                          ...    0.004 sec

-------------------
DFT GRID GENERATION
-------------------

General Integration Accuracy     IntAcc      ... 4.388
Radial Grid Type                 RadialGrid  ... OptM3 with GC (2021)
Angular Grid (max. ang.)         AngularGrid ... 4 (Lebedev-302)
Angular grid pruning method      GridPruning ... 4 (adaptive)
Weight generation scheme         WeightScheme... mBecke (2022)
Basis function cutoff            BFCut       ... 1.0000e-11
Integration weight cutoff        WCut        ... 1.0000e-14
Partially contracted basis set               ... off
Rotationally invariant grid construction     ... off
Angular grids for H and He will be reduced by one unit

Total number of grid points                  ...    13486
Total number of batches                      ...      212
Average number of points per batch           ...       63
Average number of grid points per atom       ...     6743

---------------------
SHARK GRID GENERATION
---------------------

General Integration Accuracy     IntAcc      ... 4.388
Radial Grid Type                 RadialGrid  ... OptM3 with GC (2021)
Angular Grid (max. ang.)         AngularGrid ... 4 (Lebedev-302)
Angular grid pruning method      GridPruning ... 4 (adaptive)
Weight generation scheme         WeightScheme... mBecke (2022)
Basis function cutoff            BFCut       ... 1.0000e-11
Integration weight cutoff        WCut        ... 1.0000e-14
Partially contracted basis set               ... off
Rotationally invariant grid construction     ... off
Angular grids for H and He will be reduced by one unit
Core-polarized basis detected: some atoms will have their core
                               angular grid increased.
Steep s-basis detected: some atoms will have their radial
                        grid points doubled.

Total number of grid points                  ...    31699
Total number of batches                      ...      497
Average number of points per batch           ...       63
Average number of grid points per atom       ...    15850
Grids setup in   1.2 sec
Initializing property integral containers    ... done (  0.0 sec)

SHARK setup successfully completed in   1.3 seconds

Maximum memory used throughout the entire STARTUP-calculation: 58.2 MB


           ************************************************************
           *        Program running with 8 parallel MPI-processes     *
           *              working on a common directory               *
           ************************************************************
-------------------------------------------------------------------------------
                                 ORCA GUESS
                   Start orbitals & Density for SCF / CASSCF
-------------------------------------------------------------------------------

------------
SCF SETTINGS
------------
Hamiltonian:
 Density Functional     Method          .... DFT(GTOs)
 Exchange Functional    Exchange        .... PBE
   PBE kappa parameter   XKappa         ....  0.804000
   PBE mue parameter    XMuePBE         ....  0.219520
 Correlation Functional Correlation     .... PBE
   PBE beta parameter  CBetaPBE         ....  0.066725
 LDA part of GGA corr.  LDAOpt          .... PW91-LDA
 Gradients option       PostSCFGGA      .... off
   NL short-range parameter             ....  6.400000


General Settings:
 Integral files         IntName         .... /cluster/projects/nn14654k/ylvaos/basis_set_n_funcs/functionals/pbe/LiS/inp/LiS_pbe_ccpvqz
 Hartree-Fock type      HFTyp           .... UHF
 Total Charge           Charge          ....    0
 Multiplicity           Mult            ....    2
 Number of Electrons    NEL             ....   19
 Basis Dimension        Dim             ....  114
 Nuclear Repulsion      ENuc            ....     11.8158375580 Eh

Convergence Acceleration:
 AO-DIIS                CNVDIIS         .... on
   Start iteration      DIISMaxIt       ....    12
   Startup error        DIISStart       ....  0.200000
   # of expansion vecs  DIISMaxEq       ....     5
   Bias factor          DIISBfac        ....   1.050
   Max. coefficient     DIISMaxC        ....  10.000
 MO-DIIS                CNVKDIIS        .... off
 Trust-Rad. Augm. Hess. CNVTRAH         .... auto
   Auto Start mean grad. ratio tolernc. ....  1.125000
   Auto Start start iteration           ....    50
   Auto Start num. interpolation iter.  ....    10
   Max. Number of Micro iterations      ....    24
   Max. Number of Macro iterations      .... Maxiter - #DIIS iter
   Number of Davidson start vectors     ....     2
   Converg. threshold    (grad. norm)   ....   1.000e-05
   Grad. Scal. Fac. for Micro threshold ....   0.100
   Minimum threshold for Micro iter.    ....   1.000e-02
   NR start threshold (gradient norm)   ....   1.000e-04
   Initial trust radius                 ....   0.400
   Minimum AH scaling param. (alpha)    ....   1.000
   Maximum AH scaling param. (alpha)    .... 1000.000
   Quad. conv. algorithm                .... NR
   White noise on init. David. guess    .... on
   Maximum white noise                  ....   0.010
   Pseudo random numbers                .... off
   Inactive MOs                         .... canonical
   Orbital update algorithm             .... Taylor
   Preconditioner                       .... Diag
   Full preconditioner red. dimension   ....   250
 SOSCF                 CNVSOSCF           .... on
   Start iteration     SOSCFMaxIt         ....   150
   Startup grad/error  SOSCFStart         ....  0.003300
   Hessian update      SOSCFHessUp        .... L-BFGS
   Autom. constraints  SOSCFAutoConstrain .... off
 Level Shifting         CNVShift        .... on
   Level shift para.    LevelShift      ....    0.2500
   Turn off err/grad.   ShiftErr        ....    0.0010
 Zerner damping         CNVZerner       .... off
 Static damping         CNVDamp         .... on
   Fraction old density DampFac         ....    0.7000
   Max. Damping (<1)    DampMax         ....    0.9800
   Min. Damping (>=0)   DampMin         ....    0.0000
   Turn off err/grad.   DampErr         ....    0.1000

SCF Procedure:
 Maximum # iterations   MaxIter         ....   125
 SCF integral mode      SCFMode         .... Direct
   Integral package                     .... SHARK and LIBINT hybrid scheme
 Reset frequency        DirectResetFreq ....    20
 Integral Threshold     Thresh          ....  2.500e-11 Eh
 Primitive CutOff       TCut            ....  2.500e-12 Eh

Convergence Tolerance:
 Convergence Check Mode ConvCheckMode   .... Total+1el-Energy
 Convergence forced     ConvForced      .... 0
 Energy Change          TolE            ....  1.000e-08 Eh
 1-El. energy change                    ....  1.000e-05 Eh
 Orbital Gradient       TolG            ....  1.000e-05
 Orbital Rotation angle TolX            ....  1.000e-05
 DIIS Error             TolErr          ....  5.000e-07

------------------------------
INITIAL GUESS: MODEL POTENTIAL
------------------------------
Loading Hartree-Fock densities                     ... done
Calculating cut-offs                               ... done
Initializing the effective Hamiltonian             ... done
Setting up the integral package (SHARK)            ... done
Starting the Coulomb interaction                   ... done (   0.0 sec)
Making the grid                                    ... done (   0.0 sec)
Mapping shells                                     ... done
Starting the XC term evaluation                    ... done (   0.0 sec)
  promolecular density results
     # of electrons  =     18.999659774
     EX              =    -26.589782764
     EC              =     -0.660299167
     EX+EC           =    -27.250081931
Transforming the Hamiltonian                       ... done (   0.0 sec)
Diagonalizing the Hamiltonian                      ... done (   0.0 sec)
Back transforming the eigenvectors                 ... done (   0.0 sec)
Now organizing SCF variables                       ... done
                      ------------------
                      INITIAL GUESS DONE (   0.1 sec)
                      ------------------
             **** ENERGY FILE WAS UPDATED (/cluster/projects/nn14654k/ylvaos/basis_set_n_funcs/functionals/pbe/LiS/inp/LiS_pbe_ccpvqz.en.tmp) ****
Finished Guess after   0.1 sec
Maximum memory used throughout the entire GUESS-calculation: 10.6 MB


           ************************************************************
           *        Program running with 8 parallel MPI-processes     *
           *              working on a common directory               *
           ************************************************************

-------------------------------------------------------------------------------------------
                                      ORCA LEAN-SCF
                              memory conserving SCF solver
-------------------------------------------------------------------------------------------

----------------------------------------D-I-I-S--------------------------------------------
Iteration    Energy (Eh)           Delta-E    RMSDP     MaxDP     DIISErr   Damp  Time(sec)
-------------------------------------------------------------------------------------------
               ***  Starting incremental Fock matrix formation  ***
    1    -405.4899070339219520     0.00e+00  2.19e-03  2.65e-02  5.96e-02  0.700   0.2
Warning: op=0 Small HOMO/LUMO gap (   0.063) - skipping pre-diagonalization
         Will do a full diagonalization
    2    -405.5062277251188902    -1.63e-02  1.91e-03  2.13e-02  3.51e-02  0.700   0.2
                               ***Turning on AO-DIIS***
    3    -405.5140291182264605    -7.80e-03  9.28e-04  1.05e-02  1.29e-02  0.700   0.2
    4    -405.5180607494772289    -4.03e-03  1.49e-03  1.71e-02  8.51e-03  0.000   0.5
                              *** Initializing SOSCF ***
---------------------------------------S-O-S-C-F--------------------------------------
Iteration    Energy (Eh)           Delta-E    RMSDP     MaxDP     MaxGrad    Time(sec)
--------------------------------------------------------------------------------------
    5    -405.5267559918472671    -8.70e-03  3.79e-04  2.90e-03  2.95e-03     0.2
               *** Restarting incremental Fock matrix formation ***
    6    -405.5268885246123887    -1.33e-04  2.49e-04  1.93e-03  1.53e-03     0.2
    7    -405.5269117725566730    -2.32e-05  1.30e-04  1.14e-03  1.26e-03     0.2
    8    -405.5269293202176186    -1.75e-05  2.92e-05  2.35e-04  1.18e-04     0.3
    9    -405.5269295539654877    -2.34e-07  7.30e-06  5.59e-05  3.56e-05     0.2
   10    -405.5269295869442203    -3.30e-08  3.96e-06  3.64e-05  1.93e-05     0.2
   11    -405.5269295907492619    -3.81e-09  1.31e-06  1.70e-05  7.65e-06     0.2
                 **** Energy Check signals convergence ****

               *****************************************************
               *                     SUCCESS                       *
               *           SCF CONVERGED AFTER  11 CYCLES          *
               *****************************************************

             **** ENERGY FILE WAS UPDATED (/cluster/projects/nn14654k/ylvaos/basis_set_n_funcs/functionals/pbe/LiS/inp/LiS_pbe_ccpvqz.en.tmp) ****

----------------
TOTAL SCF ENERGY
----------------

Total Energy       :       -405.52692959092366 Eh          -11034.94876 eV

Components:
Nuclear Repulsion  :         11.81583755798484 Eh             321.52529 eV
Electronic Energy  :       -417.34276714890848 Eh          -11356.47405 eV
One Electron Energy:       -584.37179212160800 Eh          -15901.56488 eV
Two Electron Energy:        167.02902497269955 Eh            4545.09084 eV

Virial components:
Potential Energy   :       -809.79751254189318 Eh          -22035.71059 eV
Kinetic Energy     :        404.27058295096958 Eh           11000.76183 eV
Virial Ratio       :          2.00310768750668

DFT components:
N(Alpha)           :        9.999991075284 electrons
N(Beta)            :        8.999989483381 electrons
N(Total)           :       18.999980558664 electrons
E(X)               :      -26.679086191561 Eh       
E(C)               :       -0.669405398185 Eh       
E(XC)              :      -27.348491589746 Eh       

---------------
SCF CONVERGENCE
---------------

  Last Energy change         ...    3.8050e-09  Tolerance :   1.0000e-08
  Last MAX-Density change    ...    1.7020e-05  Tolerance :   1.0000e-07
  Last RMS-Density change    ...    1.3090e-06  Tolerance :   5.0000e-09
  Last DIIS Error            ...    2.9548e-03  Tolerance :   5.0000e-07
  Last Orbital Gradient      ...    7.6524e-06  Tolerance :   1.0000e-05
  Last Orbital Rotation      ...    9.3696e-06  Tolerance :   1.0000e-05


----------------------
UHF SPIN CONTAMINATION
----------------------

Warning: in a DFT calculation there is little theoretical justification to 
         calculate <S**2> as in Hartree-Fock theory. We will do it anyways
         but you should keep in mind that the values have only limited relevance

Expectation value of <S**2>     :     0.754104
Ideal value S*(S+1) for S=0.5   :     0.750000
Deviation                       :     0.004104

----------------
ORBITAL ENERGIES
----------------
                 SPIN UP ORBITALS
  NO   OCC          E(Eh)            E(eV) 
   0   1.0000     -88.029294     -2395.3989 
   1   1.0000      -7.622563      -207.4205 
   2   1.0000      -5.653785      -153.8473 
   3   1.0000      -5.637821      -153.4129 
   4   1.0000      -5.637249      -153.3973 
   5   1.0000      -1.891441       -51.4687 
   6   1.0000      -0.554325       -15.0840 
   7   1.0000      -0.218074        -5.9341 
   8   1.0000      -0.198191        -5.3931 
   9   1.0000      -0.175877        -4.7859 
  10   0.0000      -0.068890        -1.8746 
  11   0.0000      -0.013047        -0.3550 
  12   0.0000      -0.009114        -0.2480 
  13   0.0000       0.010767         0.2930 
  14   0.0000       0.031126         0.8470 
  15   0.0000       0.040763         1.1092 
  16   0.0000       0.042960         1.1690 
  17   0.0000       0.094221         2.5639 
  18   0.0000       0.103304         2.8110 
  19   0.0000       0.103808         2.8248 
  20   0.0000       0.136184         3.7058 

                 SPIN DOWN ORBITALS
  NO   OCC          E(Eh)            E(eV) 
   0   1.0000     -88.025364     -2395.2919 
   1   1.0000      -7.618301      -207.3045 
   2   1.0000      -5.641766      -153.5203 
   3   1.0000      -5.635307      -153.3445 
   4   1.0000      -5.634655      -153.3268 
   5   1.0000      -1.891512       -51.4707 
   6   1.0000      -0.519045       -14.1239 
   7   1.0000      -0.186393        -5.0720 
   8   1.0000      -0.164477        -4.4757 
   9   0.0000      -0.150412        -4.0929 
  10   0.0000      -0.067912        -1.8480 
  11   0.0000      -0.009411        -0.2561 
  12   0.0000      -0.004521        -0.1230 
  13   0.0000       0.014451         0.3932 
  14   0.0000       0.032135         0.8744 
  15   0.0000       0.042388         1.1534 
  16   0.0000       0.045787         1.2459 
  17   0.0000       0.097366         2.6495 
  18   0.0000       0.107993         2.9386 
  19   0.0000       0.109954         2.9920 
*Only the first 10 virtual orbitals were printed.

                    ********************************
                    * MULLIKEN POPULATION ANALYSIS *
                    ********************************

--------------------------------------------
MULLIKEN ATOMIC CHARGES AND SPIN POPULATIONS
--------------------------------------------
   0 Li:    0.382851    0.025460
   1 S :   -0.382851    0.974540
Sum of atomic charges         :   -0.0000000
Sum of atomic spin populations:    1.0000000

-----------------------------------------------------
MULLIKEN REDUCED ORBITAL CHARGES AND SPIN POPULATIONS
-----------------------------------------------------
CHARGE
  0 Lis       :     2.213934  s :     2.213934
      pz      :     0.153276  p :     0.313858
      px      :     0.055556
      py      :     0.105027
      dz2     :     0.031783  d :     0.077415
      dxz     :     0.017651
      dyz     :     0.027950
      dx2y2   :     0.000010
      dxy     :     0.000020
      f0      :     0.005249  f :     0.011028
      f+1     :     0.002628
      f-1     :     0.003113
      f+2     :     0.000007
      f-2     :     0.000014
      f+3     :     0.000011
      f-3     :     0.000006
      g0      :     0.000550  g :     0.000913
      g+1     :     0.000193
      g-1     :     0.000153
      g+2     :     0.000002
      g-2     :     0.000005
      g+3     :     0.000005
      g-3     :     0.000004
      g+4     :     0.000000
      g-4     :     0.000000

  1 S s       :     5.877020  s :     5.877020
      pz      :     3.719303  p :    10.500716
      px      :     3.138205
      py      :     3.643208
      dz2     :    -0.002373  d :     0.004252
      dxz     :     0.002211
      dyz     :     0.003304
      dx2y2   :     0.000356
      dxy     :     0.000754
      f0      :    -0.000102  f :     0.000829
      f+1     :     0.000042
      f-1     :     0.000228
      f+2     :     0.000055
      f-2     :     0.000117
      f+3     :     0.000259
      f-3     :     0.000230
      g0      :     0.000014  g :     0.000034
      g+1     :     0.000005
      g-1     :     0.000011
      g+2     :     0.000001
      g-2     :     0.000001
      g+3     :     0.000000
      g-3     :     0.000000
      g+4     :     0.000000
      g-4     :     0.000002


SPIN
  0 Lis       :    -0.009213  s :    -0.009213
      pz      :    -0.005623  p :     0.020396
      px      :     0.026390
      py      :    -0.000371
      dz2     :    -0.001341  d :     0.011526
      dxz     :     0.010546
      dyz     :     0.002305
      dx2y2   :     0.000005
      dxy     :     0.000010
      f0      :    -0.000039  f :     0.002619
      f+1     :     0.001943
      f-1     :     0.000685
      f+2     :     0.000005
      f-2     :     0.000011
      f+3     :     0.000008
      f-3     :     0.000006
      g0      :    -0.000110  g :     0.000132
      g+1     :     0.000162
      g-1     :     0.000065
      g+2     :     0.000002
      g-2     :     0.000005
      g+3     :     0.000005
      g-3     :     0.000004
      g+4     :    -0.000000
      g-4     :    -0.000000

  1 S s       :     0.009664  s :     0.009664
      pz      :     0.005613  p :     0.961802
      px      :     0.742631
      py      :     0.213558
      dz2     :     0.000089  d :     0.002757
      dxz     :     0.001401
      dyz     :     0.000375
      dx2y2   :     0.000286
      dxy     :     0.000606
      f0      :    -0.000122  f :     0.000320
      f+1     :    -0.000056
      f-1     :    -0.000124
      f+2     :     0.000050
      f-2     :     0.000105
      f+3     :     0.000237
      f-3     :     0.000230
      g0      :    -0.000003  g :    -0.000004
      g+1     :     0.000001
      g-1     :    -0.000001
      g+2     :    -0.000000
      g-2     :    -0.000000
      g+3     :     0.000000
      g-3     :     0.000000
      g+4     :    -0.000000
      g-4     :    -0.000002



                     *******************************
                     * LOEWDIN POPULATION ANALYSIS *
                     *******************************

-------------------------------------------
LOEWDIN ATOMIC CHARGES AND SPIN POPULATIONS
-------------------------------------------
   0 Li:   -0.700917    0.213242
   1 S :    0.700917    0.786758

----------------------------------------------------
LOEWDIN REDUCED ORBITAL CHARGES AND SPIN POPULATIONS
----------------------------------------------------
CHARGE
  0 Lis       :     2.242012  s :     2.242012
      pz      :     0.365002  p :     0.639182
      px      :     0.100071
      py      :     0.174109
      dz2     :     0.216526  d :     0.448894
      dxz     :     0.093536
      dyz     :     0.138795
      dx2y2   :     0.000012
      dxy     :     0.000025
      f0      :     0.109118  f :     0.278912
      f+1     :     0.070560
      f-1     :     0.099170
      f+2     :     0.000015
      f-2     :     0.000031
      f+3     :     0.000012
      f-3     :     0.000007
      g0      :     0.026901  g :     0.091917
      g+1     :     0.027465
      g-1     :     0.037507
      g+2     :     0.000010
      g-2     :     0.000021
      g+3     :     0.000007
      g-3     :     0.000005
      g+4     :     0.000000
      g-4     :     0.000000

  1 S s       :     5.361749  s :     5.361749
      pz      :     3.661038  p :     9.917496
      px      :     2.923940
      py      :     3.332518
      dz2     :     0.011774  d :     0.014173
      dxz     :     0.000609
      dyz     :     0.000728
      dx2y2   :     0.000341
      dxy     :     0.000722
      f0      :     0.004330  f :     0.005441
      f+1     :     0.000303
      f-1     :     0.000159
      f+2     :     0.000053
      f-2     :     0.000112
      f+3     :     0.000256
      f-3     :     0.000228
      g0      :     0.000205  g :     0.000224
      g+1     :     0.000008
      g-1     :     0.000007
      g+2     :     0.000001
      g-2     :     0.000001
      g+3     :     0.000000
      g-3     :     0.000000
      g+4     :     0.000000
      g-4     :     0.000002


SPIN
  0 Lis       :    -0.007254  s :    -0.007254
      pz      :    -0.002675  p :     0.057570
      px      :     0.053695
      py      :     0.006551
      dz2     :     0.000841  d :     0.076928
      dxz     :     0.059604
      dyz     :     0.016462
      dx2y2   :     0.000007
      dxy     :     0.000014
      f0      :     0.001027  f :     0.061983
      f+1     :     0.046745
      f-1     :     0.014158
      f+2     :     0.000012
      f-2     :     0.000025
      f+3     :     0.000009
      f-3     :     0.000007
      g0      :     0.000137  g :     0.024015
      g+1     :     0.018192
      g-1     :     0.005649
      g+2     :     0.000008
      g-2     :     0.000018
      g+3     :     0.000007
      g-3     :     0.000005
      g+4     :    -0.000000
      g-4     :    -0.000000

  1 S s       :     0.002982  s :     0.002982
      pz      :     0.003145  p :     0.780498
      px      :     0.604017
      py      :     0.173336
      dz2     :     0.000613  d :     0.002119
      dxz     :     0.000460
      dyz     :     0.000192
      dx2y2   :     0.000274
      dxy     :     0.000580
      f0      :     0.000104  f :     0.001152
      f+1     :     0.000298
      f-1     :     0.000140
      f+2     :     0.000048
      f-2     :     0.000101
      f+3     :     0.000234
      f-3     :     0.000228
      g0      :    -0.000002  g :     0.000007
      g+1     :     0.000007
      g-1     :     0.000003
      g+2     :    -0.000000
      g-2     :    -0.000000
      g+3     :     0.000000
      g-3     :     0.000000
      g+4     :    -0.000000
      g-4     :    -0.000002



                      *****************************
                      * MAYER POPULATION ANALYSIS *
                      *****************************

  NA   - Mulliken gross atomic population
  ZA   - Total nuclear charge
  QA   - Mulliken gross atomic charge
  VA   - Mayer's total valence
  BVA  - Mayer's bonded valence
  FA   - Mayer's free valence

  ATOM       NA         ZA         QA         VA         BVA        FA
  0 Li     2.6171     3.0000     0.3829     0.9837     0.9804     0.0032
  1 S     16.3829    16.0000    -0.3829     1.8841     0.9804     0.9037

  Mayer bond orders larger than 0.100000
B(  0-Li,  1-S ) :   0.9804 

-------
TIMINGS
-------

Total SCF time: 0 days 0 hours 0 min 2 sec 

Total time                  ....       2.667 sec
Sum of individual times     ....       2.523 sec  ( 94.6%)

SCF preparation             ....       0.117 sec  (  4.4%)
Fock matrix formation       ....       2.028 sec  ( 76.0%)
  Startup                   ....       0.015 sec  (  0.7% of F)
  Coulomb formation         ....       1.135 sec  ( 56.0% of F)
  XC integration            ....       0.371 sec  ( 18.3% of F)
    XC Preparation          ....       0.000 sec  (  0.0% of XC)
    Basis function eval.    ....       0.027 sec  (  7.3% of XC)
    Density eval.           ....       0.028 sec  (  7.5% of XC)
    XC-Functional eval.     ....       0.007 sec  (  1.9% of XC)
    XC-Potential eval.      ....       0.082 sec  ( 22.1% of XC)
Diagonalization             ....       0.000 sec  (  0.0%)
Density matrix formation    ....       0.091 sec  (  3.4%)
Total Energy calculation    ....       0.021 sec  (  0.8%)
Population analysis         ....       0.013 sec  (  0.5%)
Orbital Transformation      ....       0.023 sec  (  0.9%)
Orbital Orthonormalization  ....       0.000 sec  (  0.0%)
DIIS solution               ....       0.063 sec  (  2.4%)
SOSCF solution              ....       0.167 sec  (  6.3%)
Finished LeanSCF after   2.7 sec

Maximum memory used throughout the entire LEANSCF-calculation: 20.6 MB


           ************************************************************
           *        Program running with 8 parallel MPI-processes     *
           *              working on a common directory               *
           ************************************************************

------------------------------------------------------------------------------
                         ORCA PROPERTY INTEGRAL CALCULATIONS
------------------------------------------------------------------------------

GBWName                                   ... /cluster/projects/nn14654k/ylvaos/basis_set_n_funcs/functionals/pbe/LiS/inp/LiS_pbe_ccpvqz.gbw
Number of atoms                           ...      2
Number of basis functions                 ...    149
Max core memory                           ...   4096 MB

Dipole integrals                          ... YES
Quadrupole integrals                      ... YES
Linear momentum integrals                 ...  NO
Angular momentum integrals                ...  NO
Higher moments length integrals           ...  NO
Higher moments velocity integrals         ...  NO
Kinetic energy integrals                  ...  NO
GIAO right hand sides                     ...  NO
GIAO dipole derivative integrals          ...  NO
SOC integrals                             ...  NO
EPR diamagnetic integrals (GIAO)          ...  NO
EPR gauge integrals                       ...  NO
Field gradient integrals                  ...  NO (   0 nuclei)
Spin-dipole/Fermi contact integrals       ...  NO (   0 nuclei)
Contact density integrals                 ...  NO (   0 nuclei)
Nucleus-orbit integrals                   ...  NO (   0 nuclei)
Geometric perturbations                   ...  NO (   2 nuclei)

Choice of electric origin   ... Center of mass
Position of electric origin ... (  0.0000,  0.0000,  1.3082) 
Choice of magnetic origin   ... GIAO
Position of magnetic origin ... (  0.0000,  0.0000,  0.0000) 

Calculating integrals                     ... Electric Dipole (Length)     done (  0.0 sec)
Calculating integrals                     ... Electric Quadrupole (Length) done (  0.0 sec)

Property integrals calculated in   0.0 sec

Maximum memory used throughout the entire PROPINT-calculation: 11.2 MB
------------------------------------------------------------------------------
                           ORCA ORBITAL LOCALIZATION
------------------------------------------------------------------------------

Input orbitals are from                  ... /cluster/projects/nn14654k/ylvaos/basis_set_n_funcs/functionals/pbe/LiS/inp/LiS_pbe_ccpvqz.gbw
Output orbitals are to                   ... /cluster/projects/nn14654k/ylvaos/basis_set_n_funcs/functionals/pbe/LiS/inp/LiS_pbe_ccpvqz.loc
Max. number of iterations                ... 128
Localizations seeded randomly            ... on
Convergence tolerance                    ... 1.000e-06
Threshold for strong local MOs           ... 9.500e-01
Threshold for bond MOs                   ... 8.500e-01
Operator                                 ... 0
Orbital range for localization           ... 5 to 9
Localization criterion                   ... NEW-BOYS
Doing the dipole integrals               ... o.k.
Initial value of the localization sum :    12.623545
ITERATION   0 : L=   15.5543508568 DL=  2.93e+00 (AVERGE_DL)=    0.5413691422 
ITERATION   1 : L=   15.7281389240 DL=  1.74e-01 (AVERGE_DL)=    0.1318287022 
ITERATION   2 : L=   15.7709132074 DL=  4.28e-02 (AVERGE_DL)=    0.0654020515 
ITERATION   3 : L=   15.8104164799 DL=  3.95e-02 (AVERGE_DL)=    0.0628516289 
ITERATION   4 : L=   15.8321291829 DL=  2.17e-02 (AVERGE_DL)=    0.0465968915 
ITERATION   5 : L=   15.8450175921 DL=  1.29e-02 (AVERGE_DL)=    0.0359004307 
ITERATION   6 : L=   15.8518493800 DL=  6.83e-03 (AVERGE_DL)=    0.0261376890 
ITERATION   7 : L=   15.8556239413 DL=  3.77e-03 (AVERGE_DL)=    0.0194282303 
ITERATION   8 : L=   15.8578242417 DL=  2.20e-03 (AVERGE_DL)=    0.0148334098 
ITERATION   9 : L=   15.8592303235 DL=  1.41e-03 (AVERGE_DL)=    0.0118578318 
ITERATION  10 : L=   15.8602123190 DL=  9.82e-04 (AVERGE_DL)=    0.0099095685 
ITERATION  11 : L=   15.8609487496 DL=  7.36e-04 (AVERGE_DL)=    0.0085815534 
ITERATION  12 : L=   15.8615277230 DL=  5.79e-04 (AVERGE_DL)=    0.0076090306 
ITERATION  13 : L=   15.8619959318 DL=  4.68e-04 (AVERGE_DL)=    0.0068425785 
ITERATION  14 : L=   15.8623806785 DL=  3.85e-04 (AVERGE_DL)=    0.0062027947 
ITERATION  15 : L=   15.8626997610 DL=  3.19e-04 (AVERGE_DL)=    0.0056487393 
ITERATION  16 : L=   15.8629658971 DL=  2.66e-04 (AVERGE_DL)=    0.0051588374 
ITERATION  17 : L=   15.8631887558 DL=  2.23e-04 (AVERGE_DL)=    0.0047207913 
ITERATION  18 : L=   15.8633759703 DL=  1.87e-04 (AVERGE_DL)=    0.0043268293 
ITERATION  19 : L=   15.8635336802 DL=  1.58e-04 (AVERGE_DL)=    0.0039712710 
ITERATION  20 : L=   15.8636668798 DL=  1.33e-04 (AVERGE_DL)=    0.0036496515 
ITERATION  21 : L=   15.8637796518 DL=  1.13e-04 (AVERGE_DL)=    0.0033581546 
ITERATION  22 : L=   15.8638753487 DL=  9.57e-05 (AVERGE_DL)=    0.0030934914 
ITERATION  23 : L=   15.8639567314 DL=  8.14e-05 (AVERGE_DL)=    0.0028527647 
ITERATION  24 : L=   15.8640260801 DL=  6.93e-05 (AVERGE_DL)=    0.0026334143 
ITERATION  25 : L=   15.8640852842 DL=  5.92e-05 (AVERGE_DL)=    0.0024331909 
ITERATION  26 : L=   15.8641359149 DL=  5.06e-05 (AVERGE_DL)=    0.0022501255 
ITERATION  27 : L=   15.8641792817 DL=  4.34e-05 (AVERGE_DL)=    0.0020824694 
ITERATION  28 : L=   15.8642164808 DL=  3.72e-05 (AVERGE_DL)=    0.0019287081 
ITERATION  29 : L=   15.8642484310 DL=  3.20e-05 (AVERGE_DL)=    0.0017874604 
ITERATION  30 : L=   15.8642759055 DL=  2.75e-05 (AVERGE_DL)=    0.0016575449 
ITERATION  31 : L=   15.8642995573 DL=  2.37e-05 (AVERGE_DL)=    0.0015379129 
ITERATION  32 : L=   15.8643199384 DL=  2.04e-05 (AVERGE_DL)=    0.0014276260 
ITERATION  33 : L=   15.8643375172 DL=  1.76e-05 (AVERGE_DL)=    0.0013258497 
ITERATION  34 : L=   15.8643526912 DL=  1.52e-05 (AVERGE_DL)=    0.0012318276 
ITERATION  35 : L=   15.8643657993 DL=  1.31e-05 (AVERGE_DL)=    0.0011449034 
ITERATION  36 : L=   15.8643771302 DL=  1.13e-05 (AVERGE_DL)=    0.0010644698 
ITERATION  37 : L=   15.8643869312 DL=  9.80e-06 (AVERGE_DL)=    0.0009899998 
ITERATION  38 : L=   15.8643954135 DL=  8.48e-06 (AVERGE_DL)=    0.0009209926 
ITERATION  39 : L=   15.8644027579 DL=  7.34e-06 (AVERGE_DL)=    0.0008569971 
ITERATION  40 : L=   15.8644091202 DL=  6.36e-06 (AVERGE_DL)=    0.0007976401 
ITERATION  41 : L=   15.8644146337 DL=  5.51e-06 (AVERGE_DL)=    0.0007425254 
ITERATION  42 : L=   15.8644194133 DL=  4.78e-06 (AVERGE_DL)=    0.0006913515 
ITERATION  43 : L=   15.8644235581 DL=  4.14e-06 (AVERGE_DL)=    0.0006437972 
ITERATION  44 : L=   15.8644271532 DL=  3.60e-06 (AVERGE_DL)=    0.0005995969 
ITERATION  45 : L=   15.8644302724 DL=  3.12e-06 (AVERGE_DL)=    0.0005584945 
ITERATION  46 : L=   15.8644329792 DL=  2.71e-06 (AVERGE_DL)=    0.0005202702 
ITERATION  47 : L=   15.8644353284 DL=  2.35e-06 (AVERGE_DL)=    0.0004846842 
ITERATION  48 : L=   15.8644373676 DL=  2.04e-06 (AVERGE_DL)=    0.0004515724 
ITERATION  49 : L=   15.8644391377 DL=  1.77e-06 (AVERGE_DL)=    0.0004207309 
ITERATION  50 : L=   15.8644406746 DL=  1.54e-06 (AVERGE_DL)=    0.0003920253 
ITERATION  51 : L=   15.8644420087 DL=  1.33e-06 (AVERGE_DL)=    0.0003652649 
ITERATION  52 : L=   15.8644431670 DL=  1.16e-06 (AVERGE_DL)=    0.0003403375 
ITERATION  53 : L=   15.8644441726 DL=  1.01e-06 (AVERGE_DL)=    0.0003171087 
ITERATION  54 : L=   15.8644450456 DL=  8.73e-07 (AVERGE_DL)=    0.0002954590 
LOCALIZATION SUM CONVERGED


--------------------------------------------------------------------------------
                    LOCALIZED MOLECULAR ORBITAL COMPOSITIONS
--------------------------------------------------------------------------------

The Mulliken populations for each LMO on each atom are computed
The LMO`s will be ordered according to atom index and type
  (A) Strongly localized MO`s have populations of >=0.950 on one atom
  (B) Two center bond orbitals have populations of >=0.850 on two atoms
  (C) Other MO`s are considered to be `delocalized`

FOUND  -   2 strongly local MO`s
       -   3 two center bond MO`s
       -   0 significantly delocalized MO`s

Rather strongly localized orbitals:
MO   6:   1S  -   0.966283
MO   5:   0Li -   1.023543
Bond-like localized orbitals:
MO   9:   1S  -   0.897759  and   0Li -   0.102241
MO   8:   1S  -   0.897562  and   0Li -   0.102438
MO   7:   1S  -   0.941404  and   0Li -   0.058596
Localized MO's were stored in: /cluster/projects/nn14654k/ylvaos/basis_set_n_funcs/functionals/pbe/LiS/inp/LiS_pbe_ccpvqz.loc
------------------------------------------------------------------------------
                           ORCA ORBITAL LOCALIZATION
------------------------------------------------------------------------------

Input orbitals are from                  ... /cluster/projects/nn14654k/ylvaos/basis_set_n_funcs/functionals/pbe/LiS/inp/LiS_pbe_ccpvqz.loc
Output orbitals are to                   ... /cluster/projects/nn14654k/ylvaos/basis_set_n_funcs/functionals/pbe/LiS/inp/LiS_pbe_ccpvqz.loc
Max. number of iterations                ... 128
Localizations seeded randomly            ... on
Convergence tolerance                    ... 1.000e-06
Threshold for strong local MOs           ... 9.500e-01
Threshold for bond MOs                   ... 8.500e-01
Operator                                 ... 1
Orbital range for localization           ... 5 to 8
Localization criterion                   ... NEW-BOYS
Doing the dipole integrals               ... o.k.
Initial value of the localization sum :    12.333976
ITERATION   0 : L=   14.8895061963 DL=  2.56e+00 (AVERGE_DL)=    0.6526267347 
ITERATION   1 : L=   14.9309234843 DL=  4.14e-02 (AVERGE_DL)=    0.0830835804 
ITERATION   2 : L=   14.9460094104 DL=  1.51e-02 (AVERGE_DL)=    0.0501430056 
ITERATION   3 : L=   14.9762448235 DL=  3.02e-02 (AVERGE_DL)=    0.0709875730 
ITERATION   4 : L=   15.0429675818 DL=  6.67e-02 (AVERGE_DL)=    0.1054535903 
ITERATION   5 : L=   15.1452738314 DL=  1.02e-01 (AVERGE_DL)=    0.1305796370 
ITERATION   6 : L=   15.2426170761 DL=  9.73e-02 (AVERGE_DL)=    0.1273729725 
ITERATION   7 : L=   15.3033584302 DL=  6.07e-02 (AVERGE_DL)=    0.1006158985 
ITERATION   8 : L=   15.3329816766 DL=  2.96e-02 (AVERGE_DL)=    0.0702652668 
ITERATION   9 : L=   15.3459697694 DL=  1.30e-02 (AVERGE_DL)=    0.0465261446 
ITERATION  10 : L=   15.3514527636 DL=  5.48e-03 (AVERGE_DL)=    0.0302296606 
ITERATION  11 : L=   15.3537423618 DL=  2.29e-03 (AVERGE_DL)=    0.0195345770 
ITERATION  12 : L=   15.3546969899 DL=  9.55e-04 (AVERGE_DL)=    0.0126136704 
ITERATION  13 : L=   15.3550954988 DL=  3.99e-04 (AVERGE_DL)=    0.0081497333 
ITERATION  14 : L=   15.3552621360 DL=  1.67e-04 (AVERGE_DL)=    0.0052699970 
ITERATION  15 : L=   15.3553319171 DL=  6.98e-05 (AVERGE_DL)=    0.0034103045 
ITERATION  16 : L=   15.3553611706 DL=  2.93e-05 (AVERGE_DL)=    0.0022080714 
ITERATION  17 : L=   15.3553734436 DL=  1.23e-05 (AVERGE_DL)=    0.0014302115 
ITERATION  18 : L=   15.3553785953 DL=  5.15e-06 (AVERGE_DL)=    0.0009266194 
ITERATION  19 : L=   15.3553807586 DL=  2.16e-06 (AVERGE_DL)=    0.0006004527 
ITERATION  20 : L=   15.3553816671 DL=  9.08e-07 (AVERGE_DL)=    0.0003891148 
LOCALIZATION SUM CONVERGED


--------------------------------------------------------------------------------
                    LOCALIZED MOLECULAR ORBITAL COMPOSITIONS
--------------------------------------------------------------------------------

The Mulliken populations for each LMO on each atom are computed
The LMO`s will be ordered according to atom index and type
  (A) Strongly localized MO`s have populations of >=0.950 on one atom
  (B) Two center bond orbitals have populations of >=0.850 on two atoms
  (C) Other MO`s are considered to be `delocalized`

FOUND  -   2 strongly local MO`s
       -   2 two center bond MO`s
       -   0 significantly delocalized MO`s

Rather strongly localized orbitals:
MO   6:   1S  -   0.976152
MO   5:   0Li -   1.023567
Bond-like localized orbitals:
MO   8:   1S  -   0.876194  and   0Li -   0.123806
MO   7:   1S  -   0.876069  and   0Li -   0.123931
Localized MO's were stored in: /cluster/projects/nn14654k/ylvaos/basis_set_n_funcs/functionals/pbe/LiS/inp/LiS_pbe_ccpvqz.loc

-------------------------   --------------------
FINAL SINGLE POINT ENERGY      -405.526929590924
-------------------------   --------------------



           ************************************************************
           *        Program running with 8 parallel MPI-processes     *
           *              working on a common directory               *
           ************************************************************

------------------------------------------------------------------------------
                              ORCA PROPERTY CALCULATIONS
------------------------------------------------------------------------------

GBWName                                 ... /cluster/projects/nn14654k/ylvaos/basis_set_n_funcs/functionals/pbe/LiS/inp/LiS_pbe_ccpvqz.gbw
Number of atoms                         ...      2
Number of basis functions               ...    149
Max core memory                         ...   4096 MB

Electric properties:
Dipole moment                           ... YES
Quadrupole moment                       ... YES
Static polarizability (Dipole/Dipole)   ...  NO
Static polarizability (Dipole/Quad.)    ...  NO
Static polarizability (Quad./Quad.)     ...  NO
Static polarizability (Velocity)        ...  NO
Static hyperpolarizability              ...  NO

Atomic electric properties:
Dipole moment                           ...  NO
Quadrupole moment                       ...  NO
Static polarizability                   ...  NO

Choice of electric origin               ... Center of mass
Position of electric origin             ...     0.000000     0.000000     1.308198

General magnetic properties:
Magnetizability                         ...  NO

EPR properties:
g-Tensor (aka g-matrix)                 ...  NO
Zero-Field splitting spin-orbit         ...  NO
Zero-field splitting spin-spin          ...  NO
Hyperfine couplings                     ...  NO (   0 nuclei)
Quadrupole couplings                    ...  NO (   0 nuclei)
Contact density                         ...  NO (   0 nuclei)

NMR properties:
Chemical shifts                         ...  NO (   0 nuclei)
Spin-rotation constants                 ...  NO (   0 nuclei)
Spin-spin couplings                     ...  NO (   0 nuclei,    0 pairs)

Choice of magnetic origin               ... GIAO
Position of magnetic origin             ...     0.000000     0.000000     0.000000

Properties with geometric perturbations:
SCF Hessian                             ...  NO
IR spectrum                             ...  NO
VCD spectrum                            ...  NO
X-ray spectroscopy properties:
SCF XES/XAS/RIXS spectra                ...  NO

SCF SOC stabilization energy            ...  NO
Diagonal Born-Oppenheimer correction    ...  NO

-------------
DIPOLE MOMENT
-------------

Method             : SCF
Type of density    : Electron Density
Multiplicity       :   2
Irrep              :   0
Energy             :  -405.5269295909236575 Eh
Basis              : AO
                                X                 Y                 Z
Electronic contribution:      0.000000001       0.000000001      -4.189505120
Nuclear contribution   :      0.000000000       0.000000000       1.549484202
                        -----------------------------------------
Total Dipole Moment    :      0.000000001       0.000000001      -2.640020918
                        -----------------------------------------
Magnitude (a.u.)       :      2.640020918
Magnitude (Debye)      :      6.710399890



--------------------
Rotational spectrum 
--------------------
 
Rotational constants in cm-1:             0.000000             0.639339             0.639339 
Rotational constants in MHz :             0.000000         19166.891897         19166.891897 

Dipole components along the rotational axes: 
x,y,z [a.u.] :    -2.640021     0.000000     0.000000 
x,y,z [Debye]:    -6.710400     0.000000     0.000000 

 

Dipole moment calculation done in   0.0 sec 

-----------------
QUADRUPOLE MOMENT
-----------------

Method             : SCF
Type of density    : Electron Density
Multiplicity       :   2
Irrep              :   0
Energy             :  -405.5269295909236575 Eh
Basis              : AO

                XX              YY              ZZ              XY              XZ              YZ
  NUC        0.000000000     0.000000000    41.817245673     0.000000000     0.000000000     0.000000000
  EL       -12.382232690   -13.788698081   -45.119170940    -1.022902935    -0.000000001    -0.000000001
  TOT      -12.382232690   -13.788698081    -3.301925266    -1.022902935    -0.000000001    -0.000000001 (a.u.)
           -16.654526441   -18.546270493    -4.441202409    -1.375839431    -0.000000001    -0.000000001 (Buckingham)

diagonalized tensor:
           -14.326781880   -11.844148892    -3.301925266 (a.u.)
           -19.270011604   -15.930785330    -4.441202409 (Buckingham)
           -18.168035470    -8.150356646    26.318392116 (traceless form in Buckingham)

            -0.465552536    -0.885020246    -0.000000000
            -0.885020246     0.465552536    -0.000000000
            -0.000000000    -0.000000000     1.000000000
        
Isotropic quadrupole :    -9.824285346

Quadrupole moment calculation done in   0.0 sec (  0.0 sec for integrals)

Maximum memory used throughout the entire PROP-calculation: 5.7 MB

--------------------------------
SUGGESTED CITATIONS FOR THIS RUN
--------------------------------

Below you find a list of papers that are relevant to this ORCA run
We neither can nor want to force you to cite these papers, but we appreciate if you do
You receive ORCA, which is the product of decades of hard work by many enthusiastic individuals, for free
The only thing we kindly ask in return is that you cite our papers,
We deeply appreciate it, if you show your appreciation for ORCA by not just citing the generic ORCA reference.

Please note that relegating all ORCA citations to the supporting information does *not* help us.
SI sections are not indexed - citations you put there will not count into any citation statistics
But we need these citations in order to attract the funding resources that allow us to do what we are doing

Therefore, if you are a happy ORCA user, please consider citing a few of the papers listed below in the main body of your paper

In addition to the list printed below, the program has created the file /cluster/projects/nn14654k/ylvaos/basis_set_n_funcs/functionals/pbe/LiS/inp/LiS_pbe_ccpvqz.bibtex that contains the list in bibtex format
You can import this file easily into all common literature databanks and citation aid programs

It goes without saying that in many instances, there are alternative algorithms to achieve similar
results as the ones you have gotten from ORCA. It is, of course, also the case that in some instances
ORCA just re-implements algorithms worked out by others. We are fully aware of that and we are also
fully appreciative of our colleagues work. Hence this citation list should not be read as indicating
that the listed papers, which are focused on our own work, are the only ones worth citing. It simply
meant to make it easier for users to cite ORCA specific papers. It is not a substitute for doing your
own literature research and citing the relevant literature in a scientifically appropriate manner.

List of essential papers. We consider these as the minimum necessary citations

  1. Neese, F.
     Software update: the ORCA program system, version 6.0
     WIRES Comput. Molec. Sci. 2025 15(1), e70019
     doi.org/10.1002/wcms.70019

List of papers to cite with high priority. The work reported in these papers was absolutely
necessary for this run to complete.
Our perspective: the developers of density functionals and basis sets usually get cited in chemistry papers
Good! But without the algorithms to do something with them, the functionals or basis sets would not do anything.
Hence, in our opinion, the algorithm design and method developments papers are equally worthy of getting cited

  1. Neese, F.
     The SHARK Integral Generation and Digestion System
     J. Comp. Chem. 2022 44(3), 381
     doi.org/10.1002/jcc.26942

List of suggested additional citations. These are papers that are important in the 'surrounding' of 
of this run, or papers that preceded the highly important papers. If you like your results we are grateful for a citation.

  1. Neese, F.
     The ORCA program system
     WIRES Comput. Molec. Sci. 2012 2(1), 73-78
     doi.org/10.1002/wcms.81
  2. Neese, F.
     Software update: the ORCA program system, version 4.0
     WIRES Comput. Molec. Sci. 2018 8(1), 1-6
     doi.org/10.1002/wcms.1327
  3. Neese, F.; Wennmohs, F.; Becker, U.; Riplinger, C.
     The ORCA quantum chemistry program package
     J. Chem. Phys. 2020 152(22), 224108
     doi.org/10.1063/5.0004608
  4. Neese, F.
     Software update: The ORCA program system—Version 5.0
     WIRES Comput. Molec. Sci. 2022 12(1), e1606
     doi.org/10.1002/wcms.1606

List of optional additional citations

  1. Neese, F.
     Approximate second-order SCF convergence for spin unrestricted wavefunctions
     Chem. Phys. Lett. 2000 325(1-3), 93-98
     doi.org/10.1016/s0009-2614(00)00662-x

Timings for individual modules:

Sum of individual times          ...        5.339 sec (=   0.089 min)
Startup calculation              ...        1.551 sec (=   0.026 min)  29.1 %
SCF iterations                   ...        3.236 sec (=   0.054 min)  60.6 %
Property integrals               ...        0.292 sec (=   0.005 min)   5.5 %
Property calculations            ...        0.247 sec (=   0.004 min)   4.6 %
Orbital localization             ...        0.012 sec (=   0.000 min)   0.2 %
                             ****ORCA TERMINATED NORMALLY****
TOTAL RUN TIME: 0 days 0 hours 0 minutes 6 seconds 92 msec
