
                                 *****************
                                 * O   R   C   A *
                                 *****************

                                            #,                                       
                                            ###                                      
                                            ####                                     
                                            #####                                    
                                            ######                                   
                                           ########,                                 
                                     ,,################,,,,,                         
                               ,,#################################,,                 
                          ,,##########################################,,             
                       ,#########################################, ''#####,          
                    ,#############################################,,   '####,        
                  ,##################################################,,,,####,       
                ,###########''''           ''''###############################       
              ,#####''   ,,,,##########,,,,          '''####'''          '####       
            ,##' ,,,,###########################,,,                        '##       
           ' ,,###''''                  '''############,,,                           
         ,,##''                                '''############,,,,        ,,,,,,###''
      ,#''                                            '''#######################'''  
     '                                                          ''''####''''         
             ,#######,   #######,   ,#######,      ##                                
            ,#'     '#,  ##    ##  ,#'     '#,    #''#        ,####,    ,#,          
            ##       ##  ##   ,#'  ##            #'  '#       #'       ,# #          
            ##       ##  #######   ##           ,######,      #####,      #          
            '#,     ,#'  ##    ##  '#,     ,#' ,#      #,     #,   #      #          
             '#######'   ##     ##  '#######'  #'      '#     '####' #    #          



                #########################################################
                #                        -***-                          #
                #          Department of theory and spectroscopy        #
                #                                                       #
                #                      Frank Neese                      #
                #                                                       #
                #     Directorship, Architecture, Infrastructure        #
                #                    SHARK, DRIVERS                     #
                #        Core code/Algorithms in most modules           #
                #                                                       #
                #        Max Planck Institute fuer Kohlenforschung      #
                #                Kaiser Wilhelm Platz 1                 #
                #                 D-45470 Muelheim/Ruhr                 #
                #                      Germany                          #
                #                                                       #
                #                  All rights reserved                  #
                #                        -***-                          #
                #########################################################


                         Program Version 6.1.1  -  RELEASE   -
                                (GIT: $487d211c$)
                          ($2025-11-21 10:33:24 +0100$)


 With contributions from (in alphabetic order):
[Max-Planck-Institut fuer Kohlenforschung]                               
  Daniel Aravena         : Magnetic Suceptibility                        
  Michael Atanasov       : Ab Initio Ligand Field Theory (pilot matlab implementation)
  Alexander A. Auer      : GIAO ZORA, VPT2 properties, NMR spectrum      
  Ute Becker             : All parallelization in ORCA, NUMFREQ, NUMCALC 
  Giovanni Bistoni       : ED, misc. LED, open-shell LED, HFLD           
  Dmytro Bykov           : pre 5.0 version of the SCF Hessian            
  Marcos Casanova-Páez   : Triplet and SCS-CIS(D). UHF-(DLPNO)-IP/EA/STEOM-CCSD. UHF-CVS-IP/STEOM-CCSD   
  Vijay G. Chilkuri      : MRCI spin determinant printing, contributions to CSF-ICE 
  Pauline Colinet        : FMM embedding                                 
  Dipayan Datta          : RHF DLPNO-CCSD density                        
  Achintya Kumar Dutta   : EOM-CC, STEOM-CC                              
  Nicolas Foglia         : Exact transition moments, OPA infrastructure, MCD improvements    
  Dmitry Ganyushin       : Spin-Orbit,Spin-Spin,Magnetic field MRCI      
  Miquel Garcia-Rates    : C-PCM and meta-GGA Hessian, CCSD/C-PCM, Gaussian charge scheme 
  Tiago L. C. Gouveia    : GS-ROHF, GS-ROCIS                             
  Yang Guo               : DLPNO-NEVPT2, F12-NEVPT2, CIM, IAO-localization        
  Andreas Hansen         : Spin unrestricted coupled pair/coupled cluster methods 
  Ingolf Harden          : AUTO-CI MPn and infrastructure                
  Benjamin Helmich-Paris : MC-RPA, TRAH-(SCF,CASSCF), AVAS, COSX integrals, SCF dyn. polar., MC-PDFT, srDFT 
  Lee Huntington         : MR-EOM, pCC                                   
  Robert Izsak           : Overlap fitted RIJCOSX, COSX-SCS-MP3, EOM     
  Riya Kayal             : Wick's Theorem for AUTO-CI, AUTO-CI UHF-CCSDT 
  Emily Kempfer          : AUTO-CI RHF CISDT and CCSDT, approximate NEVPT4
  Christian Kollmar      : KDIIS, OOCD, Brueckner-CCSD(T), CCSD density, CASPT2, CASPT2-K, improved NEVPT2 
  Axel Koslowski         : Symmetry handling                             
  Simone Kossmann        : meta-GGA functionals, TD-DFT gradient, OOMP2, (MP2 Hessian; deprecated post 5.0) 
  Lucas Lang             : DCDCAS, Hyperfine gauge corrections, ICE-SOC+SSC
  Marvin Lechner         : AUTO-CI (C++ implementation), FIC-MRCC        
  Spencer Leger          : CASSCF response                               
  Dagmar Lenk            : GEPOL surface, SMD, ORCA-2-JSON               
  Dimitrios Liakos       : Extrapolation schemes; Compound Job, Property file
  Dimitrios Manganas     : Further ROCIS development; embedding schemes. LFT, Crystal Embedding 
  Dimitrios Pantazis     : SARC Basis sets                               
  Anastasios Papadopoulos: AUTO-CI, single reference methods and gradients 
  Taras Petrenko         : pre 6.0 DFT Hessian and TD-DFT gradient,  ECA, NRVS 
  Petra Pikulova         : Analytic Raman intensities                    
  Peter Pinski           : DLPNO-MP2, DLPNO-MP2 Gradient                 
  Shashank Vittal Rao    : ES-AILFT, MagRelax                            
  Christoph Reimann      : Effective Core Potentials                     
  Marius Retegan         : Local ZFS, SOC                                
  Christoph Riplinger    : Optimizer, TS searches, QM/MM, DLPNO-CCSD(T), (RO)-DLPNO pert. Triples 
  Michael Roemelt        : Original ROCIS implementation, recursive CI coupling coefficients
  Masaaki Saitow         : Open-shell DLPNO-CCSD energy and density      
  Barbara Sandhoefer     : DKH picture change effects                    
  Yorick L. A. Schmerwitz: GMF and freeze-and-release deltaSCF, NEB S-IDPP initial path                    
  Kantharuban Sivalingam : CASSCF convergence/infrastructure, NEVPT2, NEVPT3, NEVPT4(SD), FIC-MRCI and CEPA variants
  Bernardo de Souza      : ESD, SOC TD-DFT                               
  Georgi L. Stoychev     : AutoAux, RI-MP2 NMR, DLPNO-MP2 response, X2C  
  Van Anh Tran           : RI-MP2 g-tensors                              
  Willem Van den Heuvel  : Paramagnetic NMR                              
  Zikuan Wang            : NOTCH, Electric field optimization            
  Frank Wennmohs         : Technical directorship and infrastructure     
  Hang Xu                : AUTO-CI-Response properties                   
                                                                         
[FACCTs GmbH]                                                            
  Markus Bursch, Nicolas Foglia, Miquel Garcia-Rates, Ingolf Harden, Hagen Neugebauer, Anastasios Papadopoulos, 
  Christoph Riplinger, Bernardo de Souza, Georgi L. Stoychev                                                    
                                                                 
  APM, various basis sets, CI-OPT, improved COSX, DLPNO-Multilevel,           
  DOCKER, DRACO, updates on ESD, Fragmentator, GOAT, IRC, LR-CPCM, L-BFGS, MBIS, meta-GGA TD-DFT gradient, ML-optimized integration grids, 
  MM, NACMEs, nearIR, NEB, NEB-TS, NL-DFT gradient (VV10), 2- and 3-layer-ONIOM, interface openCOSMO-RS, QMMM,   
  Crystal-QMMM, RESP, rigid body optimization, SF, symmetry and pop. for TD-DFT, various functionals, SOLVATOR                                   
                                                                         
[Other institutions]                                                     
  V. Asgeirsson          : NEB                                           
  Christoph Bannwarth    : sTDA-DFT, sTD-DFT, PBEh-3c, B97-3c, D3        
  Giovanni Bistoni       : ETS/NOCV, ADLD/ADEX, COVALED                  
  Martin Brehm           : Molecular dynamics                            
  Ronald Cardenas        : ETS/NOCV                                      
  Martina Colucci        : COVALED                                       
  Sebastian Ehlert       : rSCAN, r2SCAN, r2SCAN-3c, D4, dhf basis sets  
  Marvin Friede          : D4 for Fr, Ra, Ac-Lr                          
  Lars Goerigk           : TD-DFT with DH, B97 family of functionals     
  Stefan Grimme          : VdW corrections, initial TS optimization, DFT functionals, gCP, sTDA/sTD-DF 
  Waldemar Hujo          : DFT-NL                                        
  H. Jonsson             : NEB                                           
  Holger Kruse           : gCP                                           
  Marcel Mueller         : wB97X-3c, vDZP basis set                      
  Hagen Neugebauer       : wr2SCAN, Native XTB                           
  Gianluca Regni         : ADLD/ADEX                                     
  Tobias Risthaus        : pre 6.0 range-separated hybrid DFT and stability analysis
  Lukas Wittmann         : regularized MP2, r2SCAN double-hybrids, wr2SCAN        
                                                                         
We gratefully acknowledge several colleagues who have allowed us to      
interface, adapt or use parts of their codes:                            
  Ed Valeev, F. Pavosevic, A. Kumar             : LibInt (2-el integral package), F12 methods 
  Garnet Chan, S. Sharma, J. Yang, R. Olivares  : DMRG                   
  Ulf Ekstrom                                   : XCFun DFT Library      
  Mihaly Kallay                                 : mrcc  (arbitrary order and MRCC methods)
  Frank Weinhold                                : gennbo (NPA and NBO analysis)           
  Simon Mueller                                 : openCOSMO-RS                            
  Christopher J. Cramer and Donald G. Truhlar   : smd solvation model                     
  S Lehtola, MJT Oliveira, MAL Marques          : LibXC Library                           
  Liviu Ungur et al                             : ANISO software                          


 Your calculation uses the libint2 library for the computation of 2-el integrals
 For citations please refer to: http://libint.valeyev.net

 Your ORCA version has been built with support for libXC version: 7.0.0
 For citations please refer to: https://libxc.gitlab.io

 This ORCA versions uses:
   CBLAS   interface :  Fast vector & matrix operations
   LAPACKE interface :  Fast linear algebra routines
   SCALAPACK package :  Parallel linear algebra routines
   Shared memory     :  Shared parallel matrices
   BLAS/LAPACK       :  OpenBLAS 0.3.29  USE64BITINT DYNAMIC_ARCH NO_AFFINITY Cooperlake SINGLE_THREADED
        Core in use  :  Cooperlake
   Copyright (c) 2011-2014, The OpenBLAS Project


  ***********************************
  * Starting time: Wed May 20 12:36:45 2026
  * Host name:     c1-3
  * Process ID:    1535422
  * Working dir.:  /cluster/projects/nn14654k/ylvaos/basis_set_n_funcs/functionals/pbe/LiS/out
  ***********************************

================================================================================

----- Orbital basis set information -----
Your calculation utilizes the basis: aug-cc-pVTZ 
    H, B-Ne : Obtained from the ccRepo (grant-hill.group.shef.ac.uk/ccrepo) Feb. 2017
              R. A. Kendall, T. H. Dunning, Jr., R. J. Harrison, J. Chem. Phys. 96, 6796 (1992)
         He : Obtained from the ccRepo (grant-hill.group.shef.ac.uk/ccrepo) Feb. 2017
              D. E. Woon, T. H. Dunning, Jr., J. Chem. Phys. 100, 2975 (1994)
  Li-Be, Na : Obtained from the ccRepo (grant-hill.group.shef.ac.uk/ccrepo) Feb. 2017
              B. P. Prascher, D. E. Woon, K. A. Peterson, T. H. Dunning, Jr., A. K. Wilson, Theor. Chem. Acc. 128, 69 (2011)
         Mg : Obtained from the Peterson Research Group Website (tyr0.chem.wsu.edu/~kipeters) Feb. 2017
              B. P. Prascher, D. E. Woon, K. A. Peterson, T. H. Dunning, Jr., A. K. Wilson, Theor. Chem. Acc. 128, 69 (2011)
      Al-Ar : Obtained from the ccRepo (grant-hill.group.shef.ac.uk/ccrepo) Feb. 2017
              D. E. Woon, T. H. Dunning, Jr., J. Chem. Phys. 98, 1358 (1993)
      Sc-Zn : Obtained from the ccRepo (grant-hill.group.shef.ac.uk/ccrepo) Feb. 2017
              N. B. Balabanov, K. A. Peterson, J. Chem. Phys. 123, 064107 (2005)
              N. B. Balabanov, K. A. Peterson, J. Chem. Phys. 125, 074110 (2006)
      Ga-Kr : Obtained from the ccRepo (grant-hill.group.shef.ac.uk/ccrepo) Feb. 2017
              A. K. Wilson, D. E. Woon, K. A. Peterson, T. H. Dunning, Jr., J. Chem. Phys. 110, 7667 (1999)
     Ag, Au : Obtained from the Peterson Research Group Website (tyr0.chem.wsu.edu/~kipeters) Feb. 2017
              K. A. Peterson, C. Puzzarini, Theor. Chem. Acc. 114, 283 (2005)

================================================================================
                                        WARNINGS
                       Please study these warnings very carefully!
================================================================================


WARNING: your system is open-shell and RHF/RKS was chosen
  ===> : WILL SWITCH to UHF/UKS


================================================================================
                                       INPUT FILE
================================================================================
NAME = /cluster/projects/nn14654k/ylvaos/basis_set_n_funcs/functionals/pbe/LiS/inp/LiS_pbe_augccpvtz.inp
|  1> ! dft aug-cc-pVTZ TightSCF
|  2> %pal nprocs 8 end
|  3> 
|  4> %loc
|  5>   LocMet NewBoys
|  6>   Occ true
|  7> end
|  8> 
|  9> %method
| 10>   
| 11>   functional pbe
| 12> end
| 13> 
| 14> %elprop
| 15>   Dipole true
| 16>   Quadrupole true
| 17> end
| 18> 
| 19> * xyz 0 2
| 20> Li    0.000000000000   0.000000000000  -1.074850000000
| 21> S    0.000000000000   0.000000000000   1.074850000000
| 22> *
| 23> 
| 24> 
| 25>                          ****END OF INPUT****
================================================================================

                       ****************************
                       * Single Point Calculation *
                       ****************************

---------------------------------
CARTESIAN COORDINATES (ANGSTROEM)
---------------------------------
  Li     0.000000    0.000000   -1.074850
  S      0.000000    0.000000    1.074850

----------------------------
CARTESIAN COORDINATES (A.U.)
----------------------------
  NO LB      ZA    FRAG     MASS         X           Y           Z
   0 Li    3.0000    0     6.941    0.000000    0.000000   -2.031172
   1 S    16.0000    0    32.060    0.000000    0.000000    2.031172

--------------------------------
INTERNAL COORDINATES (ANGSTROEM)
--------------------------------
 Li     0   0   0     0.000000000000     0.00000000     0.00000000
 S      1   0   0     2.149700000000     0.00000000     0.00000000

---------------------------
INTERNAL COORDINATES (A.U.)
---------------------------
 Li     0   0   0     0.000000000000     0.00000000     0.00000000
 S      1   0   0     4.062344270091     0.00000000     0.00000000

---------------------
BASIS SET INFORMATION
---------------------
There are 2 groups of distinct atoms

 Group   1 Type Li  : 21s6p3d2f contracted to 5s4p3d2f pattern {99111/3111/111/11}
 Group   2 Type S   : 42s17p3d2f contracted to 6s5p3d2f pattern {131313111/77111/111/11}

Atom   0Li   basis set group =>   1
Atom   1S    basis set group =>   2


           ************************************************************
           *        Program running with 8 parallel MPI-processes     *
           *              working on a common directory               *
           ************************************************************
------------------------------------------------------------------------------
                             ORCA STARTUP CALCULATIONS
------------------------------------------------------------------------------
------------------------------------------------------------------------------
                   ___                                                        
                  /   \      - P O W E R E D   B Y -                         
                 /     \                                                     
                 |  |  |   _    _      __       _____    __    __             
                 |  |  |  | |  | |    /  \     |  _  \  |  |  /  |          
                  \  \/   | |  | |   /    \    | | | |  |  | /  /          
                 / \  \   | |__| |  /  /\  \   | |_| |  |  |/  /          
                |  |  |   |  __  | /  /__\  \  |    /   |      \           
                |  |  |   | |  | | |   __   |  |    \   |  |\   \          
                \     /   | |  | | |  |  |  |  | |\  \  |  | \   \       
                 \___/    |_|  |_| |__|  |__|  |_| \__\ |__|  \__/        
                                                                              
                      - O R C A' S   B I G   F R I E N D -                    
                                      &                                       
                       - I N T E G R A L  F E E D E R -                       
                                                                              
 v1 FN, 2020, v2 2021, v3 2022-2024                                           
------------------------------------------------------------------------------


----------------------
SHARK INTEGRAL PACKAGE
----------------------

Number of atoms                             ...      2
Number of basis functions                   ...    128
Number of shells                            ...     52
Maximum angular momentum                    ...      3
Integral batch strategy                     ... SHARK/LIBINT Hybrid
RI-J (if used) integral strategy            ... SPLIT-RIJ (Revised 2003 algorithm where possible)
Printlevel                                  ...      1
Contraction scheme used                     ... PARTIAL GENERAL contraction
Prescreening option                         ... SCHWARTZ
   Thresh                                   ... 2.500e-11
   Tcut                                     ... 2.500e-12
   Tpresel                                  ... 2.500e-12 
Coulomb Range Separation                    ... NOT USED
Exchange Range Separation                   ... NOT USED
Multipole approximations                    ... NOT USED
Finite Nucleus Model                        ... NOT USED
CABS basis                                  ... NOT available
Auxiliary Coulomb fitting basis             ... NOT available
Auxiliary J/K fitting basis                 ... NOT available
Auxiliary Correlation fitting basis         ... NOT available
Auxiliary 'external' fitting basis          ... NOT available

Checking pre-screening integrals            ... done (  0.0 sec) Dimension = 52
Save PGC pre-screening integrals            ... done (  0.0 sec) Dimension = 52
Calculate PGC overlap integrals             ... done (  0.0 sec) Dimension = 30
Calculating pre-screening integrals (ORCA)  ... done (  0.1 sec) Dimension = 30
Shell pair information
Shell pair cut-off parameter TPreSel        ...   2.5e-12
Total number of shell pairs                 ...      1378
Shell pairs after pre-screening             ...      1252
Total number of primitive shell pairs       ...      1488
Primitive shell pairs kept                  ...      1346
          la=0 lb=0:    323 shell pairs
          la=1 lb=0:    351 shell pairs
          la=1 lb=1:    105 shell pairs
          la=2 lb=0:    168 shell pairs
          la=2 lb=1:     84 shell pairs
          la=2 lb=2:     21 shell pairs
          la=3 lb=0:    110 shell pairs
          la=3 lb=1:     56 shell pairs
          la=3 lb=2:     24 shell pairs
          la=3 lb=3:     10 shell pairs

Checking whether 4 symmetric matrices of dimension 128 fit in memory
:Max Core in MB      =   4096.00
 MB in use           =      3.24
 MB left             =   4092.76
 MB needed           =      0.25
 Data fit in memory  = YES
Calculating Nuclear repulsion               ... done (  0.0 sec) ENN=     11.815837557985 Eh

Diagonalization of the overlap matrix:
Smallest eigenvalue                        ... 6.724e-04
Time for diagonalization                   ...    0.001 sec
Threshold for overlap eigenvalues          ... 1.000e-07
Number of eigenvalues below threshold      ... 0
Time for construction of square roots      ...    0.002 sec
Total time needed                          ...    0.005 sec

-------------------
DFT GRID GENERATION
-------------------

General Integration Accuracy     IntAcc      ... 4.388
Radial Grid Type                 RadialGrid  ... OptM3 with GC (2021)
Angular Grid (max. ang.)         AngularGrid ... 4 (Lebedev-302)
Angular grid pruning method      GridPruning ... 4 (adaptive)
Weight generation scheme         WeightScheme... mBecke (2022)
Basis function cutoff            BFCut       ... 1.0000e-11
Integration weight cutoff        WCut        ... 1.0000e-14
Partially contracted basis set               ... off
Rotationally invariant grid construction     ... off
Angular grids for H and He will be reduced by one unit
Diffuse basis detected: some atoms will have their outermost
                        angular grid increased by 1.

Total number of grid points                  ...    14126
Total number of batches                      ...      221
Average number of points per batch           ...       63
Average number of grid points per atom       ...     7063

---------------------
SHARK GRID GENERATION
---------------------

General Integration Accuracy     IntAcc      ... 4.388
Radial Grid Type                 RadialGrid  ... OptM3 with GC (2021)
Angular Grid (max. ang.)         AngularGrid ... 4 (Lebedev-302)
Angular grid pruning method      GridPruning ... 4 (adaptive)
Weight generation scheme         WeightScheme... mBecke (2022)
Basis function cutoff            BFCut       ... 1.0000e-11
Integration weight cutoff        WCut        ... 1.0000e-14
Partially contracted basis set               ... off
Rotationally invariant grid construction     ... off
Angular grids for H and He will be reduced by one unit
Diffuse basis detected: some atoms will have their outermost
                        angular grid increased by 1.
Core-polarized basis detected: some atoms will have their core
                               angular grid increased.
Steep s-basis detected: some atoms will have their radial
                        grid points doubled.

Total number of grid points                  ...    33087
Total number of batches                      ...      518
Average number of points per batch           ...       63
Average number of grid points per atom       ...    16544
Grids setup in   0.8 sec
Initializing property integral containers    ... done (  0.0 sec)

SHARK setup successfully completed in   1.0 seconds

Maximum memory used throughout the entire STARTUP-calculation: 48.0 MB


           ************************************************************
           *        Program running with 8 parallel MPI-processes     *
           *              working on a common directory               *
           ************************************************************
-------------------------------------------------------------------------------
                                 ORCA GUESS
                   Start orbitals & Density for SCF / CASSCF
-------------------------------------------------------------------------------

------------
SCF SETTINGS
------------
Hamiltonian:
 Density Functional     Method          .... DFT(GTOs)
 Exchange Functional    Exchange        .... PBE
   PBE kappa parameter   XKappa         ....  0.804000
   PBE mue parameter    XMuePBE         ....  0.219520
 Correlation Functional Correlation     .... PBE
   PBE beta parameter  CBetaPBE         ....  0.066725
 LDA part of GGA corr.  LDAOpt          .... PW91-LDA
 Gradients option       PostSCFGGA      .... off
   NL short-range parameter             ....  6.400000


General Settings:
 Integral files         IntName         .... /cluster/projects/nn14654k/ylvaos/basis_set_n_funcs/functionals/pbe/LiS/inp/LiS_pbe_augccpvtz
 Hartree-Fock type      HFTyp           .... UHF
 Total Charge           Charge          ....    0
 Multiplicity           Mult            ....    2
 Number of Electrons    NEL             ....   19
 Basis Dimension        Dim             ....   96
 Nuclear Repulsion      ENuc            ....     11.8158375580 Eh

Convergence Acceleration:
 AO-DIIS                CNVDIIS         .... on
   Start iteration      DIISMaxIt       ....    12
   Startup error        DIISStart       ....  0.200000
   # of expansion vecs  DIISMaxEq       ....     5
   Bias factor          DIISBfac        ....   1.050
   Max. coefficient     DIISMaxC        ....  10.000
 MO-DIIS                CNVKDIIS        .... off
 Trust-Rad. Augm. Hess. CNVTRAH         .... auto
   Auto Start mean grad. ratio tolernc. ....  1.125000
   Auto Start start iteration           ....    50
   Auto Start num. interpolation iter.  ....    10
   Max. Number of Micro iterations      ....    24
   Max. Number of Macro iterations      .... Maxiter - #DIIS iter
   Number of Davidson start vectors     ....     2
   Converg. threshold    (grad. norm)   ....   1.000e-05
   Grad. Scal. Fac. for Micro threshold ....   0.100
   Minimum threshold for Micro iter.    ....   1.000e-02
   NR start threshold (gradient norm)   ....   1.000e-04
   Initial trust radius                 ....   0.400
   Minimum AH scaling param. (alpha)    ....   1.000
   Maximum AH scaling param. (alpha)    .... 1000.000
   Quad. conv. algorithm                .... NR
   White noise on init. David. guess    .... on
   Maximum white noise                  ....   0.010
   Pseudo random numbers                .... off
   Inactive MOs                         .... canonical
   Orbital update algorithm             .... Taylor
   Preconditioner                       .... Diag
   Full preconditioner red. dimension   ....   250
 SOSCF                 CNVSOSCF           .... on
   Start iteration     SOSCFMaxIt         ....   150
   Startup grad/error  SOSCFStart         ....  0.003300
   Hessian update      SOSCFHessUp        .... L-BFGS
   Autom. constraints  SOSCFAutoConstrain .... off
 Level Shifting         CNVShift        .... on
   Level shift para.    LevelShift      ....    0.2500
   Turn off err/grad.   ShiftErr        ....    0.0010
 Zerner damping         CNVZerner       .... off
 Static damping         CNVDamp         .... on
   Fraction old density DampFac         ....    0.7000
   Max. Damping (<1)    DampMax         ....    0.9800
   Min. Damping (>=0)   DampMin         ....    0.0000
   Turn off err/grad.   DampErr         ....    0.1000

SCF Procedure:
 Maximum # iterations   MaxIter         ....   125
 SCF integral mode      SCFMode         .... Direct
   Integral package                     .... SHARK and LIBINT hybrid scheme
 Reset frequency        DirectResetFreq ....    20
 Integral Threshold     Thresh          ....  2.500e-11 Eh
 Primitive CutOff       TCut            ....  2.500e-12 Eh

Convergence Tolerance:
 Convergence Check Mode ConvCheckMode   .... Total+1el-Energy
 Convergence forced     ConvForced      .... 0
 Energy Change          TolE            ....  1.000e-08 Eh
 1-El. energy change                    ....  1.000e-05 Eh
 Orbital Gradient       TolG            ....  1.000e-05
 Orbital Rotation angle TolX            ....  1.000e-05
 DIIS Error             TolErr          ....  5.000e-07

------------------------------
INITIAL GUESS: MODEL POTENTIAL
------------------------------
Loading Hartree-Fock densities                     ... done
Calculating cut-offs                               ... done
Initializing the effective Hamiltonian             ... done
Setting up the integral package (SHARK)            ... done
Starting the Coulomb interaction                   ... done (   0.0 sec)
Making the grid                                    ... done (   0.0 sec)
Mapping shells                                     ... done
Starting the XC term evaluation                    ... done (   0.0 sec)
  promolecular density results
     # of electrons  =     18.999681821
     EX              =    -26.589785718
     EC              =     -0.660298864
     EX+EC           =    -27.250084582
Transforming the Hamiltonian                       ... done (   0.0 sec)
Diagonalizing the Hamiltonian                      ... done (   0.0 sec)
Back transforming the eigenvectors                 ... done (   0.0 sec)
Now organizing SCF variables                       ... done
                      ------------------
                      INITIAL GUESS DONE (   0.1 sec)
                      ------------------
             **** ENERGY FILE WAS UPDATED (/cluster/projects/nn14654k/ylvaos/basis_set_n_funcs/functionals/pbe/LiS/inp/LiS_pbe_augccpvtz.en.tmp) ****
Finished Guess after   0.1 sec
Maximum memory used throughout the entire GUESS-calculation: 7.1 MB


           ************************************************************
           *        Program running with 8 parallel MPI-processes     *
           *              working on a common directory               *
           ************************************************************

-------------------------------------------------------------------------------------------
                                      ORCA LEAN-SCF
                              memory conserving SCF solver
-------------------------------------------------------------------------------------------

----------------------------------------D-I-I-S--------------------------------------------
Iteration    Energy (Eh)           Delta-E    RMSDP     MaxDP     DIISErr   Damp  Time(sec)
-------------------------------------------------------------------------------------------
               ***  Starting incremental Fock matrix formation  ***
    1    -405.4866942377200303     0.00e+00  3.31e-03  2.52e-02  5.72e-02  0.700   0.1
Warning: op=0 Small HOMO/LUMO gap (   0.063) - skipping pre-diagonalization
         Will do a full diagonalization
    2    -405.5030380921149344    -1.63e-02  2.89e-03  2.34e-02  3.23e-02  0.700   0.2
                               ***Turning on AO-DIIS***
    3    -405.5108350703312112    -7.80e-03  1.24e-03  1.04e-02  1.08e-02  0.700   0.2
    4    -405.5148091881097230    -3.97e-03  2.00e-03  1.67e-02  7.13e-03  0.000   0.2
    5    -405.5233762414845842    -8.57e-03  4.48e-04  3.42e-03  4.44e-03  0.000   0.2
                              *** Initializing SOSCF ***
---------------------------------------S-O-S-C-F--------------------------------------
Iteration    Energy (Eh)           Delta-E    RMSDP     MaxDP     MaxGrad    Time(sec)
--------------------------------------------------------------------------------------
    6    -405.5236144450526012    -2.38e-04  1.64e-04  1.16e-03  2.08e-03     0.5
               *** Restarting incremental Fock matrix formation ***
    7    -405.5236664830435984    -5.20e-05  1.63e-04  1.23e-03  8.86e-04     0.2
    8    -405.5236775367720270    -1.11e-05  1.15e-04  8.02e-04  5.83e-04     0.1
    9    -405.5236839736176080    -6.44e-06  2.63e-05  1.80e-04  1.47e-04     0.1
   10    -405.5236841277888971    -1.54e-07  6.24e-06  3.75e-05  4.85e-05     0.1
   11    -405.5236841671936645    -3.94e-08  3.45e-06  2.23e-05  2.33e-05     0.1
   12    -405.5236841695371481    -2.34e-09  8.16e-07  6.45e-06  7.97e-06     0.1
                 **** Energy Check signals convergence ****

               *****************************************************
               *                     SUCCESS                       *
               *           SCF CONVERGED AFTER  12 CYCLES          *
               *****************************************************

             **** ENERGY FILE WAS UPDATED (/cluster/projects/nn14654k/ylvaos/basis_set_n_funcs/functionals/pbe/LiS/inp/LiS_pbe_augccpvtz.en.tmp) ****

----------------
TOTAL SCF ENERGY
----------------

Total Energy       :       -405.52368416968540 Eh          -11034.86045 eV

Components:
Nuclear Repulsion  :         11.81583755798484 Eh             321.52529 eV
Electronic Energy  :       -417.33952172767022 Eh          -11356.38573 eV
One Electron Energy:       -584.36403186858797 Eh          -15901.35372 eV
Two Electron Energy:        167.02451014091778 Eh            4544.96798 eV

Virial components:
Potential Energy   :       -809.78429949135875 Eh          -22035.35104 eV
Kinetic Energy     :        404.26061532167330 Eh           11000.49060 eV
Virial Ratio       :          2.00312439253328

DFT components:
N(Alpha)           :       10.000004812844 electrons
N(Beta)            :        9.000002022182 electrons
N(Total)           :       19.000006835026 electrons
E(X)               :      -26.679397276679 Eh       
E(C)               :       -0.669346021049 Eh       
E(XC)              :      -27.348743297729 Eh       

---------------
SCF CONVERGENCE
---------------

  Last Energy change         ...    2.3435e-09  Tolerance :   1.0000e-08
  Last MAX-Density change    ...    6.4464e-06  Tolerance :   1.0000e-07
  Last RMS-Density change    ...    8.1582e-07  Tolerance :   5.0000e-09
  Last DIIS Error            ...    2.0814e-03  Tolerance :   5.0000e-07
  Last Orbital Gradient      ...    7.9726e-06  Tolerance :   1.0000e-05
  Last Orbital Rotation      ...    1.2405e-05  Tolerance :   1.0000e-05


----------------------
UHF SPIN CONTAMINATION
----------------------

Warning: in a DFT calculation there is little theoretical justification to 
         calculate <S**2> as in Hartree-Fock theory. We will do it anyways
         but you should keep in mind that the values have only limited relevance

Expectation value of <S**2>     :     0.754140
Ideal value S*(S+1) for S=0.5   :     0.750000
Deviation                       :     0.004140

----------------
ORBITAL ENERGIES
----------------
                 SPIN UP ORBITALS
  NO   OCC          E(Eh)            E(eV) 
   0   1.0000     -88.027170     -2395.3411 
   1   1.0000      -7.622483      -207.4183 
   2   1.0000      -5.653271      -153.8333 
   3   1.0000      -5.637250      -153.3974 
   4   1.0000      -5.636646      -153.3809 
   5   1.0000      -1.892404       -51.4949 
   6   1.0000      -0.555442       -15.1143 
   7   1.0000      -0.219021        -5.9599 
   8   1.0000      -0.199196        -5.4204 
   9   1.0000      -0.176879        -4.8131 
  10   0.0000      -0.069287        -1.8854 
  11   0.0000      -0.014377        -0.3912 
  12   0.0000      -0.010695        -0.2910 
  13   0.0000       0.005529         0.1504 
  14   0.0000       0.006018         0.1638 
  15   0.0000       0.019185         0.5220 
  16   0.0000       0.020453         0.5566 
  17   0.0000       0.039822         1.0836 
  18   0.0000       0.064254         1.7484 
  19   0.0000       0.064505         1.7553 
  20   0.0000       0.068179         1.8552 

                 SPIN DOWN ORBITALS
  NO   OCC          E(Eh)            E(eV) 
   0   1.0000     -88.023226     -2395.2337 
   1   1.0000      -7.618244      -207.3030 
   2   1.0000      -5.641345      -153.5088 
   3   1.0000      -5.634725      -153.3287 
   4   1.0000      -5.634042      -153.3101 
   5   1.0000      -1.892486       -51.4972 
   6   1.0000      -0.520138       -14.1537 
   7   1.0000      -0.187355        -5.0982 
   8   1.0000      -0.165434        -4.5017 
   9   0.0000      -0.151477        -4.1219 
  10   0.0000      -0.068194        -1.8557 
  11   0.0000      -0.011094        -0.3019 
  12   0.0000      -0.007005        -0.1906 
  13   0.0000       0.005936         0.1615 
  14   0.0000       0.008481         0.2308 
  15   0.0000       0.020234         0.5506 
  16   0.0000       0.021370         0.5815 
  17   0.0000       0.042167         1.1474 
  18   0.0000       0.067433         1.8350 
  19   0.0000       0.069048         1.8789 
*Only the first 10 virtual orbitals were printed.

                    ********************************
                    * MULLIKEN POPULATION ANALYSIS *
                    ********************************

--------------------------------------------
MULLIKEN ATOMIC CHARGES AND SPIN POPULATIONS
--------------------------------------------
   0 Li:    0.306730   -0.004541
   1 S :   -0.306730    1.004541
Sum of atomic charges         :   -0.0000000
Sum of atomic spin populations:    1.0000000

-----------------------------------------------------
MULLIKEN REDUCED ORBITAL CHARGES AND SPIN POPULATIONS
-----------------------------------------------------
CHARGE
  0 Lis       :     2.297699  s :     2.297699
      pz      :     0.229342  p :     0.348250
      px      :     0.034371
      py      :     0.084537
      dz2     :     0.023783  d :     0.045470
      dxz     :     0.006193
      dyz     :     0.015470
      dx2y2   :     0.000012
      dxy     :     0.000012
      f0      :     0.001340  f :     0.001851
      f+1     :    -0.000136
      f-1     :     0.000620
      f+2     :     0.000007
      f-2     :     0.000007
      f+3     :     0.000008
      f-3     :     0.000005

  1 S s       :     5.844459  s :     5.844459
      pz      :     3.583506  p :    10.435013
      px      :     3.100020
      py      :     3.751488
      dz2     :     0.014049  d :     0.021954
      dxz     :     0.002691
      dyz     :     0.004118
      dx2y2   :     0.000557
      dxy     :     0.000538
      f0      :     0.004493  f :     0.005303
      f+1     :    -0.000041
      f-1     :     0.000113
      f+2     :     0.000100
      f-2     :     0.000096
      f+3     :     0.000287
      f-3     :     0.000256


SPIN
  0 Lis       :    -0.017484  s :    -0.017484
      pz      :    -0.005220  p :     0.009663
      px      :     0.019495
      py      :    -0.004612
      dz2     :     0.000255  d :     0.003439
      dxz     :     0.003610
      dyz     :    -0.000438
      dx2y2   :     0.000006
      dxy     :     0.000005
      f0      :     0.000148  f :    -0.000159
      f+1     :    -0.000222
      f-1     :    -0.000107
      f+2     :     0.000006
      f-2     :     0.000005
      f+3     :     0.000006
      f-3     :     0.000005

  1 S s       :     0.007202  s :     0.007202
      pz      :     0.013881  p :     0.993394
      px      :     0.831519
      py      :     0.147994
      dz2     :     0.000188  d :     0.003528
      dxz     :     0.002068
      dyz     :     0.000396
      dx2y2   :     0.000446
      dxy     :     0.000430
      f0      :    -0.000044  f :     0.000417
      f+1     :    -0.000085
      f-1     :    -0.000146
      f+2     :     0.000089
      f-2     :     0.000086
      f+3     :     0.000265
      f-3     :     0.000252



                     *******************************
                     * LOEWDIN POPULATION ANALYSIS *
                     *******************************

-------------------------------------------
LOEWDIN ATOMIC CHARGES AND SPIN POPULATIONS
-------------------------------------------
   0 Li:   -0.462361    0.186356
   1 S :    0.462361    0.813644

----------------------------------------------------
LOEWDIN REDUCED ORBITAL CHARGES AND SPIN POPULATIONS
----------------------------------------------------
CHARGE
  0 Lis       :     2.136066  s :     2.136066
      pz      :     0.315408  p :     0.548592
      px      :     0.077012
      py      :     0.156172
      dz2     :     0.221594  d :     0.452814
      dxz     :     0.087053
      dyz     :     0.144140
      dx2y2   :     0.000014
      dxy     :     0.000014
      f0      :     0.130015  f :     0.324888
      f+1     :     0.076671
      f-1     :     0.118153
      f+2     :     0.000017
      f-2     :     0.000016
      f+3     :     0.000010
      f-3     :     0.000007

  1 S s       :     5.465415  s :     5.465415
      pz      :     3.688207  p :    10.026235
      px      :     2.901704
      py      :     3.436324
      dz2     :     0.026008  d :     0.028597
      dxz     :     0.000493
      dyz     :     0.001022
      dx2y2   :     0.000546
      dxy     :     0.000527
      f0      :     0.015959  f :     0.017392
      f+1     :     0.000163
      f-1     :     0.000536
      f+2     :     0.000099
      f-2     :     0.000096
      f+3     :     0.000285
      f-3     :     0.000254


SPIN
  0 Lis       :    -0.005628  s :    -0.005628
      pz      :    -0.002302  p :     0.049054
      px      :     0.050879
      py      :     0.000477
      dz2     :     0.000376  d :     0.074918
      dxz     :     0.063971
      dyz     :     0.010557
      dx2y2   :     0.000007
      dxy     :     0.000007
      f0      :     0.000785  f :     0.068011
      f+1     :     0.056402
      f-1     :     0.010784
      f+2     :     0.000013
      f-2     :     0.000013
      f+3     :     0.000008
      f-3     :     0.000006

  1 S s       :     0.002654  s :     0.002654
      pz      :     0.002877  p :     0.809213
      px      :     0.684843
      py      :     0.121492
      dz2     :     0.000233  d :     0.001268
      dxz     :     0.000243
      dyz     :    -0.000068
      dx2y2   :     0.000437
      dxy     :     0.000422
      f0      :    -0.000069  f :     0.000509
      f+1     :     0.000046
      f-1     :    -0.000155
      f+2     :     0.000089
      f-2     :     0.000086
      f+3     :     0.000263
      f-3     :     0.000250



                      *****************************
                      * MAYER POPULATION ANALYSIS *
                      *****************************

  NA   - Mulliken gross atomic population
  ZA   - Total nuclear charge
  QA   - Mulliken gross atomic charge
  VA   - Mayer's total valence
  BVA  - Mayer's bonded valence
  FA   - Mayer's free valence

  ATOM       NA         ZA         QA         VA         BVA        FA
  0 Li     2.6933     3.0000     0.3067     1.1489     1.1474     0.0015
  1 S     16.3067    16.0000    -0.3067     2.0981     1.1474     0.9507

  Mayer bond orders larger than 0.100000
B(  0-Li,  1-S ) :   1.1474 

-------
TIMINGS
-------

Total SCF time: 0 days 0 hours 0 min 2 sec 

Total time                  ....       2.404 sec
Sum of individual times     ....       2.281 sec  ( 94.9%)

SCF preparation             ....       0.064 sec  (  2.6%)
Fock matrix formation       ....       1.324 sec  ( 55.1%)
  Startup                   ....       0.017 sec  (  1.3% of F)
  Coulomb formation         ....       0.671 sec  ( 50.7% of F)
  XC integration            ....       0.414 sec  ( 31.2% of F)
    Basis function eval.    ....       0.035 sec  (  8.5% of XC)
    Density eval.           ....       0.028 sec  (  6.9% of XC)
    XC-Functional eval.     ....       0.008 sec  (  2.0% of XC)
    XC-Potential eval.      ....       0.083 sec  ( 20.0% of XC)
Diagonalization             ....       0.000 sec  (  0.0%)
Density matrix formation    ....       0.214 sec  (  8.9%)
Total Energy calculation    ....       0.027 sec  (  1.1%)
Population analysis         ....       0.012 sec  (  0.5%)
Orbital Transformation      ....       0.023 sec  (  1.0%)
Orbital Orthonormalization  ....       0.000 sec  (  0.0%)
DIIS solution               ....       0.505 sec  ( 21.0%)
SOSCF solution              ....       0.113 sec  (  4.7%)
Finished LeanSCF after   2.4 sec

Maximum memory used throughout the entire LEANSCF-calculation: 11.4 MB


           ************************************************************
           *        Program running with 8 parallel MPI-processes     *
           *              working on a common directory               *
           ************************************************************

------------------------------------------------------------------------------
                         ORCA PROPERTY INTEGRAL CALCULATIONS
------------------------------------------------------------------------------

GBWName                                   ... /cluster/projects/nn14654k/ylvaos/basis_set_n_funcs/functionals/pbe/LiS/inp/LiS_pbe_augccpvtz.gbw
Number of atoms                           ...      2
Number of basis functions                 ...    128
Max core memory                           ...   4096 MB

Dipole integrals                          ... YES
Quadrupole integrals                      ... YES
Linear momentum integrals                 ...  NO
Angular momentum integrals                ...  NO
Higher moments length integrals           ...  NO
Higher moments velocity integrals         ...  NO
Kinetic energy integrals                  ...  NO
GIAO right hand sides                     ...  NO
GIAO dipole derivative integrals          ...  NO
SOC integrals                             ...  NO
EPR diamagnetic integrals (GIAO)          ...  NO
EPR gauge integrals                       ...  NO
Field gradient integrals                  ...  NO (   0 nuclei)
Spin-dipole/Fermi contact integrals       ...  NO (   0 nuclei)
Contact density integrals                 ...  NO (   0 nuclei)
Nucleus-orbit integrals                   ...  NO (   0 nuclei)
Geometric perturbations                   ...  NO (   2 nuclei)

Choice of electric origin   ... Center of mass
Position of electric origin ... (  0.0000,  0.0000,  1.3082) 
Choice of magnetic origin   ... GIAO
Position of magnetic origin ... (  0.0000,  0.0000,  0.0000) 

Calculating integrals                     ... Electric Dipole (Length)     done (  0.0 sec)
Calculating integrals                     ... Electric Quadrupole (Length) done (  0.0 sec)

Property integrals calculated in   0.0 sec

Maximum memory used throughout the entire PROPINT-calculation: 7.5 MB
------------------------------------------------------------------------------
                           ORCA ORBITAL LOCALIZATION
------------------------------------------------------------------------------

Input orbitals are from                  ... /cluster/projects/nn14654k/ylvaos/basis_set_n_funcs/functionals/pbe/LiS/inp/LiS_pbe_augccpvtz.gbw
Output orbitals are to                   ... /cluster/projects/nn14654k/ylvaos/basis_set_n_funcs/functionals/pbe/LiS/inp/LiS_pbe_augccpvtz.loc
Max. number of iterations                ... 128
Localizations seeded randomly            ... on
Convergence tolerance                    ... 1.000e-06
Threshold for strong local MOs           ... 9.500e-01
Threshold for bond MOs                   ... 8.500e-01
Operator                                 ... 0
Orbital range for localization           ... 5 to 9
Localization criterion                   ... NEW-BOYS
Doing the dipole integrals               ... o.k.
Initial value of the localization sum :    12.476025
ITERATION   0 : L=   15.5695266270 DL=  3.09e+00 (AVERGE_DL)=    0.5561925817 
ITERATION   1 : L=   15.7651122017 DL=  1.96e-01 (AVERGE_DL)=    0.1398519126 
ITERATION   2 : L=   15.8019480570 DL=  3.68e-02 (AVERGE_DL)=    0.0606925492 
ITERATION   3 : L=   15.8316808327 DL=  2.97e-02 (AVERGE_DL)=    0.0545277688 
ITERATION   4 : L=   15.8462655036 DL=  1.46e-02 (AVERGE_DL)=    0.0381898820 
ITERATION   5 : L=   15.8544364205 DL=  8.17e-03 (AVERGE_DL)=    0.0285848157 
ITERATION   6 : L=   15.8585310956 DL=  4.09e-03 (AVERGE_DL)=    0.0202353037 
ITERATION   7 : L=   15.8606638423 DL=  2.13e-03 (AVERGE_DL)=    0.0146039265 
ITERATION   8 : L=   15.8618284141 DL=  1.16e-03 (AVERGE_DL)=    0.0107915329 
ITERATION   9 : L=   15.8625337175 DL=  7.05e-04 (AVERGE_DL)=    0.0083982343 
ITERATION  10 : L=   15.8630161300 DL=  4.82e-04 (AVERGE_DL)=    0.0069455917 
ITERATION  11 : L=   15.8633848242 DL=  3.69e-04 (AVERGE_DL)=    0.0060720199 
ITERATION  12 : L=   15.8636891825 DL=  3.04e-04 (AVERGE_DL)=    0.0055168674 
ITERATION  13 : L=   15.8639516630 DL=  2.62e-04 (AVERGE_DL)=    0.0051232848 
ITERATION  14 : L=   15.8641828360 DL=  2.31e-04 (AVERGE_DL)=    0.0048080461 
ITERATION  15 : L=   15.8643881638 DL=  2.05e-04 (AVERGE_DL)=    0.0045313104 
ITERATION  16 : L=   15.8645709582 DL=  1.83e-04 (AVERGE_DL)=    0.0042754465 
ITERATION  17 : L=   15.8647336250 DL=  1.63e-04 (AVERGE_DL)=    0.0040331978 
ITERATION  18 : L=   15.8648781714 DL=  1.45e-04 (AVERGE_DL)=    0.0038019252 
ITERATION  19 : L=   15.8650063914 DL=  1.28e-04 (AVERGE_DL)=    0.0035807823 
ITERATION  20 : L=   15.8651199309 DL=  1.14e-04 (AVERGE_DL)=    0.0033695625 
ITERATION  21 : L=   15.8652203069 DL=  1.00e-04 (AVERGE_DL)=    0.0031682171 
ITERATION  22 : L=   15.8653089123 DL=  8.86e-05 (AVERGE_DL)=    0.0029766652 
ITERATION  23 : L=   15.8653870197 DL=  7.81e-05 (AVERGE_DL)=    0.0027947698 
ITERATION  24 : L=   15.8654557850 DL=  6.88e-05 (AVERGE_DL)=    0.0026223141 
ITERATION  25 : L=   15.8655162532 DL=  6.05e-05 (AVERGE_DL)=    0.0024590296 
ITERATION  26 : L=   15.8655693662 DL=  5.31e-05 (AVERGE_DL)=    0.0023046245 
ITERATION  27 : L=   15.8656159693 DL=  4.66e-05 (AVERGE_DL)=    0.0021587753 
ITERATION  28 : L=   15.8656568195 DL=  4.09e-05 (AVERGE_DL)=    0.0020211446 
ITERATION  29 : L=   15.8656925938 DL=  3.58e-05 (AVERGE_DL)=    0.0018914072 
ITERATION  30 : L=   15.8657238949 DL=  3.13e-05 (AVERGE_DL)=    0.0017692131 
ITERATION  31 : L=   15.8657512597 DL=  2.74e-05 (AVERGE_DL)=    0.0016542319 
ITERATION  32 : L=   15.8657751650 DL=  2.39e-05 (AVERGE_DL)=    0.0015461343 
ITERATION  33 : L=   15.8657960335 DL=  2.09e-05 (AVERGE_DL)=    0.0014445916 
ITERATION  34 : L=   15.8658142391 DL=  1.82e-05 (AVERGE_DL)=    0.0013492804 
ITERATION  35 : L=   15.8658301122 DL=  1.59e-05 (AVERGE_DL)=    0.0012598862 
ITERATION  36 : L=   15.8658439443 DL=  1.38e-05 (AVERGE_DL)=    0.0011760992 
ITERATION  37 : L=   15.8658559921 DL=  1.20e-05 (AVERGE_DL)=    0.0010976254 
ITERATION  38 : L=   15.8658664815 DL=  1.05e-05 (AVERGE_DL)=    0.0010241760 
ITERATION  39 : L=   15.8658756106 DL=  9.13e-06 (AVERGE_DL)=    0.0009554631 
ITERATION  40 : L=   15.8658835533 DL=  7.94e-06 (AVERGE_DL)=    0.0008912219 
ITERATION  41 : L=   15.8658904621 DL=  6.91e-06 (AVERGE_DL)=    0.0008311874 
ITERATION  42 : L=   15.8658964700 DL=  6.01e-06 (AVERGE_DL)=    0.0007751093 
ITERATION  43 : L=   15.8659016937 DL=  5.22e-06 (AVERGE_DL)=    0.0007227479 
ITERATION  44 : L=   15.8659062347 DL=  4.54e-06 (AVERGE_DL)=    0.0006738742 
ITERATION  45 : L=   15.8659101820 DL=  3.95e-06 (AVERGE_DL)=    0.0006282701 
ITERATION  46 : L=   15.8659136127 DL=  3.43e-06 (AVERGE_DL)=    0.0005857284 
ITERATION  47 : L=   15.8659165945 DL=  2.98e-06 (AVERGE_DL)=    0.0005460525 
ITERATION  48 : L=   15.8659191859 DL=  2.59e-06 (AVERGE_DL)=    0.0005090565 
ITERATION  49 : L=   15.8659214380 DL=  2.25e-06 (AVERGE_DL)=    0.0004745648 
ITERATION  50 : L=   15.8659233952 DL=  1.96e-06 (AVERGE_DL)=    0.0004424117 
ITERATION  51 : L=   15.8659250963 DL=  1.70e-06 (AVERGE_DL)=    0.0004124416 
ITERATION  52 : L=   15.8659265748 DL=  1.48e-06 (AVERGE_DL)=    0.0003845143 
ITERATION  53 : L=   15.8659278599 DL=  1.29e-06 (AVERGE_DL)=    0.0003584743 
ITERATION  54 : L=   15.8659289769 DL=  1.12e-06 (AVERGE_DL)=    0.0003342119 
ITERATION  55 : L=   15.8659299478 DL=  9.71e-07 (AVERGE_DL)=    0.0003115991 
LOCALIZATION SUM CONVERGED


--------------------------------------------------------------------------------
                    LOCALIZED MOLECULAR ORBITAL COMPOSITIONS
--------------------------------------------------------------------------------

The Mulliken populations for each LMO on each atom are computed
The LMO`s will be ordered according to atom index and type
  (A) Strongly localized MO`s have populations of >=0.950 on one atom
  (B) Two center bond orbitals have populations of >=0.850 on two atoms
  (C) Other MO`s are considered to be `delocalized`

FOUND  -   2 strongly local MO`s
       -   3 two center bond MO`s
       -   0 significantly delocalized MO`s

Rather strongly localized orbitals:
MO   6:   1S  -   0.994897
MO   5:   0Li -   0.986684
Bond-like localized orbitals:
MO   9:   1S  -   0.848824  and   0Li -   0.151176
MO   8:   1S  -   0.848470  and   0Li -   0.151530
MO   7:   1S  -   0.948389  and   0Li -   0.051611
Localized MO's were stored in: /cluster/projects/nn14654k/ylvaos/basis_set_n_funcs/functionals/pbe/LiS/inp/LiS_pbe_augccpvtz.loc
------------------------------------------------------------------------------
                           ORCA ORBITAL LOCALIZATION
------------------------------------------------------------------------------

Input orbitals are from                  ... /cluster/projects/nn14654k/ylvaos/basis_set_n_funcs/functionals/pbe/LiS/inp/LiS_pbe_augccpvtz.loc
Output orbitals are to                   ... /cluster/projects/nn14654k/ylvaos/basis_set_n_funcs/functionals/pbe/LiS/inp/LiS_pbe_augccpvtz.loc
Max. number of iterations                ... 128
Localizations seeded randomly            ... on
Convergence tolerance                    ... 1.000e-06
Threshold for strong local MOs           ... 9.500e-01
Threshold for bond MOs                   ... 8.500e-01
Operator                                 ... 1
Orbital range for localization           ... 5 to 8
Localization criterion                   ... NEW-BOYS
Doing the dipole integrals               ... o.k.
Initial value of the localization sum :    12.149600
ITERATION   0 : L=   14.9130348002 DL=  2.76e+00 (AVERGE_DL)=    0.6786548345 
ITERATION   1 : L=   14.9540290939 DL=  4.10e-02 (AVERGE_DL)=    0.0826582258 
ITERATION   2 : L=   14.9661101927 DL=  1.21e-02 (AVERGE_DL)=    0.0448722237 
ITERATION   3 : L=   14.9881581309 DL=  2.20e-02 (AVERGE_DL)=    0.0606189440 
ITERATION   4 : L=   15.0366630948 DL=  4.85e-02 (AVERGE_DL)=    0.0899119606 
ITERATION   5 : L=   15.1177776373 DL=  8.11e-02 (AVERGE_DL)=    0.1162716234 
ITERATION   6 : L=   15.2095165169 DL=  9.17e-02 (AVERGE_DL)=    0.1236519845 
ITERATION   7 : L=   15.2784077766 DL=  6.89e-02 (AVERGE_DL)=    0.1071535189 
ITERATION   8 : L=   15.3171265907 DL=  3.87e-02 (AVERGE_DL)=    0.0803314115 
ITERATION   9 : L=   15.3358550332 DL=  1.87e-02 (AVERGE_DL)=    0.0558695542 
ITERATION  10 : L=   15.3443583870 DL=  8.50e-03 (AVERGE_DL)=    0.0376460572 
ITERATION  11 : L=   15.3481311608 DL=  3.77e-03 (AVERGE_DL)=    0.0250757978 
ITERATION  12 : L=   15.3497936629 DL=  1.66e-03 (AVERGE_DL)=    0.0166458307 
ITERATION  13 : L=   15.3505255948 DL=  7.32e-04 (AVERGE_DL)=    0.0110448474 
ITERATION  14 : L=   15.3508481403 DL=  3.23e-04 (AVERGE_DL)=    0.0073319571 
ITERATION  15 : L=   15.3509904638 DL=  1.42e-04 (AVERGE_DL)=    0.0048703768 
ITERATION  16 : L=   15.3510533363 DL=  6.29e-05 (AVERGE_DL)=    0.0032370905 
ITERATION  17 : L=   15.3510811355 DL=  2.78e-05 (AVERGE_DL)=    0.0021524885 
ITERATION  18 : L=   15.3510934350 DL=  1.23e-05 (AVERGE_DL)=    0.0014317513 
ITERATION  19 : L=   15.3510988793 DL=  5.44e-06 (AVERGE_DL)=    0.0009525620 
ITERATION  20 : L=   15.3511012899 DL=  2.41e-06 (AVERGE_DL)=    0.0006338509 
ITERATION  21 : L=   15.3511023573 DL=  1.07e-06 (AVERGE_DL)=    0.0004217931 
ITERATION  22 : L=   15.3511028303 DL=  4.73e-07 (AVERGE_DL)=    0.0002807699 
LOCALIZATION SUM CONVERGED


--------------------------------------------------------------------------------
                    LOCALIZED MOLECULAR ORBITAL COMPOSITIONS
--------------------------------------------------------------------------------

The Mulliken populations for each LMO on each atom are computed
The LMO`s will be ordered according to atom index and type
  (A) Strongly localized MO`s have populations of >=0.950 on one atom
  (B) Two center bond orbitals have populations of >=0.850 on two atoms
  (C) Other MO`s are considered to be `delocalized`

FOUND  -   2 strongly local MO`s
       -   2 two center bond MO`s
       -   0 significantly delocalized MO`s

Rather strongly localized orbitals:
MO   6:   1S  -   1.015606
MO   5:   0Li -   0.986734
Bond-like localized orbitals:
MO   8:   1S  -   0.810303  and   0Li -   0.189697
MO   7:   1S  -   0.810030  and   0Li -   0.189970
Localized MO's were stored in: /cluster/projects/nn14654k/ylvaos/basis_set_n_funcs/functionals/pbe/LiS/inp/LiS_pbe_augccpvtz.loc

-------------------------   --------------------
FINAL SINGLE POINT ENERGY      -405.523684169685
-------------------------   --------------------



           ************************************************************
           *        Program running with 8 parallel MPI-processes     *
           *              working on a common directory               *
           ************************************************************

------------------------------------------------------------------------------
                              ORCA PROPERTY CALCULATIONS
------------------------------------------------------------------------------

GBWName                                 ... /cluster/projects/nn14654k/ylvaos/basis_set_n_funcs/functionals/pbe/LiS/inp/LiS_pbe_augccpvtz.gbw
Number of atoms                         ...      2
Number of basis functions               ...    128
Max core memory                         ...   4096 MB

Electric properties:
Dipole moment                           ... YES
Quadrupole moment                       ... YES
Static polarizability (Dipole/Dipole)   ...  NO
Static polarizability (Dipole/Quad.)    ...  NO
Static polarizability (Quad./Quad.)     ...  NO
Static polarizability (Velocity)        ...  NO
Static hyperpolarizability              ...  NO

Atomic electric properties:
Dipole moment                           ...  NO
Quadrupole moment                       ...  NO
Static polarizability                   ...  NO

Choice of electric origin               ... Center of mass
Position of electric origin             ...     0.000000     0.000000     1.308198

General magnetic properties:
Magnetizability                         ...  NO

EPR properties:
g-Tensor (aka g-matrix)                 ...  NO
Zero-Field splitting spin-orbit         ...  NO
Zero-field splitting spin-spin          ...  NO
Hyperfine couplings                     ...  NO (   0 nuclei)
Quadrupole couplings                    ...  NO (   0 nuclei)
Contact density                         ...  NO (   0 nuclei)

NMR properties:
Chemical shifts                         ...  NO (   0 nuclei)
Spin-rotation constants                 ...  NO (   0 nuclei)
Spin-spin couplings                     ...  NO (   0 nuclei,    0 pairs)

Choice of magnetic origin               ... GIAO
Position of magnetic origin             ...     0.000000     0.000000     0.000000

Properties with geometric perturbations:
SCF Hessian                             ...  NO
IR spectrum                             ...  NO
VCD spectrum                            ...  NO
X-ray spectroscopy properties:
SCF XES/XAS/RIXS spectra                ...  NO

SCF SOC stabilization energy            ...  NO
Diagonal Born-Oppenheimer correction    ...  NO

-------------
DIPOLE MOMENT
-------------

Method             : SCF
Type of density    : Electron Density
Multiplicity       :   2
Irrep              :   0
Energy             :  -405.5236841696853958 Eh
Basis              : AO
                                X                 Y                 Z
Electronic contribution:     -0.000000001      -0.000000000      -4.223866436
Nuclear contribution   :      0.000000000       0.000000000       1.549484202
                        -----------------------------------------
Total Dipole Moment    :     -0.000000001      -0.000000000      -2.674382235
                        -----------------------------------------
Magnitude (a.u.)       :      2.674382235
Magnitude (Debye)      :      6.797739415



--------------------
Rotational spectrum 
--------------------
 
Rotational constants in cm-1:             0.000000             0.639339             0.639339 
Rotational constants in MHz :             0.000000         19166.891897         19166.891897 

Dipole components along the rotational axes: 
x,y,z [a.u.] :    -2.674382    -0.000000    -0.000000 
x,y,z [Debye]:    -6.797739    -0.000000    -0.000000 

 

Dipole moment calculation done in   0.0 sec 

-----------------
QUADRUPOLE MOMENT
-----------------

Method             : SCF
Type of density    : Electron Density
Multiplicity       :   2
Irrep              :   0
Energy             :  -405.5236841696853958 Eh
Basis              : AO

                XX              YY              ZZ              XY              XZ              YZ
  NUC        0.000000000     0.000000000    41.817245673     0.000000000     0.000000000     0.000000000
  EL       -12.260703052   -14.037517254   -45.180392807    -0.872948135     0.000000012     0.000000000
  TOT      -12.260703052   -14.037517254    -3.363147134    -0.872948135     0.000000012     0.000000000 (a.u.)
           -16.491064921   -18.880940789    -4.523547914    -1.174145097     0.000000016     0.000000000 (Buckingham)

diagonalized tensor:
           -14.394624353   -11.903595952    -3.363147134 (a.u.)
           -19.361262051   -16.010743658    -4.523547914 (Buckingham)
           -18.188232530    -8.136677351    26.324909881 (traceless form in Buckingham)

             0.378625537     0.925549946     0.000000001
             0.925549946    -0.378625537    -0.000000000
            -0.000000000    -0.000000001     1.000000000
        
Isotropic quadrupole :    -9.887122480

Quadrupole moment calculation done in   0.0 sec (  0.0 sec for integrals)

Maximum memory used throughout the entire PROP-calculation: 3.8 MB

--------------------------------
SUGGESTED CITATIONS FOR THIS RUN
--------------------------------

Below you find a list of papers that are relevant to this ORCA run
We neither can nor want to force you to cite these papers, but we appreciate if you do
You receive ORCA, which is the product of decades of hard work by many enthusiastic individuals, for free
The only thing we kindly ask in return is that you cite our papers,
We deeply appreciate it, if you show your appreciation for ORCA by not just citing the generic ORCA reference.

Please note that relegating all ORCA citations to the supporting information does *not* help us.
SI sections are not indexed - citations you put there will not count into any citation statistics
But we need these citations in order to attract the funding resources that allow us to do what we are doing

Therefore, if you are a happy ORCA user, please consider citing a few of the papers listed below in the main body of your paper

In addition to the list printed below, the program has created the file /cluster/projects/nn14654k/ylvaos/basis_set_n_funcs/functionals/pbe/LiS/inp/LiS_pbe_augccpvtz.bibtex that contains the list in bibtex format
You can import this file easily into all common literature databanks and citation aid programs

It goes without saying that in many instances, there are alternative algorithms to achieve similar
results as the ones you have gotten from ORCA. It is, of course, also the case that in some instances
ORCA just re-implements algorithms worked out by others. We are fully aware of that and we are also
fully appreciative of our colleagues work. Hence this citation list should not be read as indicating
that the listed papers, which are focused on our own work, are the only ones worth citing. It simply
meant to make it easier for users to cite ORCA specific papers. It is not a substitute for doing your
own literature research and citing the relevant literature in a scientifically appropriate manner.

List of essential papers. We consider these as the minimum necessary citations

  1. Neese, F.
     Software update: the ORCA program system, version 6.0
     WIRES Comput. Molec. Sci. 2025 15(1), e70019
     doi.org/10.1002/wcms.70019

List of papers to cite with high priority. The work reported in these papers was absolutely
necessary for this run to complete.
Our perspective: the developers of density functionals and basis sets usually get cited in chemistry papers
Good! But without the algorithms to do something with them, the functionals or basis sets would not do anything.
Hence, in our opinion, the algorithm design and method developments papers are equally worthy of getting cited

  1. Neese, F.
     The SHARK Integral Generation and Digestion System
     J. Comp. Chem. 2022 44(3), 381
     doi.org/10.1002/jcc.26942

List of suggested additional citations. These are papers that are important in the 'surrounding' of 
of this run, or papers that preceded the highly important papers. If you like your results we are grateful for a citation.

  1. Neese, F.
     The ORCA program system
     WIRES Comput. Molec. Sci. 2012 2(1), 73-78
     doi.org/10.1002/wcms.81
  2. Neese, F.
     Software update: the ORCA program system, version 4.0
     WIRES Comput. Molec. Sci. 2018 8(1), 1-6
     doi.org/10.1002/wcms.1327
  3. Neese, F.; Wennmohs, F.; Becker, U.; Riplinger, C.
     The ORCA quantum chemistry program package
     J. Chem. Phys. 2020 152(22), 224108
     doi.org/10.1063/5.0004608
  4. Neese, F.
     Software update: The ORCA program system—Version 5.0
     WIRES Comput. Molec. Sci. 2022 12(1), e1606
     doi.org/10.1002/wcms.1606

List of optional additional citations

  1. Neese, F.
     Approximate second-order SCF convergence for spin unrestricted wavefunctions
     Chem. Phys. Lett. 2000 325(1-3), 93-98
     doi.org/10.1016/s0009-2614(00)00662-x

Timings for individual modules:

Sum of individual times          ...        4.677 sec (=   0.078 min)
Startup calculation              ...        1.180 sec (=   0.020 min)  25.2 %
SCF iterations                   ...        2.949 sec (=   0.049 min)  63.1 %
Property integrals               ...        0.260 sec (=   0.004 min)   5.6 %
Property calculations            ...        0.282 sec (=   0.005 min)   6.0 %
Orbital localization             ...        0.006 sec (=   0.000 min)   0.1 %
                             ****ORCA TERMINATED NORMALLY****
TOTAL RUN TIME: 0 days 0 hours 0 minutes 5 seconds 454 msec
