
                                 *****************
                                 * O   R   C   A *
                                 *****************

                                            #,                                       
                                            ###                                      
                                            ####                                     
                                            #####                                    
                                            ######                                   
                                           ########,                                 
                                     ,,################,,,,,                         
                               ,,#################################,,                 
                          ,,##########################################,,             
                       ,#########################################, ''#####,          
                    ,#############################################,,   '####,        
                  ,##################################################,,,,####,       
                ,###########''''           ''''###############################       
              ,#####''   ,,,,##########,,,,          '''####'''          '####       
            ,##' ,,,,###########################,,,                        '##       
           ' ,,###''''                  '''############,,,                           
         ,,##''                                '''############,,,,        ,,,,,,###''
      ,#''                                            '''#######################'''  
     '                                                          ''''####''''         
             ,#######,   #######,   ,#######,      ##                                
            ,#'     '#,  ##    ##  ,#'     '#,    #''#        ,####,    ,#,          
            ##       ##  ##   ,#'  ##            #'  '#       #'       ,# #          
            ##       ##  #######   ##           ,######,      #####,      #          
            '#,     ,#'  ##    ##  '#,     ,#' ,#      #,     #,   #      #          
             '#######'   ##     ##  '#######'  #'      '#     '####' #    #          



                #########################################################
                #                        -***-                          #
                #          Department of theory and spectroscopy        #
                #                                                       #
                #                      Frank Neese                      #
                #                                                       #
                #     Directorship, Architecture, Infrastructure        #
                #                    SHARK, DRIVERS                     #
                #        Core code/Algorithms in most modules           #
                #                                                       #
                #        Max Planck Institute fuer Kohlenforschung      #
                #                Kaiser Wilhelm Platz 1                 #
                #                 D-45470 Muelheim/Ruhr                 #
                #                      Germany                          #
                #                                                       #
                #                  All rights reserved                  #
                #                        -***-                          #
                #########################################################


                         Program Version 6.1.1  -  RELEASE   -
                                (GIT: $487d211c$)
                          ($2025-11-21 10:33:24 +0100$)


 With contributions from (in alphabetic order):
[Max-Planck-Institut fuer Kohlenforschung]                               
  Daniel Aravena         : Magnetic Suceptibility                        
  Michael Atanasov       : Ab Initio Ligand Field Theory (pilot matlab implementation)
  Alexander A. Auer      : GIAO ZORA, VPT2 properties, NMR spectrum      
  Ute Becker             : All parallelization in ORCA, NUMFREQ, NUMCALC 
  Giovanni Bistoni       : ED, misc. LED, open-shell LED, HFLD           
  Dmytro Bykov           : pre 5.0 version of the SCF Hessian            
  Marcos Casanova-Páez   : Triplet and SCS-CIS(D). UHF-(DLPNO)-IP/EA/STEOM-CCSD. UHF-CVS-IP/STEOM-CCSD   
  Vijay G. Chilkuri      : MRCI spin determinant printing, contributions to CSF-ICE 
  Pauline Colinet        : FMM embedding                                 
  Dipayan Datta          : RHF DLPNO-CCSD density                        
  Achintya Kumar Dutta   : EOM-CC, STEOM-CC                              
  Nicolas Foglia         : Exact transition moments, OPA infrastructure, MCD improvements    
  Dmitry Ganyushin       : Spin-Orbit,Spin-Spin,Magnetic field MRCI      
  Miquel Garcia-Rates    : C-PCM and meta-GGA Hessian, CCSD/C-PCM, Gaussian charge scheme 
  Tiago L. C. Gouveia    : GS-ROHF, GS-ROCIS                             
  Yang Guo               : DLPNO-NEVPT2, F12-NEVPT2, CIM, IAO-localization        
  Andreas Hansen         : Spin unrestricted coupled pair/coupled cluster methods 
  Ingolf Harden          : AUTO-CI MPn and infrastructure                
  Benjamin Helmich-Paris : MC-RPA, TRAH-(SCF,CASSCF), AVAS, COSX integrals, SCF dyn. polar., MC-PDFT, srDFT 
  Lee Huntington         : MR-EOM, pCC                                   
  Robert Izsak           : Overlap fitted RIJCOSX, COSX-SCS-MP3, EOM     
  Riya Kayal             : Wick's Theorem for AUTO-CI, AUTO-CI UHF-CCSDT 
  Emily Kempfer          : AUTO-CI RHF CISDT and CCSDT, approximate NEVPT4
  Christian Kollmar      : KDIIS, OOCD, Brueckner-CCSD(T), CCSD density, CASPT2, CASPT2-K, improved NEVPT2 
  Axel Koslowski         : Symmetry handling                             
  Simone Kossmann        : meta-GGA functionals, TD-DFT gradient, OOMP2, (MP2 Hessian; deprecated post 5.0) 
  Lucas Lang             : DCDCAS, Hyperfine gauge corrections, ICE-SOC+SSC
  Marvin Lechner         : AUTO-CI (C++ implementation), FIC-MRCC        
  Spencer Leger          : CASSCF response                               
  Dagmar Lenk            : GEPOL surface, SMD, ORCA-2-JSON               
  Dimitrios Liakos       : Extrapolation schemes; Compound Job, Property file
  Dimitrios Manganas     : Further ROCIS development; embedding schemes. LFT, Crystal Embedding 
  Dimitrios Pantazis     : SARC Basis sets                               
  Anastasios Papadopoulos: AUTO-CI, single reference methods and gradients 
  Taras Petrenko         : pre 6.0 DFT Hessian and TD-DFT gradient,  ECA, NRVS 
  Petra Pikulova         : Analytic Raman intensities                    
  Peter Pinski           : DLPNO-MP2, DLPNO-MP2 Gradient                 
  Shashank Vittal Rao    : ES-AILFT, MagRelax                            
  Christoph Reimann      : Effective Core Potentials                     
  Marius Retegan         : Local ZFS, SOC                                
  Christoph Riplinger    : Optimizer, TS searches, QM/MM, DLPNO-CCSD(T), (RO)-DLPNO pert. Triples 
  Michael Roemelt        : Original ROCIS implementation, recursive CI coupling coefficients
  Masaaki Saitow         : Open-shell DLPNO-CCSD energy and density      
  Barbara Sandhoefer     : DKH picture change effects                    
  Yorick L. A. Schmerwitz: GMF and freeze-and-release deltaSCF, NEB S-IDPP initial path                    
  Kantharuban Sivalingam : CASSCF convergence/infrastructure, NEVPT2, NEVPT3, NEVPT4(SD), FIC-MRCI and CEPA variants
  Bernardo de Souza      : ESD, SOC TD-DFT                               
  Georgi L. Stoychev     : AutoAux, RI-MP2 NMR, DLPNO-MP2 response, X2C  
  Van Anh Tran           : RI-MP2 g-tensors                              
  Willem Van den Heuvel  : Paramagnetic NMR                              
  Zikuan Wang            : NOTCH, Electric field optimization            
  Frank Wennmohs         : Technical directorship and infrastructure     
  Hang Xu                : AUTO-CI-Response properties                   
                                                                         
[FACCTs GmbH]                                                            
  Markus Bursch, Nicolas Foglia, Miquel Garcia-Rates, Ingolf Harden, Hagen Neugebauer, Anastasios Papadopoulos, 
  Christoph Riplinger, Bernardo de Souza, Georgi L. Stoychev                                                    
                                                                 
  APM, various basis sets, CI-OPT, improved COSX, DLPNO-Multilevel,           
  DOCKER, DRACO, updates on ESD, Fragmentator, GOAT, IRC, LR-CPCM, L-BFGS, MBIS, meta-GGA TD-DFT gradient, ML-optimized integration grids, 
  MM, NACMEs, nearIR, NEB, NEB-TS, NL-DFT gradient (VV10), 2- and 3-layer-ONIOM, interface openCOSMO-RS, QMMM,   
  Crystal-QMMM, RESP, rigid body optimization, SF, symmetry and pop. for TD-DFT, various functionals, SOLVATOR                                   
                                                                         
[Other institutions]                                                     
  V. Asgeirsson          : NEB                                           
  Christoph Bannwarth    : sTDA-DFT, sTD-DFT, PBEh-3c, B97-3c, D3        
  Giovanni Bistoni       : ETS/NOCV, ADLD/ADEX, COVALED                  
  Martin Brehm           : Molecular dynamics                            
  Ronald Cardenas        : ETS/NOCV                                      
  Martina Colucci        : COVALED                                       
  Sebastian Ehlert       : rSCAN, r2SCAN, r2SCAN-3c, D4, dhf basis sets  
  Marvin Friede          : D4 for Fr, Ra, Ac-Lr                          
  Lars Goerigk           : TD-DFT with DH, B97 family of functionals     
  Stefan Grimme          : VdW corrections, initial TS optimization, DFT functionals, gCP, sTDA/sTD-DF 
  Waldemar Hujo          : DFT-NL                                        
  H. Jonsson             : NEB                                           
  Holger Kruse           : gCP                                           
  Marcel Mueller         : wB97X-3c, vDZP basis set                      
  Hagen Neugebauer       : wr2SCAN, Native XTB                           
  Gianluca Regni         : ADLD/ADEX                                     
  Tobias Risthaus        : pre 6.0 range-separated hybrid DFT and stability analysis
  Lukas Wittmann         : regularized MP2, r2SCAN double-hybrids, wr2SCAN        
                                                                         
We gratefully acknowledge several colleagues who have allowed us to      
interface, adapt or use parts of their codes:                            
  Ed Valeev, F. Pavosevic, A. Kumar             : LibInt (2-el integral package), F12 methods 
  Garnet Chan, S. Sharma, J. Yang, R. Olivares  : DMRG                   
  Ulf Ekstrom                                   : XCFun DFT Library      
  Mihaly Kallay                                 : mrcc  (arbitrary order and MRCC methods)
  Frank Weinhold                                : gennbo (NPA and NBO analysis)           
  Simon Mueller                                 : openCOSMO-RS                            
  Christopher J. Cramer and Donald G. Truhlar   : smd solvation model                     
  S Lehtola, MJT Oliveira, MAL Marques          : LibXC Library                           
  Liviu Ungur et al                             : ANISO software                          


 Your calculation uses the libint2 library for the computation of 2-el integrals
 For citations please refer to: http://libint.valeyev.net

 Your ORCA version has been built with support for libXC version: 7.0.0
 For citations please refer to: https://libxc.gitlab.io

 This ORCA versions uses:
   CBLAS   interface :  Fast vector & matrix operations
   LAPACKE interface :  Fast linear algebra routines
   SCALAPACK package :  Parallel linear algebra routines
   Shared memory     :  Shared parallel matrices
   BLAS/LAPACK       :  OpenBLAS 0.3.29  USE64BITINT DYNAMIC_ARCH NO_AFFINITY Cooperlake SINGLE_THREADED
        Core in use  :  Cooperlake
   Copyright (c) 2011-2014, The OpenBLAS Project


  ***********************************
  * Starting time: Wed May 20 12:36:45 2026
  * Host name:     c1-48
  * Process ID:    1389249
  * Working dir.:  /cluster/projects/nn14654k/ylvaos/basis_set_n_funcs/functionals/pbe/LiS/out
  ***********************************

================================================================================

----- Orbital basis set information -----
Your calculation utilizes the basis: cc-pVTZ 
       H, B-Ne : Obtained from the ccRepo (grant-hill.group.shef.ac.uk/ccrepo) Feb. 2017
                 T. H. Dunning, Jr., J. Chem. Phys. 90, 1007 (1989)
            He : Obtained from the ccRepo (grant-hill.group.shef.ac.uk/ccrepo) Feb. 2017
                 D. E. Woon, T. H. Dunning, Jr., J. Chem. Phys. 100, 2975 (1994)
  Li-Be, Na-Mg : Obtained from the ccRepo (grant-hill.group.shef.ac.uk/ccrepo) Feb. 2017
                 B. P. Prascher, D. E. Woon, K. A. Peterson, T. H. Dunning, Jr., A. K. Wilson, Theor. Chem. Acc. 128, 69 (2011)
         Al-Ar : Obtained from the ccRepo (grant-hill.group.shef.ac.uk/ccrepo) Feb. 2017
                 D. E. Woon, T. H. Dunning, Jr., J. Chem. Phys. 98, 1358 (1993)
            Ca : Obtained from the Peterson Research Group Website (tyr0.chem.wsu.edu/~kipeters) Feb. 2017
                 J. Koput, K. A. Peterson, J. Phys. Chem. 106, 9595 (2002)
         Sc-Zn : Obtained from the ccRepo (grant-hill.group.shef.ac.uk/ccrepo) Feb. 2017
                 N. B. Balabanov, K. A. Peterson, J. Chem. Phys. 123, 064107 (2005)
                 N. B. Balabanov, K. A. Peterson, J. Chem. Phys. 125, 074110 (2006)
         Ga-Kr : Obtained from the ccRepo (grant-hill.group.shef.ac.uk/ccrepo) Feb. 2017
                 A. K. Wilson, D. E. Woon, K. A. Peterson, T. H. Dunning, Jr., J. Chem. Phys. 110, 7667 (1999)
             Y : Obtained from the ccRepo (grant-hill.group.shef.ac.uk/ccrepo) Feb. 2017
                 K. A. Peterson, D. Figgen, M. Dolg, H. Stoll, J. Chem. Phys. 126, 124101 (2007)
        Ag, Au : Obtained from the Peterson Research Group Website (tyr0.chem.wsu.edu/~kipeters) Feb. 2017
                 K. A. Peterson, C. Puzzarini, Theor. Chem. Acc. 114, 283 (2005)

================================================================================
                                        WARNINGS
                       Please study these warnings very carefully!
================================================================================


WARNING: your system is open-shell and RHF/RKS was chosen
  ===> : WILL SWITCH to UHF/UKS


================================================================================
                                       INPUT FILE
================================================================================
NAME = /cluster/projects/nn14654k/ylvaos/basis_set_n_funcs/functionals/pbe/LiS/inp/LiS_pbe_ccpvtz.inp
|  1> ! dft cc-pVTZ TightSCF
|  2> %pal nprocs 8 end
|  3> 
|  4> %loc
|  5>   LocMet NewBoys
|  6>   Occ true
|  7> end
|  8> 
|  9> %method
| 10>   
| 11>   functional pbe
| 12> end
| 13> 
| 14> %elprop
| 15>   Dipole true
| 16>   Quadrupole true
| 17> end
| 18> 
| 19> * xyz 0 2
| 20> Li    0.000000000000   0.000000000000  -1.074850000000
| 21> S    0.000000000000   0.000000000000   1.074850000000
| 22> *
| 23> 
| 24> 
| 25>                          ****END OF INPUT****
================================================================================

                       ****************************
                       * Single Point Calculation *
                       ****************************

---------------------------------
CARTESIAN COORDINATES (ANGSTROEM)
---------------------------------
  Li     0.000000    0.000000   -1.074850
  S      0.000000    0.000000    1.074850

----------------------------
CARTESIAN COORDINATES (A.U.)
----------------------------
  NO LB      ZA    FRAG     MASS         X           Y           Z
   0 Li    3.0000    0     6.941    0.000000    0.000000   -2.031172
   1 S    16.0000    0    32.060    0.000000    0.000000    2.031172

--------------------------------
INTERNAL COORDINATES (ANGSTROEM)
--------------------------------
 Li     0   0   0     0.000000000000     0.00000000     0.00000000
 S      1   0   0     2.149700000000     0.00000000     0.00000000

---------------------------
INTERNAL COORDINATES (A.U.)
---------------------------
 Li     0   0   0     0.000000000000     0.00000000     0.00000000
 S      1   0   0     4.062344270091     0.00000000     0.00000000

---------------------
BASIS SET INFORMATION
---------------------
There are 2 groups of distinct atoms

 Group   1 Type Li  : 20s5p2d1f contracted to 4s3p2d1f pattern {9911/311/11/1}
 Group   2 Type S   : 41s16p2d1f contracted to 5s4p2d1f pattern {13131311/7711/11/1}

Atom   0Li   basis set group =>   1
Atom   1S    basis set group =>   2


           ************************************************************
           *        Program running with 8 parallel MPI-processes     *
           *              working on a common directory               *
           ************************************************************
------------------------------------------------------------------------------
                             ORCA STARTUP CALCULATIONS
------------------------------------------------------------------------------
------------------------------------------------------------------------------
                   ___                                                        
                  /   \      - P O W E R E D   B Y -                         
                 /     \                                                     
                 |  |  |   _    _      __       _____    __    __             
                 |  |  |  | |  | |    /  \     |  _  \  |  |  /  |          
                  \  \/   | |  | |   /    \    | | | |  |  | /  /          
                 / \  \   | |__| |  /  /\  \   | |_| |  |  |/  /          
                |  |  |   |  __  | /  /__\  \  |    /   |      \           
                |  |  |   | |  | | |   __   |  |    \   |  |\   \          
                \     /   | |  | | |  |  |  |  | |\  \  |  | \   \       
                 \___/    |_|  |_| |__|  |__|  |_| \__\ |__|  \__/        
                                                                              
                      - O R C A' S   B I G   F R I E N D -                    
                                      &                                       
                       - I N T E G R A L  F E E D E R -                       
                                                                              
 v1 FN, 2020, v2 2021, v3 2022-2024                                           
------------------------------------------------------------------------------


----------------------
SHARK INTEGRAL PACKAGE
----------------------

Number of atoms                             ...      2
Number of basis functions                   ...     96
Number of shells                            ...     44
Maximum angular momentum                    ...      3
Integral batch strategy                     ... SHARK/LIBINT Hybrid
RI-J (if used) integral strategy            ... SPLIT-RIJ (Revised 2003 algorithm where possible)
Printlevel                                  ...      1
Contraction scheme used                     ... PARTIAL GENERAL contraction
Prescreening option                         ... SCHWARTZ
   Thresh                                   ... 2.500e-11
   Tcut                                     ... 2.500e-12
   Tpresel                                  ... 2.500e-12 
Coulomb Range Separation                    ... NOT USED
Exchange Range Separation                   ... NOT USED
Multipole approximations                    ... NOT USED
Finite Nucleus Model                        ... NOT USED
CABS basis                                  ... NOT available
Auxiliary Coulomb fitting basis             ... NOT available
Auxiliary J/K fitting basis                 ... NOT available
Auxiliary Correlation fitting basis         ... NOT available
Auxiliary 'external' fitting basis          ... NOT available

Checking pre-screening integrals            ... done (  0.0 sec) Dimension = 44
Save PGC pre-screening integrals            ... done (  0.0 sec) Dimension = 44
Calculate PGC overlap integrals             ... done (  0.0 sec) Dimension = 22
Calculating pre-screening integrals (ORCA)  ... done (  0.1 sec) Dimension = 22
Shell pair information
Shell pair cut-off parameter TPreSel        ...   2.5e-12
Total number of shell pairs                 ...       990
Shell pairs after pre-screening             ...       865
Total number of primitive shell pairs       ...      1084
Primitive shell pairs kept                  ...       943
          la=0 lb=0:    268 shell pairs
          la=1 lb=0:    271 shell pairs
          la=1 lb=1:     78 shell pairs
          la=2 lb=0:    104 shell pairs
          la=2 lb=1:     48 shell pairs
          la=2 lb=2:     10 shell pairs
          la=3 lb=0:     51 shell pairs
          la=3 lb=1:     24 shell pairs
          la=3 lb=2:      8 shell pairs
          la=3 lb=3:      3 shell pairs

Checking whether 4 symmetric matrices of dimension 96 fit in memory
:Max Core in MB      =   4096.00
 MB in use           =      2.78
 MB left             =   4093.22
 MB needed           =      0.14
 Data fit in memory  = YES
Calculating Nuclear repulsion               ... done (  0.0 sec) ENN=     11.815837557985 Eh

Diagonalization of the overlap matrix:
Smallest eigenvalue                        ... 4.294e-03
Time for diagonalization                   ...    0.001 sec
Threshold for overlap eigenvalues          ... 1.000e-07
Number of eigenvalues below threshold      ... 0
Time for construction of square roots      ...    0.001 sec
Total time needed                          ...    0.003 sec

-------------------
DFT GRID GENERATION
-------------------

General Integration Accuracy     IntAcc      ... 4.388
Radial Grid Type                 RadialGrid  ... OptM3 with GC (2021)
Angular Grid (max. ang.)         AngularGrid ... 4 (Lebedev-302)
Angular grid pruning method      GridPruning ... 4 (adaptive)
Weight generation scheme         WeightScheme... mBecke (2022)
Basis function cutoff            BFCut       ... 1.0000e-11
Integration weight cutoff        WCut        ... 1.0000e-14
Partially contracted basis set               ... off
Rotationally invariant grid construction     ... off
Angular grids for H and He will be reduced by one unit

Total number of grid points                  ...    13486
Total number of batches                      ...      212
Average number of points per batch           ...       63
Average number of grid points per atom       ...     6743

---------------------
SHARK GRID GENERATION
---------------------

General Integration Accuracy     IntAcc      ... 4.388
Radial Grid Type                 RadialGrid  ... OptM3 with GC (2021)
Angular Grid (max. ang.)         AngularGrid ... 4 (Lebedev-302)
Angular grid pruning method      GridPruning ... 4 (adaptive)
Weight generation scheme         WeightScheme... mBecke (2022)
Basis function cutoff            BFCut       ... 1.0000e-11
Integration weight cutoff        WCut        ... 1.0000e-14
Partially contracted basis set               ... off
Rotationally invariant grid construction     ... off
Angular grids for H and He will be reduced by one unit
Core-polarized basis detected: some atoms will have their core
                               angular grid increased.
Steep s-basis detected: some atoms will have their radial
                        grid points doubled.

Total number of grid points                  ...    31699
Total number of batches                      ...      497
Average number of points per batch           ...       63
Average number of grid points per atom       ...    15850
Grids setup in   1.4 sec
Initializing property integral containers    ... done (  0.0 sec)

SHARK setup successfully completed in   1.5 seconds

Maximum memory used throughout the entire STARTUP-calculation: 47.6 MB


           ************************************************************
           *        Program running with 8 parallel MPI-processes     *
           *              working on a common directory               *
           ************************************************************
-------------------------------------------------------------------------------
                                 ORCA GUESS
                   Start orbitals & Density for SCF / CASSCF
-------------------------------------------------------------------------------

------------
SCF SETTINGS
------------
Hamiltonian:
 Density Functional     Method          .... DFT(GTOs)
 Exchange Functional    Exchange        .... PBE
   PBE kappa parameter   XKappa         ....  0.804000
   PBE mue parameter    XMuePBE         ....  0.219520
 Correlation Functional Correlation     .... PBE
   PBE beta parameter  CBetaPBE         ....  0.066725
 LDA part of GGA corr.  LDAOpt          .... PW91-LDA
 Gradients option       PostSCFGGA      .... off
   NL short-range parameter             ....  6.400000


General Settings:
 Integral files         IntName         .... /cluster/projects/nn14654k/ylvaos/basis_set_n_funcs/functionals/pbe/LiS/inp/LiS_pbe_ccpvtz
 Hartree-Fock type      HFTyp           .... UHF
 Total Charge           Charge          ....    0
 Multiplicity           Mult            ....    2
 Number of Electrons    NEL             ....   19
 Basis Dimension        Dim             ....   64
 Nuclear Repulsion      ENuc            ....     11.8158375580 Eh

Convergence Acceleration:
 AO-DIIS                CNVDIIS         .... on
   Start iteration      DIISMaxIt       ....    12
   Startup error        DIISStart       ....  0.200000
   # of expansion vecs  DIISMaxEq       ....     5
   Bias factor          DIISBfac        ....   1.050
   Max. coefficient     DIISMaxC        ....  10.000
 MO-DIIS                CNVKDIIS        .... off
 Trust-Rad. Augm. Hess. CNVTRAH         .... auto
   Auto Start mean grad. ratio tolernc. ....  1.125000
   Auto Start start iteration           ....    50
   Auto Start num. interpolation iter.  ....    10
   Max. Number of Micro iterations      ....    24
   Max. Number of Macro iterations      .... Maxiter - #DIIS iter
   Number of Davidson start vectors     ....     2
   Converg. threshold    (grad. norm)   ....   1.000e-05
   Grad. Scal. Fac. for Micro threshold ....   0.100
   Minimum threshold for Micro iter.    ....   1.000e-02
   NR start threshold (gradient norm)   ....   1.000e-04
   Initial trust radius                 ....   0.400
   Minimum AH scaling param. (alpha)    ....   1.000
   Maximum AH scaling param. (alpha)    .... 1000.000
   Quad. conv. algorithm                .... NR
   White noise on init. David. guess    .... on
   Maximum white noise                  ....   0.010
   Pseudo random numbers                .... off
   Inactive MOs                         .... canonical
   Orbital update algorithm             .... Taylor
   Preconditioner                       .... Diag
   Full preconditioner red. dimension   ....   250
 SOSCF                 CNVSOSCF           .... on
   Start iteration     SOSCFMaxIt         ....   150
   Startup grad/error  SOSCFStart         ....  0.003300
   Hessian update      SOSCFHessUp        .... L-BFGS
   Autom. constraints  SOSCFAutoConstrain .... off
 Level Shifting         CNVShift        .... on
   Level shift para.    LevelShift      ....    0.2500
   Turn off err/grad.   ShiftErr        ....    0.0010
 Zerner damping         CNVZerner       .... off
 Static damping         CNVDamp         .... on
   Fraction old density DampFac         ....    0.7000
   Max. Damping (<1)    DampMax         ....    0.9800
   Min. Damping (>=0)   DampMin         ....    0.0000
   Turn off err/grad.   DampErr         ....    0.1000

SCF Procedure:
 Maximum # iterations   MaxIter         ....   125
 SCF integral mode      SCFMode         .... Direct
   Integral package                     .... SHARK and LIBINT hybrid scheme
 Reset frequency        DirectResetFreq ....    20
 Integral Threshold     Thresh          ....  2.500e-11 Eh
 Primitive CutOff       TCut            ....  2.500e-12 Eh

Convergence Tolerance:
 Convergence Check Mode ConvCheckMode   .... Total+1el-Energy
 Convergence forced     ConvForced      .... 0
 Energy Change          TolE            ....  1.000e-08 Eh
 1-El. energy change                    ....  1.000e-05 Eh
 Orbital Gradient       TolG            ....  1.000e-05
 Orbital Rotation angle TolX            ....  1.000e-05
 DIIS Error             TolErr          ....  5.000e-07

------------------------------
INITIAL GUESS: MODEL POTENTIAL
------------------------------
Loading Hartree-Fock densities                     ... done
Calculating cut-offs                               ... done
Initializing the effective Hamiltonian             ... done
Setting up the integral package (SHARK)            ... done
Starting the Coulomb interaction                   ... done (   0.0 sec)
Making the grid                                    ... done (   0.0 sec)
Mapping shells                                     ... done
Starting the XC term evaluation                    ... done (   0.0 sec)
  promolecular density results
     # of electrons  =     18.999659774
     EX              =    -26.589782764
     EC              =     -0.660299167
     EX+EC           =    -27.250081931
Transforming the Hamiltonian                       ... done (   0.0 sec)
Diagonalizing the Hamiltonian                      ... done (   0.0 sec)
Back transforming the eigenvectors                 ... done (   0.0 sec)
Now organizing SCF variables                       ... done
                      ------------------
                      INITIAL GUESS DONE (   0.0 sec)
                      ------------------
             **** ENERGY FILE WAS UPDATED (/cluster/projects/nn14654k/ylvaos/basis_set_n_funcs/functionals/pbe/LiS/inp/LiS_pbe_ccpvtz.en.tmp) ****
Finished Guess after   0.1 sec
Maximum memory used throughout the entire GUESS-calculation: 6.4 MB


           ************************************************************
           *        Program running with 8 parallel MPI-processes     *
           *              working on a common directory               *
           ************************************************************

-------------------------------------------------------------------------------------------
                                      ORCA LEAN-SCF
                              memory conserving SCF solver
-------------------------------------------------------------------------------------------

----------------------------------------D-I-I-S--------------------------------------------
Iteration    Energy (Eh)           Delta-E    RMSDP     MaxDP     DIISErr   Damp  Time(sec)
-------------------------------------------------------------------------------------------
               ***  Starting incremental Fock matrix formation  ***
    1    -405.4855593143935266     0.00e+00  4.14e-03  2.71e-02  5.75e-02  0.700   0.1
Warning: op=0 Small HOMO/LUMO gap (   0.062) - skipping pre-diagonalization
         Will do a full diagonalization
    2    -405.5017366281599038    -1.62e-02  3.65e-03  2.68e-02  3.25e-02  0.700   0.1
                               ***Turning on AO-DIIS***
    3    -405.5094840609280027    -7.75e-03  1.63e-03  1.26e-02  1.47e-02  0.700   0.1
    4    -405.5134542235671233    -3.97e-03  2.58e-03  1.88e-02  9.97e-03  0.000   0.4
    5    -405.5219749779782319    -8.52e-03  5.66e-04  3.79e-03  4.24e-03  0.000   0.2
                              *** Initializing SOSCF ***
---------------------------------------S-O-S-C-F--------------------------------------
Iteration    Energy (Eh)           Delta-E    RMSDP     MaxDP     MaxGrad    Time(sec)
--------------------------------------------------------------------------------------
    6    -405.5221968428741661    -2.22e-04  2.21e-04  1.18e-03  2.01e-03     0.2
               *** Restarting incremental Fock matrix formation ***
    7    -405.5222419134436791    -4.51e-05  2.29e-04  1.11e-03  9.57e-04     0.1
    8    -405.5222529103590432    -1.10e-05  1.33e-04  7.58e-04  6.74e-04     0.1
    9    -405.5222578729432144    -4.96e-06  2.98e-05  1.32e-04  1.54e-04     0.1
   10    -405.5222580252741409    -1.52e-07  9.61e-06  4.75e-05  4.53e-05     0.1
   11    -405.5222580555609966    -3.03e-08  3.27e-06  1.55e-05  2.16e-05     0.1
   12    -405.5222580576894416    -2.13e-09  7.80e-07  4.12e-06  7.17e-06     0.1
                 **** Energy Check signals convergence ****

               *****************************************************
               *                     SUCCESS                       *
               *           SCF CONVERGED AFTER  12 CYCLES          *
               *****************************************************

             **** ENERGY FILE WAS UPDATED (/cluster/projects/nn14654k/ylvaos/basis_set_n_funcs/functionals/pbe/LiS/inp/LiS_pbe_ccpvtz.en.tmp) ****

----------------
TOTAL SCF ENERGY
----------------

Total Energy       :       -405.52225805784411 Eh          -11034.82164 eV

Components:
Nuclear Repulsion  :         11.81583755798484 Eh             321.52529 eV
Electronic Energy  :       -417.33809561582893 Eh          -11356.34693 eV
One Electron Energy:       -584.40955434038642 Eh          -15902.59245 eV
Two Electron Energy:        167.07145872455752 Eh            4546.24552 eV

Virial components:
Potential Energy   :       -809.79782351523465 Eh          -22035.71905 eV
Kinetic Energy     :        404.27556545739054 Eh           11000.89741 eV
Virial Ratio       :          2.00308376935678

DFT components:
N(Alpha)           :        9.999985350884 electrons
N(Beta)            :        8.999985660546 electrons
N(Total)           :       18.999971011430 electrons
E(X)               :      -26.682519514625 Eh       
E(C)               :       -0.669930763599 Eh       
E(XC)              :      -27.352450278224 Eh       

---------------
SCF CONVERGENCE
---------------

  Last Energy change         ...    2.1284e-09  Tolerance :   1.0000e-08
  Last MAX-Density change    ...    4.1187e-06  Tolerance :   1.0000e-07
  Last RMS-Density change    ...    7.7987e-07  Tolerance :   5.0000e-09
  Last DIIS Error            ...    2.0051e-03  Tolerance :   5.0000e-07
  Last Orbital Gradient      ...    7.1693e-06  Tolerance :   1.0000e-05
  Last Orbital Rotation      ...    1.1157e-05  Tolerance :   1.0000e-05


----------------------
UHF SPIN CONTAMINATION
----------------------

Warning: in a DFT calculation there is little theoretical justification to 
         calculate <S**2> as in Hartree-Fock theory. We will do it anyways
         but you should keep in mind that the values have only limited relevance

Expectation value of <S**2>     :     0.753796
Ideal value S*(S+1) for S=0.5   :     0.750000
Deviation                       :     0.003796

----------------
ORBITAL ENERGIES
----------------
                 SPIN UP ORBITALS
  NO   OCC          E(Eh)            E(eV) 
   0   1.0000     -88.023515     -2395.2416 
   1   1.0000      -7.619512      -207.3375 
   2   1.0000      -5.650267      -153.7516 
   3   1.0000      -5.634212      -153.3147 
   4   1.0000      -5.633621      -153.2986 
   5   1.0000      -1.890421       -51.4410 
   6   1.0000      -0.553194       -15.0532 
   7   1.0000      -0.216931        -5.9030 
   8   1.0000      -0.197082        -5.3629 
   9   1.0000      -0.174649        -4.7524 
  10   0.0000      -0.068751        -1.8708 
  11   0.0000      -0.012463        -0.3391 
  12   0.0000      -0.008329        -0.2267 
  13   0.0000       0.013645         0.3713 
  14   0.0000       0.050201         1.3660 
  15   0.0000       0.052861         1.4384 
  16   0.0000       0.055939         1.5222 
  17   0.0000       0.121651         3.3103 
  18   0.0000       0.121811         3.3147 
  19   0.0000       0.124269         3.3815 
  20   0.0000       0.154532         4.2050 

                 SPIN DOWN ORBITALS
  NO   OCC          E(Eh)            E(eV) 
   0   1.0000     -88.019583     -2395.1346 
   1   1.0000      -7.615281      -207.2223 
   2   1.0000      -5.638342      -153.4271 
   3   1.0000      -5.631706      -153.2465 
   4   1.0000      -5.631036      -153.2283 
   5   1.0000      -1.890501       -51.4432 
   6   1.0000      -0.517899       -14.0928 
   7   1.0000      -0.185164        -5.0386 
   8   1.0000      -0.163060        -4.4371 
   9   0.0000      -0.149550        -4.0695 
  10   0.0000      -0.067608        -1.8397 
  11   0.0000      -0.008537        -0.2323 
  12   0.0000      -0.003241        -0.0882 
  13   0.0000       0.017510         0.4765 
  14   0.0000       0.052232         1.4213 
  15   0.0000       0.056433         1.5356 
  16   0.0000       0.058636         1.5956 
  17   0.0000       0.126413         3.4399 
  18   0.0000       0.127007         3.4560 
  19   0.0000       0.128328         3.4920 
*Only the first 10 virtual orbitals were printed.

                    ********************************
                    * MULLIKEN POPULATION ANALYSIS *
                    ********************************

--------------------------------------------
MULLIKEN ATOMIC CHARGES AND SPIN POPULATIONS
--------------------------------------------
   0 Li:    0.294683    0.028449
   1 S :   -0.294683    0.971551
Sum of atomic charges         :   -0.0000000
Sum of atomic spin populations:    1.0000000

-----------------------------------------------------
MULLIKEN REDUCED ORBITAL CHARGES AND SPIN POPULATIONS
-----------------------------------------------------
CHARGE
  0 Lis       :     2.211165  s :     2.211165
      pz      :     0.191259  p :     0.376203
      px      :     0.141995
      py      :     0.042949
      dz2     :     0.036387  d :     0.099031
      dxz     :     0.044095
      dyz     :     0.018514
      dx2y2   :     0.000034
      dxy     :     0.000001
      f0      :     0.003517  f :     0.018918
      f+1     :     0.010042
      f-1     :     0.005311
      f+2     :     0.000028
      f-2     :     0.000001
      f+3     :     0.000011
      f-3     :     0.000008

  1 S s       :     5.887343  s :     5.887343
      pz      :     3.664055  p :    10.397428
      px      :     3.793335
      py      :     2.940038
      dz2     :     0.004764  d :     0.009163
      dxz     :     0.002121
      dyz     :     0.001189
      dx2y2   :     0.001053
      dxy     :     0.000035
      f0      :     0.000238  f :     0.000750
      f+1     :     0.000082
      f-1     :    -0.000022
      f+2     :     0.000116
      f-2     :     0.000004
      f+3     :     0.000170
      f-3     :     0.000161


SPIN
  0 Lis       :    -0.013565  s :    -0.013565
      pz      :    -0.008614  p :     0.021388
      px      :    -0.011691
      py      :     0.041692
      dz2     :    -0.001798  d :     0.015255
      dxz     :    -0.001113
      dyz     :     0.018146
      dx2y2   :     0.000020
      dxy     :     0.000001
      f0      :     0.000058  f :     0.005371
      f+1     :     0.000062
      f-1     :     0.005209
      f+2     :     0.000025
      f-2     :     0.000001
      f+3     :     0.000009
      f-3     :     0.000007

  1 S s       :     0.010911  s :     0.010911
      pz      :     0.011949  p :     0.958186
      px      :     0.020749
      py      :     0.925489
      dz2     :     0.000134  d :     0.002235
      dxz     :     0.000045
      dyz     :     0.001172
      dx2y2   :     0.000855
      dxy     :     0.000029
      f0      :    -0.000114  f :     0.000219
      f+1     :    -0.000072
      f-1     :    -0.000023
      f+2     :     0.000107
      f-2     :     0.000004
      f+3     :     0.000158
      f-3     :     0.000160



                     *******************************
                     * LOEWDIN POPULATION ANALYSIS *
                     *******************************

-------------------------------------------
LOEWDIN ATOMIC CHARGES AND SPIN POPULATIONS
-------------------------------------------
   0 Li:   -0.445012    0.160960
   1 S :    0.445012    0.839040

----------------------------------------------------
LOEWDIN REDUCED ORBITAL CHARGES AND SPIN POPULATIONS
----------------------------------------------------
CHARGE
  0 Lis       :     2.230631  s :     2.230631
      pz      :     0.332666  p :     0.598131
      px      :     0.196632
      py      :     0.068833
      dz2     :     0.187085  d :     0.394669
      dxz     :     0.139194
      dyz     :     0.068349
      dx2y2   :     0.000040
      dxy     :     0.000001
      f0      :     0.081338  f :     0.221581
      f+1     :     0.090101
      f-1     :     0.050075
      f+2     :     0.000046
      f-2     :     0.000002
      f+3     :     0.000012
      f-3     :     0.000008

  1 S s       :     5.473609  s :     5.473609
      pz      :     3.685846  p :    10.071615
      px      :     3.565358
      py      :     2.820412
      dz2     :     0.007202  d :     0.008874
      dxz     :     0.000366
      dyz     :     0.000240
      dx2y2   :     0.001031
      dxy     :     0.000034
      f0      :     0.000350  f :     0.000890
      f+1     :     0.000018
      f-1     :     0.000071
      f+2     :     0.000116
      f-2     :     0.000004
      f+3     :     0.000170
      f-3     :     0.000161


SPIN
  0 Lis       :    -0.007813  s :    -0.007813
      pz      :    -0.003381  p :     0.052023
      px      :    -0.011620
      py      :     0.067023
      dz2     :     0.000549  d :     0.067265
      dxz     :     0.000307
      dyz     :     0.066385
      dx2y2   :     0.000024
      dxy     :     0.000001
      f0      :     0.000771  f :     0.049485
      f+1     :     0.001714
      f-1     :     0.046943
      f+2     :     0.000038
      f-2     :     0.000001
      f+3     :     0.000010
      f-3     :     0.000008

  1 S s       :     0.003988  s :     0.003988
      pz      :     0.004723  p :     0.833402
      px      :     0.017585
      py      :     0.811094
      dz2     :     0.000209  d :     0.001251
      dxz     :     0.000006
      dyz     :     0.000171
      dx2y2   :     0.000837
      dxy     :     0.000028
      f0      :    -0.000086  f :     0.000400
      f+1     :    -0.000011
      f-1     :     0.000068
      f+2     :     0.000106
      f-2     :     0.000004
      f+3     :     0.000158
      f-3     :     0.000160



                      *****************************
                      * MAYER POPULATION ANALYSIS *
                      *****************************

  NA   - Mulliken gross atomic population
  ZA   - Total nuclear charge
  QA   - Mulliken gross atomic charge
  VA   - Mayer's total valence
  BVA  - Mayer's bonded valence
  FA   - Mayer's free valence

  ATOM       NA         ZA         QA         VA         BVA        FA
  0 Li     2.7053     3.0000     0.2947     1.2084     1.2034     0.0050
  1 S     16.2947    16.0000    -0.2947     2.0824     1.2034     0.8790

  Mayer bond orders larger than 0.100000
B(  0-Li,  1-S ) :   1.2034 

-------
TIMINGS
-------

Total SCF time: 0 days 0 hours 0 min 1 sec 

Total time                  ....       1.840 sec
Sum of individual times     ....       1.735 sec  ( 94.3%)

SCF preparation             ....       0.066 sec  (  3.6%)
Fock matrix formation       ....       0.811 sec  ( 44.1%)
  Startup                   ....       0.017 sec  (  2.1% of F)
  Coulomb formation         ....       0.224 sec  ( 27.6% of F)
  XC integration            ....       0.338 sec  ( 41.7% of F)
    Basis function eval.    ....       0.029 sec  (  8.6% of XC)
    Density eval.           ....       0.014 sec  (  4.2% of XC)
    XC-Functional eval.     ....       0.010 sec  (  3.0% of XC)
    XC-Potential eval.      ....       0.036 sec  ( 10.7% of XC)
Diagonalization             ....       0.000 sec  (  0.0%)
Density matrix formation    ....       0.134 sec  (  7.3%)
Total Energy calculation    ....       0.025 sec  (  1.4%)
Population analysis         ....       0.015 sec  (  0.8%)
Orbital Transformation      ....       0.020 sec  (  1.1%)
Orbital Orthonormalization  ....       0.000 sec  (  0.0%)
DIIS solution               ....       0.563 sec  ( 30.6%)
SOSCF solution              ....       0.100 sec  (  5.4%)
Finished LeanSCF after   1.9 sec

Maximum memory used throughout the entire LEANSCF-calculation: 10.7 MB


           ************************************************************
           *        Program running with 8 parallel MPI-processes     *
           *              working on a common directory               *
           ************************************************************

------------------------------------------------------------------------------
                         ORCA PROPERTY INTEGRAL CALCULATIONS
------------------------------------------------------------------------------

GBWName                                   ... /cluster/projects/nn14654k/ylvaos/basis_set_n_funcs/functionals/pbe/LiS/inp/LiS_pbe_ccpvtz.gbw
Number of atoms                           ...      2
Number of basis functions                 ...     96
Max core memory                           ...   4096 MB

Dipole integrals                          ... YES
Quadrupole integrals                      ... YES
Linear momentum integrals                 ...  NO
Angular momentum integrals                ...  NO
Higher moments length integrals           ...  NO
Higher moments velocity integrals         ...  NO
Kinetic energy integrals                  ...  NO
GIAO right hand sides                     ...  NO
GIAO dipole derivative integrals          ...  NO
SOC integrals                             ...  NO
EPR diamagnetic integrals (GIAO)          ...  NO
EPR gauge integrals                       ...  NO
Field gradient integrals                  ...  NO (   0 nuclei)
Spin-dipole/Fermi contact integrals       ...  NO (   0 nuclei)
Contact density integrals                 ...  NO (   0 nuclei)
Nucleus-orbit integrals                   ...  NO (   0 nuclei)
Geometric perturbations                   ...  NO (   2 nuclei)

Choice of electric origin   ... Center of mass
Position of electric origin ... (  0.0000,  0.0000,  1.3082) 
Choice of magnetic origin   ... GIAO
Position of magnetic origin ... (  0.0000,  0.0000,  0.0000) 

Calculating integrals                     ... Electric Dipole (Length)     done (  0.0 sec)
Calculating integrals                     ... Electric Quadrupole (Length) done (  0.0 sec)

Property integrals calculated in   0.0 sec

Maximum memory used throughout the entire PROPINT-calculation: 6.7 MB
------------------------------------------------------------------------------
                           ORCA ORBITAL LOCALIZATION
------------------------------------------------------------------------------

Input orbitals are from                  ... /cluster/projects/nn14654k/ylvaos/basis_set_n_funcs/functionals/pbe/LiS/inp/LiS_pbe_ccpvtz.gbw
Output orbitals are to                   ... /cluster/projects/nn14654k/ylvaos/basis_set_n_funcs/functionals/pbe/LiS/inp/LiS_pbe_ccpvtz.loc
Max. number of iterations                ... 128
Localizations seeded randomly            ... on
Convergence tolerance                    ... 1.000e-06
Threshold for strong local MOs           ... 9.500e-01
Threshold for bond MOs                   ... 8.500e-01
Operator                                 ... 0
Orbital range for localization           ... 5 to 9
Localization criterion                   ... NEW-BOYS
Doing the dipole integrals               ... o.k.
Initial value of the localization sum :    12.438741
ITERATION   0 : L=   15.5150104336 DL=  3.08e+00 (AVERGE_DL)=    0.5546412527 
ITERATION   1 : L=   15.7526385867 DL=  2.38e-01 (AVERGE_DL)=    0.1541519228 
ITERATION   2 : L=   15.7966328477 DL=  4.40e-02 (AVERGE_DL)=    0.0663281697 
ITERATION   3 : L=   15.8268774718 DL=  3.02e-02 (AVERGE_DL)=    0.0549951126 
ITERATION   4 : L=   15.8389918202 DL=  1.21e-02 (AVERGE_DL)=    0.0348056725 
ITERATION   5 : L=   15.8445467904 DL=  5.55e-03 (AVERGE_DL)=    0.0235689844 
ITERATION   6 : L=   15.8467862513 DL=  2.24e-03 (AVERGE_DL)=    0.0149648284 
ITERATION   7 : L=   15.8476942762 DL=  9.08e-04 (AVERGE_DL)=    0.0095290341 
ITERATION   8 : L=   15.8480588813 DL=  3.65e-04 (AVERGE_DL)=    0.0060382533 
ITERATION   9 : L=   15.8482124203 DL=  1.54e-04 (AVERGE_DL)=    0.0039184056 
ITERATION  10 : L=   15.8482854197 DL=  7.30e-05 (AVERGE_DL)=    0.0027018402 
ITERATION  11 : L=   15.8483281398 DL=  4.27e-05 (AVERGE_DL)=    0.0020668847 
ITERATION  12 : L=   15.8483591418 DL=  3.10e-05 (AVERGE_DL)=    0.0017607382 
ITERATION  13 : L=   15.8483849477 DL=  2.58e-05 (AVERGE_DL)=    0.0016064214 
ITERATION  14 : L=   15.8484077047 DL=  2.28e-05 (AVERGE_DL)=    0.0015085424 
ITERATION  15 : L=   15.8484280827 DL=  2.04e-05 (AVERGE_DL)=    0.0014275166 
ITERATION  16 : L=   15.8484463178 DL=  1.82e-05 (AVERGE_DL)=    0.0013503729 
ITERATION  17 : L=   15.8484625543 DL=  1.62e-05 (AVERGE_DL)=    0.0012742256 
ITERATION  18 : L=   15.8484769403 DL=  1.44e-05 (AVERGE_DL)=    0.0011994156 
ITERATION  19 : L=   15.8484896379 DL=  1.27e-05 (AVERGE_DL)=    0.0011268355 
ITERATION  20 : L=   15.8485008173 DL=  1.12e-05 (AVERGE_DL)=    0.0010573305 
ITERATION  21 : L=   15.8485106453 DL=  9.83e-06 (AVERGE_DL)=    0.0009913625 
ITERATION  22 : L=   15.8485192793 DL=  8.63e-06 (AVERGE_DL)=    0.0009291924 
ITERATION  23 : L=   15.8485268626 DL=  7.58e-06 (AVERGE_DL)=    0.0008708224 
ITERATION  24 : L=   15.8485335236 DL=  6.66e-06 (AVERGE_DL)=    0.0008161492 
ITERATION  25 : L=   15.8485393764 DL=  5.85e-06 (AVERGE_DL)=    0.0007650305 
ITERATION  26 : L=   15.8485445212 DL=  5.14e-06 (AVERGE_DL)=    0.0007172764 
ITERATION  27 : L=   15.8485490456 DL=  4.52e-06 (AVERGE_DL)=    0.0006726340 
ITERATION  28 : L=   15.8485530261 DL=  3.98e-06 (AVERGE_DL)=    0.0006309110 
ITERATION  29 : L=   15.8485565296 DL=  3.50e-06 (AVERGE_DL)=    0.0005919060 
ITERATION  30 : L=   15.8485596145 DL=  3.08e-06 (AVERGE_DL)=    0.0005554216 
ITERATION  31 : L=   15.8485623319 DL=  2.72e-06 (AVERGE_DL)=    0.0005212833 
ITERATION  32 : L=   15.8485647261 DL=  2.39e-06 (AVERGE_DL)=    0.0004893052 
ITERATION  33 : L=   15.8485668364 DL=  2.11e-06 (AVERGE_DL)=    0.0004593779 
ITERATION  34 : L=   15.8485686965 DL=  1.86e-06 (AVERGE_DL)=    0.0004312902 
ITERATION  35 : L=   15.8485703365 DL=  1.64e-06 (AVERGE_DL)=    0.0004049689 
ITERATION  36 : L=   15.8485717826 DL=  1.45e-06 (AVERGE_DL)=    0.0003802815 
ITERATION  37 : L=   15.8485730579 DL=  1.28e-06 (AVERGE_DL)=    0.0003571089 
ITERATION  38 : L=   15.8485741826 DL=  1.12e-06 (AVERGE_DL)=    0.0003353639 
ITERATION  39 : L=   15.8485751745 DL=  9.92e-07 (AVERGE_DL)=    0.0003149458 
LOCALIZATION SUM CONVERGED


--------------------------------------------------------------------------------
                    LOCALIZED MOLECULAR ORBITAL COMPOSITIONS
--------------------------------------------------------------------------------

The Mulliken populations for each LMO on each atom are computed
The LMO`s will be ordered according to atom index and type
  (A) Strongly localized MO`s have populations of >=0.950 on one atom
  (B) Two center bond orbitals have populations of >=0.850 on two atoms
  (C) Other MO`s are considered to be `delocalized`

FOUND  -   2 strongly local MO`s
       -   3 two center bond MO`s
       -   0 significantly delocalized MO`s

Rather strongly localized orbitals:
MO   6:   1S  -   0.962773
MO   5:   0Li -   0.999932
Bond-like localized orbitals:
MO   9:   1S  -   0.871161  and   0Li -   0.128839
MO   8:   1S  -   0.870803  and   0Li -   0.129197
MO   7:   1S  -   0.927449  and   0Li -   0.072551
Localized MO's were stored in: /cluster/projects/nn14654k/ylvaos/basis_set_n_funcs/functionals/pbe/LiS/inp/LiS_pbe_ccpvtz.loc
------------------------------------------------------------------------------
                           ORCA ORBITAL LOCALIZATION
------------------------------------------------------------------------------

Input orbitals are from                  ... /cluster/projects/nn14654k/ylvaos/basis_set_n_funcs/functionals/pbe/LiS/inp/LiS_pbe_ccpvtz.loc
Output orbitals are to                   ... /cluster/projects/nn14654k/ylvaos/basis_set_n_funcs/functionals/pbe/LiS/inp/LiS_pbe_ccpvtz.loc
Max. number of iterations                ... 128
Localizations seeded randomly            ... on
Convergence tolerance                    ... 1.000e-06
Threshold for strong local MOs           ... 9.500e-01
Threshold for bond MOs                   ... 8.500e-01
Operator                                 ... 1
Orbital range for localization           ... 5 to 8
Localization criterion                   ... NEW-BOYS
Doing the dipole integrals               ... o.k.
Initial value of the localization sum :    12.105538
ITERATION   0 : L=   14.9030274458 DL=  2.80e+00 (AVERGE_DL)=    0.6828237294 
ITERATION   1 : L=   15.1609515348 DL=  2.58e-01 (AVERGE_DL)=    0.2073339050 
ITERATION   2 : L=   15.2357840626 DL=  7.48e-02 (AVERGE_DL)=    0.1116785027 
ITERATION   3 : L=   15.2895054773 DL=  5.37e-02 (AVERGE_DL)=    0.0946233012 
ITERATION   4 : L=   15.3157913968 DL=  2.63e-02 (AVERGE_DL)=    0.0661890216 
ITERATION   5 : L=   15.3278037392 DL=  1.20e-02 (AVERGE_DL)=    0.0447443523 
ITERATION   6 : L=   15.3329221219 DL=  5.12e-03 (AVERGE_DL)=    0.0292072557 
ITERATION   7 : L=   15.3350389768 DL=  2.12e-03 (AVERGE_DL)=    0.0187832148 
ITERATION   8 : L=   15.3359000903 DL=  8.61e-04 (AVERGE_DL)=    0.0119799374 
ITERATION   9 : L=   15.3362473841 DL=  3.47e-04 (AVERGE_DL)=    0.0076080422 
ITERATION  10 : L=   15.3363867843 DL=  1.39e-04 (AVERGE_DL)=    0.0048201008 
ITERATION  11 : L=   15.3364425873 DL=  5.58e-05 (AVERGE_DL)=    0.0030496715 
ITERATION  12 : L=   15.3364648897 DL=  2.23e-05 (AVERGE_DL)=    0.0019279698 
ITERATION  13 : L=   15.3364737947 DL=  8.91e-06 (AVERGE_DL)=    0.0012182649 
ITERATION  14 : L=   15.3364773483 DL=  3.55e-06 (AVERGE_DL)=    0.0007695838 
ITERATION  15 : L=   15.3364787656 DL=  1.42e-06 (AVERGE_DL)=    0.0004860281 
ITERATION  16 : L=   15.3364793311 DL=  5.66e-07 (AVERGE_DL)=    0.0003070027 
LOCALIZATION SUM CONVERGED


--------------------------------------------------------------------------------
                    LOCALIZED MOLECULAR ORBITAL COMPOSITIONS
--------------------------------------------------------------------------------

The Mulliken populations for each LMO on each atom are computed
The LMO`s will be ordered according to atom index and type
  (A) Strongly localized MO`s have populations of >=0.950 on one atom
  (B) Two center bond orbitals have populations of >=0.850 on two atoms
  (C) Other MO`s are considered to be `delocalized`

FOUND  -   2 strongly local MO`s
       -   2 two center bond MO`s
       -   0 significantly delocalized MO`s

Rather strongly localized orbitals:
MO   6:   1S  -   0.974035
MO   5:   0Li -   0.999971
Bond-like localized orbitals:
MO   8:   1S  -   0.843201  and   0Li -   0.156799
MO   7:   1S  -   0.843330  and   0Li -   0.156670
Localized MO's were stored in: /cluster/projects/nn14654k/ylvaos/basis_set_n_funcs/functionals/pbe/LiS/inp/LiS_pbe_ccpvtz.loc

-------------------------   --------------------
FINAL SINGLE POINT ENERGY      -405.522258057844
-------------------------   --------------------



           ************************************************************
           *        Program running with 8 parallel MPI-processes     *
           *              working on a common directory               *
           ************************************************************

------------------------------------------------------------------------------
                              ORCA PROPERTY CALCULATIONS
------------------------------------------------------------------------------

GBWName                                 ... /cluster/projects/nn14654k/ylvaos/basis_set_n_funcs/functionals/pbe/LiS/inp/LiS_pbe_ccpvtz.gbw
Number of atoms                         ...      2
Number of basis functions               ...     96
Max core memory                         ...   4096 MB

Electric properties:
Dipole moment                           ... YES
Quadrupole moment                       ... YES
Static polarizability (Dipole/Dipole)   ...  NO
Static polarizability (Dipole/Quad.)    ...  NO
Static polarizability (Quad./Quad.)     ...  NO
Static polarizability (Velocity)        ...  NO
Static hyperpolarizability              ...  NO

Atomic electric properties:
Dipole moment                           ...  NO
Quadrupole moment                       ...  NO
Static polarizability                   ...  NO

Choice of electric origin               ... Center of mass
Position of electric origin             ...     0.000000     0.000000     1.308198

General magnetic properties:
Magnetizability                         ...  NO

EPR properties:
g-Tensor (aka g-matrix)                 ...  NO
Zero-Field splitting spin-orbit         ...  NO
Zero-field splitting spin-spin          ...  NO
Hyperfine couplings                     ...  NO (   0 nuclei)
Quadrupole couplings                    ...  NO (   0 nuclei)
Contact density                         ...  NO (   0 nuclei)

NMR properties:
Chemical shifts                         ...  NO (   0 nuclei)
Spin-rotation constants                 ...  NO (   0 nuclei)
Spin-spin couplings                     ...  NO (   0 nuclei,    0 pairs)

Choice of magnetic origin               ... GIAO
Position of magnetic origin             ...     0.000000     0.000000     0.000000

Properties with geometric perturbations:
SCF Hessian                             ...  NO
IR spectrum                             ...  NO
VCD spectrum                            ...  NO
X-ray spectroscopy properties:
SCF XES/XAS/RIXS spectra                ...  NO

SCF SOC stabilization energy            ...  NO
Diagonal Born-Oppenheimer correction    ...  NO

-------------
DIPOLE MOMENT
-------------

Method             : SCF
Type of density    : Electron Density
Multiplicity       :   2
Irrep              :   0
Energy             :  -405.5222580578441125 Eh
Basis              : AO
                                X                 Y                 Z
Electronic contribution:      0.000000000       0.000000000      -4.151217261
Nuclear contribution   :      0.000000000       0.000000000       1.549484202
                        -----------------------------------------
Total Dipole Moment    :      0.000000000       0.000000000      -2.601733059
                        -----------------------------------------
Magnitude (a.u.)       :      2.601733059
Magnitude (Debye)      :      6.613079886



--------------------
Rotational spectrum 
--------------------
 
Rotational constants in cm-1:             0.000000             0.639339             0.639339 
Rotational constants in MHz :             0.000000         19166.891897         19166.891897 

Dipole components along the rotational axes: 
x,y,z [a.u.] :    -2.601733     0.000000     0.000000 
x,y,z [Debye]:    -6.613080     0.000000     0.000000 

 

Dipole moment calculation done in   0.0 sec 

-----------------
QUADRUPOLE MOMENT
-----------------

Method             : SCF
Type of density    : Electron Density
Multiplicity       :   2
Irrep              :   0
Energy             :  -405.5222580578441125 Eh
Basis              : AO

                XX              YY              ZZ              XY              XZ              YZ
  NUC        0.000000000     0.000000000    41.817245673     0.000000000     0.000000000     0.000000000
  EL       -14.297247588   -11.814678764   -45.081534969    -0.226879043     0.000000001     0.000000000
  TOT      -14.297247588   -11.814678764    -3.264289296    -0.226879043     0.000000001     0.000000000 (a.u.)
           -19.230286972   -15.891146999    -4.390580742    -0.305160072     0.000000001     0.000000000 (Buckingham)

diagonalized tensor:
           -14.317811460   -11.794114892    -3.264289296 (a.u.)
           -19.257946082   -15.863487888    -4.390580742 (Buckingham)
           -18.261823534    -8.078448952    26.340272487 (traceless form in Buckingham)

            -0.995917510    -0.090268012     0.000000000
            -0.090268012     0.995917510     0.000000000
             0.000000000    -0.000000000     1.000000000
        
Isotropic quadrupole :    -9.792071883

Quadrupole moment calculation done in   0.0 sec (  0.0 sec for integrals)

Maximum memory used throughout the entire PROP-calculation: 3.1 MB

--------------------------------
SUGGESTED CITATIONS FOR THIS RUN
--------------------------------

Below you find a list of papers that are relevant to this ORCA run
We neither can nor want to force you to cite these papers, but we appreciate if you do
You receive ORCA, which is the product of decades of hard work by many enthusiastic individuals, for free
The only thing we kindly ask in return is that you cite our papers,
We deeply appreciate it, if you show your appreciation for ORCA by not just citing the generic ORCA reference.

Please note that relegating all ORCA citations to the supporting information does *not* help us.
SI sections are not indexed - citations you put there will not count into any citation statistics
But we need these citations in order to attract the funding resources that allow us to do what we are doing

Therefore, if you are a happy ORCA user, please consider citing a few of the papers listed below in the main body of your paper

In addition to the list printed below, the program has created the file /cluster/projects/nn14654k/ylvaos/basis_set_n_funcs/functionals/pbe/LiS/inp/LiS_pbe_ccpvtz.bibtex that contains the list in bibtex format
You can import this file easily into all common literature databanks and citation aid programs

It goes without saying that in many instances, there are alternative algorithms to achieve similar
results as the ones you have gotten from ORCA. It is, of course, also the case that in some instances
ORCA just re-implements algorithms worked out by others. We are fully aware of that and we are also
fully appreciative of our colleagues work. Hence this citation list should not be read as indicating
that the listed papers, which are focused on our own work, are the only ones worth citing. It simply
meant to make it easier for users to cite ORCA specific papers. It is not a substitute for doing your
own literature research and citing the relevant literature in a scientifically appropriate manner.

List of essential papers. We consider these as the minimum necessary citations

  1. Neese, F.
     Software update: the ORCA program system, version 6.0
     WIRES Comput. Molec. Sci. 2025 15(1), e70019
     doi.org/10.1002/wcms.70019

List of papers to cite with high priority. The work reported in these papers was absolutely
necessary for this run to complete.
Our perspective: the developers of density functionals and basis sets usually get cited in chemistry papers
Good! But without the algorithms to do something with them, the functionals or basis sets would not do anything.
Hence, in our opinion, the algorithm design and method developments papers are equally worthy of getting cited

  1. Neese, F.
     The SHARK Integral Generation and Digestion System
     J. Comp. Chem. 2022 44(3), 381
     doi.org/10.1002/jcc.26942

List of suggested additional citations. These are papers that are important in the 'surrounding' of 
of this run, or papers that preceded the highly important papers. If you like your results we are grateful for a citation.

  1. Neese, F.
     The ORCA program system
     WIRES Comput. Molec. Sci. 2012 2(1), 73-78
     doi.org/10.1002/wcms.81
  2. Neese, F.
     Software update: the ORCA program system, version 4.0
     WIRES Comput. Molec. Sci. 2018 8(1), 1-6
     doi.org/10.1002/wcms.1327
  3. Neese, F.; Wennmohs, F.; Becker, U.; Riplinger, C.
     The ORCA quantum chemistry program package
     J. Chem. Phys. 2020 152(22), 224108
     doi.org/10.1063/5.0004608
  4. Neese, F.
     Software update: The ORCA program system—Version 5.0
     WIRES Comput. Molec. Sci. 2022 12(1), e1606
     doi.org/10.1002/wcms.1606

List of optional additional citations

  1. Neese, F.
     Approximate second-order SCF convergence for spin unrestricted wavefunctions
     Chem. Phys. Lett. 2000 325(1-3), 93-98
     doi.org/10.1016/s0009-2614(00)00662-x

Timings for individual modules:

Sum of individual times          ...        4.720 sec (=   0.079 min)
Startup calculation              ...        1.743 sec (=   0.029 min)  36.9 %
SCF iterations                   ...        2.349 sec (=   0.039 min)  49.8 %
Property integrals               ...        0.324 sec (=   0.005 min)   6.9 %
Property calculations            ...        0.292 sec (=   0.005 min)   6.2 %
Orbital localization             ...        0.012 sec (=   0.000 min)   0.3 %
                             ****ORCA TERMINATED NORMALLY****
TOTAL RUN TIME: 0 days 0 hours 0 minutes 5 seconds 356 msec
