
                                 *****************
                                 * O   R   C   A *
                                 *****************

                                            #,                                       
                                            ###                                      
                                            ####                                     
                                            #####                                    
                                            ######                                   
                                           ########,                                 
                                     ,,################,,,,,                         
                               ,,#################################,,                 
                          ,,##########################################,,             
                       ,#########################################, ''#####,          
                    ,#############################################,,   '####,        
                  ,##################################################,,,,####,       
                ,###########''''           ''''###############################       
              ,#####''   ,,,,##########,,,,          '''####'''          '####       
            ,##' ,,,,###########################,,,                        '##       
           ' ,,###''''                  '''############,,,                           
         ,,##''                                '''############,,,,        ,,,,,,###''
      ,#''                                            '''#######################'''  
     '                                                          ''''####''''         
             ,#######,   #######,   ,#######,      ##                                
            ,#'     '#,  ##    ##  ,#'     '#,    #''#        ,####,    ,#,          
            ##       ##  ##   ,#'  ##            #'  '#       #'       ,# #          
            ##       ##  #######   ##           ,######,      #####,      #          
            '#,     ,#'  ##    ##  '#,     ,#' ,#      #,     #,   #      #          
             '#######'   ##     ##  '#######'  #'      '#     '####' #    #          



                #########################################################
                #                        -***-                          #
                #          Department of theory and spectroscopy        #
                #                                                       #
                #                      Frank Neese                      #
                #                                                       #
                #     Directorship, Architecture, Infrastructure        #
                #                    SHARK, DRIVERS                     #
                #        Core code/Algorithms in most modules           #
                #                                                       #
                #        Max Planck Institute fuer Kohlenforschung      #
                #                Kaiser Wilhelm Platz 1                 #
                #                 D-45470 Muelheim/Ruhr                 #
                #                      Germany                          #
                #                                                       #
                #                  All rights reserved                  #
                #                        -***-                          #
                #########################################################


                         Program Version 6.1.1  -  RELEASE   -
                                (GIT: $487d211c$)
                          ($2025-11-21 10:33:24 +0100$)


 With contributions from (in alphabetic order):
[Max-Planck-Institut fuer Kohlenforschung]                               
  Daniel Aravena         : Magnetic Suceptibility                        
  Michael Atanasov       : Ab Initio Ligand Field Theory (pilot matlab implementation)
  Alexander A. Auer      : GIAO ZORA, VPT2 properties, NMR spectrum      
  Ute Becker             : All parallelization in ORCA, NUMFREQ, NUMCALC 
  Giovanni Bistoni       : ED, misc. LED, open-shell LED, HFLD           
  Dmytro Bykov           : pre 5.0 version of the SCF Hessian            
  Marcos Casanova-Páez   : Triplet and SCS-CIS(D). UHF-(DLPNO)-IP/EA/STEOM-CCSD. UHF-CVS-IP/STEOM-CCSD   
  Vijay G. Chilkuri      : MRCI spin determinant printing, contributions to CSF-ICE 
  Pauline Colinet        : FMM embedding                                 
  Dipayan Datta          : RHF DLPNO-CCSD density                        
  Achintya Kumar Dutta   : EOM-CC, STEOM-CC                              
  Nicolas Foglia         : Exact transition moments, OPA infrastructure, MCD improvements    
  Dmitry Ganyushin       : Spin-Orbit,Spin-Spin,Magnetic field MRCI      
  Miquel Garcia-Rates    : C-PCM and meta-GGA Hessian, CCSD/C-PCM, Gaussian charge scheme 
  Tiago L. C. Gouveia    : GS-ROHF, GS-ROCIS                             
  Yang Guo               : DLPNO-NEVPT2, F12-NEVPT2, CIM, IAO-localization        
  Andreas Hansen         : Spin unrestricted coupled pair/coupled cluster methods 
  Ingolf Harden          : AUTO-CI MPn and infrastructure                
  Benjamin Helmich-Paris : MC-RPA, TRAH-(SCF,CASSCF), AVAS, COSX integrals, SCF dyn. polar., MC-PDFT, srDFT 
  Lee Huntington         : MR-EOM, pCC                                   
  Robert Izsak           : Overlap fitted RIJCOSX, COSX-SCS-MP3, EOM     
  Riya Kayal             : Wick's Theorem for AUTO-CI, AUTO-CI UHF-CCSDT 
  Emily Kempfer          : AUTO-CI RHF CISDT and CCSDT, approximate NEVPT4
  Christian Kollmar      : KDIIS, OOCD, Brueckner-CCSD(T), CCSD density, CASPT2, CASPT2-K, improved NEVPT2 
  Axel Koslowski         : Symmetry handling                             
  Simone Kossmann        : meta-GGA functionals, TD-DFT gradient, OOMP2, (MP2 Hessian; deprecated post 5.0) 
  Lucas Lang             : DCDCAS, Hyperfine gauge corrections, ICE-SOC+SSC
  Marvin Lechner         : AUTO-CI (C++ implementation), FIC-MRCC        
  Spencer Leger          : CASSCF response                               
  Dagmar Lenk            : GEPOL surface, SMD, ORCA-2-JSON               
  Dimitrios Liakos       : Extrapolation schemes; Compound Job, Property file
  Dimitrios Manganas     : Further ROCIS development; embedding schemes. LFT, Crystal Embedding 
  Dimitrios Pantazis     : SARC Basis sets                               
  Anastasios Papadopoulos: AUTO-CI, single reference methods and gradients 
  Taras Petrenko         : pre 6.0 DFT Hessian and TD-DFT gradient,  ECA, NRVS 
  Petra Pikulova         : Analytic Raman intensities                    
  Peter Pinski           : DLPNO-MP2, DLPNO-MP2 Gradient                 
  Shashank Vittal Rao    : ES-AILFT, MagRelax                            
  Christoph Reimann      : Effective Core Potentials                     
  Marius Retegan         : Local ZFS, SOC                                
  Christoph Riplinger    : Optimizer, TS searches, QM/MM, DLPNO-CCSD(T), (RO)-DLPNO pert. Triples 
  Michael Roemelt        : Original ROCIS implementation, recursive CI coupling coefficients
  Masaaki Saitow         : Open-shell DLPNO-CCSD energy and density      
  Barbara Sandhoefer     : DKH picture change effects                    
  Yorick L. A. Schmerwitz: GMF and freeze-and-release deltaSCF, NEB S-IDPP initial path                    
  Kantharuban Sivalingam : CASSCF convergence/infrastructure, NEVPT2, NEVPT3, NEVPT4(SD), FIC-MRCI and CEPA variants
  Bernardo de Souza      : ESD, SOC TD-DFT                               
  Georgi L. Stoychev     : AutoAux, RI-MP2 NMR, DLPNO-MP2 response, X2C  
  Van Anh Tran           : RI-MP2 g-tensors                              
  Willem Van den Heuvel  : Paramagnetic NMR                              
  Zikuan Wang            : NOTCH, Electric field optimization            
  Frank Wennmohs         : Technical directorship and infrastructure     
  Hang Xu                : AUTO-CI-Response properties                   
                                                                         
[FACCTs GmbH]                                                            
  Markus Bursch, Nicolas Foglia, Miquel Garcia-Rates, Ingolf Harden, Hagen Neugebauer, Anastasios Papadopoulos, 
  Christoph Riplinger, Bernardo de Souza, Georgi L. Stoychev                                                    
                                                                 
  APM, various basis sets, CI-OPT, improved COSX, DLPNO-Multilevel,           
  DOCKER, DRACO, updates on ESD, Fragmentator, GOAT, IRC, LR-CPCM, L-BFGS, MBIS, meta-GGA TD-DFT gradient, ML-optimized integration grids, 
  MM, NACMEs, nearIR, NEB, NEB-TS, NL-DFT gradient (VV10), 2- and 3-layer-ONIOM, interface openCOSMO-RS, QMMM,   
  Crystal-QMMM, RESP, rigid body optimization, SF, symmetry and pop. for TD-DFT, various functionals, SOLVATOR                                   
                                                                         
[Other institutions]                                                     
  V. Asgeirsson          : NEB                                           
  Christoph Bannwarth    : sTDA-DFT, sTD-DFT, PBEh-3c, B97-3c, D3        
  Giovanni Bistoni       : ETS/NOCV, ADLD/ADEX, COVALED                  
  Martin Brehm           : Molecular dynamics                            
  Ronald Cardenas        : ETS/NOCV                                      
  Martina Colucci        : COVALED                                       
  Sebastian Ehlert       : rSCAN, r2SCAN, r2SCAN-3c, D4, dhf basis sets  
  Marvin Friede          : D4 for Fr, Ra, Ac-Lr                          
  Lars Goerigk           : TD-DFT with DH, B97 family of functionals     
  Stefan Grimme          : VdW corrections, initial TS optimization, DFT functionals, gCP, sTDA/sTD-DF 
  Waldemar Hujo          : DFT-NL                                        
  H. Jonsson             : NEB                                           
  Holger Kruse           : gCP                                           
  Marcel Mueller         : wB97X-3c, vDZP basis set                      
  Hagen Neugebauer       : wr2SCAN, Native XTB                           
  Gianluca Regni         : ADLD/ADEX                                     
  Tobias Risthaus        : pre 6.0 range-separated hybrid DFT and stability analysis
  Lukas Wittmann         : regularized MP2, r2SCAN double-hybrids, wr2SCAN        
                                                                         
We gratefully acknowledge several colleagues who have allowed us to      
interface, adapt or use parts of their codes:                            
  Ed Valeev, F. Pavosevic, A. Kumar             : LibInt (2-el integral package), F12 methods 
  Garnet Chan, S. Sharma, J. Yang, R. Olivares  : DMRG                   
  Ulf Ekstrom                                   : XCFun DFT Library      
  Mihaly Kallay                                 : mrcc  (arbitrary order and MRCC methods)
  Frank Weinhold                                : gennbo (NPA and NBO analysis)           
  Simon Mueller                                 : openCOSMO-RS                            
  Christopher J. Cramer and Donald G. Truhlar   : smd solvation model                     
  S Lehtola, MJT Oliveira, MAL Marques          : LibXC Library                           
  Liviu Ungur et al                             : ANISO software                          


 Your calculation uses the libint2 library for the computation of 2-el integrals
 For citations please refer to: http://libint.valeyev.net

 Your ORCA version has been built with support for libXC version: 7.0.0
 For citations please refer to: https://libxc.gitlab.io

 This ORCA versions uses:
   CBLAS   interface :  Fast vector & matrix operations
   LAPACKE interface :  Fast linear algebra routines
   SCALAPACK package :  Parallel linear algebra routines
   Shared memory     :  Shared parallel matrices
   BLAS/LAPACK       :  OpenBLAS 0.3.29  USE64BITINT DYNAMIC_ARCH NO_AFFINITY Cooperlake SINGLE_THREADED
        Core in use  :  Cooperlake
   Copyright (c) 2011-2014, The OpenBLAS Project


  ***********************************
  * Starting time: Wed May 20 12:39:34 2026
  * Host name:     c1-47
  * Process ID:    3625940
  * Working dir.:  /cluster/projects/nn14654k/ylvaos/basis_set_n_funcs/functionals/hyb_gga_xc_b97/PO2/out
  ***********************************

Using LibXC functional ID 407 : Becke 97
[ 1]  A. D. Becke.,  J. Chem. Phys. 107, 8554 (1997)
Using LibXC functional ID 407 : Becke 97
[ 1]  A. D. Becke.,  J. Chem. Phys. 107, 8554 (1997)
Your calculation utilizes LibXC
by S. Lehtola, C. Steigemann, M. J. T. Oliveira & M. A. L. Marques
Please cite in your paper:
Lehtola, S.; Steigemann, C.; Oliveira, M.J.T.; Marques, M. A. L. Software X, 7, (2018), 1.
   

================================================================================

----- Orbital basis set information -----
Your calculation utilizes the basis: def2-TZVP
   F. Weigend and R. Ahlrichs, Phys. Chem. Chem. Phys. 7, 3297 (2005).

================================================================================
                                        WARNINGS
                       Please study these warnings very carefully!
================================================================================


WARNING: your system is open-shell and RHF/RKS was chosen
  ===> : WILL SWITCH to UHF/UKS


================================================================================
                                       INPUT FILE
================================================================================
NAME = /cluster/projects/nn14654k/ylvaos/basis_set_n_funcs/functionals/hyb_gga_xc_b97/PO2/inp/PO2_hyb_gga_xc_b97_def2tzvp.inp
|  1> ! dft def2-TZVP TightSCF
|  2> %pal nprocs 8 end
|  3> 
|  4> %loc
|  5>   LocMet NewBoys
|  6>   Occ true
|  7> end
|  8> 
|  9> %method
| 10>   
| 11>   functional hyb_gga_xc_b97
| 12> end
| 13> 
| 14> %elprop
| 15>   Dipole true
| 16>   Quadrupole true
| 17> end
| 18> 
| 19> * xyz 0 2
| 20> P    0.000000000000   0.000000000000   0.287900000000
| 21> O    0.000000000000   1.356300000000  -0.269900000000
| 22> O    0.000000000000  -1.356300000000  -0.269900000000
| 23> *
| 24> 
| 25> 
| 26>                          ****END OF INPUT****
================================================================================

                       ****************************
                       * Single Point Calculation *
                       ****************************

---------------------------------
CARTESIAN COORDINATES (ANGSTROEM)
---------------------------------
  P      0.000000    0.000000    0.287900
  O      0.000000    1.356300   -0.269900
  O      0.000000   -1.356300   -0.269900

----------------------------
CARTESIAN COORDINATES (A.U.)
----------------------------
  NO LB      ZA    FRAG     MASS         X           Y           Z
   0 P    15.0000    0    30.974    0.000000    0.000000    0.544052
   1 O     8.0000    0    15.999    0.000000    2.563036   -0.510037
   2 O     8.0000    0    15.999    0.000000   -2.563036   -0.510037

--------------------------------
INTERNAL COORDINATES (ANGSTROEM)
--------------------------------
 P      0   0   0     0.000000000000     0.00000000     0.00000000
 O      1   0   0     1.466523279733     0.00000000     0.00000000
 O      1   2   0     1.466523279733   135.28860674     0.00000000

---------------------------
INTERNAL COORDINATES (A.U.)
---------------------------
 P      0   0   0     0.000000000000     0.00000000     0.00000000
 O      1   0   0     2.771327367716     0.00000000     0.00000000
 O      1   2   0     2.771327367716   135.28860674     0.00000000

---------------------
BASIS SET INFORMATION
---------------------
There are 2 groups of distinct atoms

 Group   1 Type P   : 14s9p3d1f contracted to 5s5p2d1f pattern {73211/51111/21/1}
 Group   2 Type O   : 11s6p2d1f contracted to 5s3p2d1f pattern {62111/411/11/1}

Atom   0P    basis set group =>   1
Atom   1O    basis set group =>   2
Atom   2O    basis set group =>   2


           ************************************************************
           *        Program running with 8 parallel MPI-processes     *
           *              working on a common directory               *
           ************************************************************
------------------------------------------------------------------------------
                             ORCA STARTUP CALCULATIONS
------------------------------------------------------------------------------
------------------------------------------------------------------------------
                   ___                                                        
                  /   \      - P O W E R E D   B Y -                         
                 /     \                                                     
                 |  |  |   _    _      __       _____    __    __             
                 |  |  |  | |  | |    /  \     |  _  \  |  |  /  |          
                  \  \/   | |  | |   /    \    | | | |  |  | /  /          
                 / \  \   | |__| |  /  /\  \   | |_| |  |  |/  /          
                |  |  |   |  __  | /  /__\  \  |    /   |      \           
                |  |  |   | |  | | |   __   |  |    \   |  |\   \          
                \     /   | |  | | |  |  |  |  | |\  \  |  | \   \       
                 \___/    |_|  |_| |__|  |__|  |_| \__\ |__|  \__/        
                                                                              
                      - O R C A' S   B I G   F R I E N D -                    
                                      &                                       
                       - I N T E G R A L  F E E D E R -                       
                                                                              
 v1 FN, 2020, v2 2021, v3 2022-2024                                           
------------------------------------------------------------------------------


----------------------
SHARK INTEGRAL PACKAGE
----------------------

Number of atoms                             ...      3
Number of basis functions                   ...     99
Number of shells                            ...     35
Maximum angular momentum                    ...      3
Integral batch strategy                     ... SHARK/LIBINT Hybrid
RI-J (if used) integral strategy            ... SPLIT-RIJ (Revised 2003 algorithm where possible)
Printlevel                                  ...      1
Contraction scheme used                     ... SEGMENTED contraction
Prescreening option                         ... SCHWARTZ
   Thresh                                   ... 2.500e-11
   Tcut                                     ... 2.500e-12
   Tpresel                                  ... 2.500e-12 
Coulomb Range Separation                    ... NOT USED
Exchange Range Separation                   ... NOT USED
Multipole approximations                    ... NOT USED
Finite Nucleus Model                        ... NOT USED
CABS basis                                  ... NOT available
Auxiliary Coulomb fitting basis             ... NOT available
Auxiliary J/K fitting basis                 ... NOT available
Auxiliary Correlation fitting basis         ... NOT available
Auxiliary 'external' fitting basis          ... NOT available

Checking pre-screening integrals            ... done (  0.0 sec) Dimension = 35
   => SHARK Basis and OBASIS are compatible. Storing Pre-screening
Shell pair information
Shell pair cut-off parameter TPreSel        ...   2.5e-12
Total number of shell pairs                 ...       630
Shell pairs after pre-screening             ...       606
Total number of primitive shell pairs       ...      2358
Primitive shell pairs kept                  ...      1863
          la=0 lb=0:    108 shell pairs
          la=1 lb=0:    159 shell pairs
          la=1 lb=1:     66 shell pairs
          la=2 lb=0:     86 shell pairs
          la=2 lb=1:     66 shell pairs
          la=2 lb=2:     21 shell pairs
          la=3 lb=0:     43 shell pairs
          la=3 lb=1:     33 shell pairs
          la=3 lb=2:     18 shell pairs
          la=3 lb=3:      6 shell pairs

Checking whether 4 symmetric matrices of dimension 99 fit in memory
:Max Core in MB      =   4096.00
 MB in use           =      2.72
 MB left             =   4093.28
 MB needed           =      0.15
 Data fit in memory  = YES
Calculating Nuclear repulsion               ... done (  0.0 sec) ENN=     99.086296046297 Eh

Diagonalization of the overlap matrix:
Smallest eigenvalue                        ... 3.081e-03
Time for diagonalization                   ...    0.001 sec
Threshold for overlap eigenvalues          ... 1.000e-07
Number of eigenvalues below threshold      ... 0
Time for construction of square roots      ...    0.003 sec
Total time needed                          ...    0.009 sec

-------------------
DFT GRID GENERATION
-------------------

General Integration Accuracy     IntAcc      ... 4.388
Radial Grid Type                 RadialGrid  ... OptM3 with GC (2021)
Angular Grid (max. ang.)         AngularGrid ... 4 (Lebedev-302)
Angular grid pruning method      GridPruning ... 4 (adaptive)
Weight generation scheme         WeightScheme... mBecke (2022)
Basis function cutoff            BFCut       ... 1.0000e-11
Integration weight cutoff        WCut        ... 1.0000e-14
Partially contracted basis set               ... off
Rotationally invariant grid construction     ... off
Angular grids for H and He will be reduced by one unit

Total number of grid points                  ...    19622
Total number of batches                      ...      309
Average number of points per batch           ...       63
Average number of grid points per atom       ...     6541
Grids setup in   0.1 sec
Initializing property integral containers    ... done (  0.0 sec)

SHARK setup successfully completed in   0.1 seconds

Maximum memory used throughout the entire STARTUP-calculation: 13.9 MB


           ************************************************************
           *        Program running with 8 parallel MPI-processes     *
           *              working on a common directory               *
           ************************************************************
-------------------------------------------------------------------------------
                                 ORCA GUESS
                   Start orbitals & Density for SCF / CASSCF
-------------------------------------------------------------------------------

------------
SCF SETTINGS
------------
Hamiltonian:
 Density Functional     Method          .... DFT(GTOs)
  Functional kind                       .... Exchange-Correlation
  Functional name                       .... Becke 97
  Functional family                     .... Hybrid GGA
  Functional refs                              
    [ 0] A. D. Becke.,  J. Chem. Phys. 107, 8554 (1997), doi: 10.1063/1.475007
  Fraction of HF Exchange               .... 0.1943
  Functional external parameters        .... 16
    Parameter  0 _cx0       =  8.094000e-01 : u^0 coefficient for exchange
    Parameter  1 _cx1       =  5.073000e-01 : u^1 coefficient for exchange
    Parameter  2 _cx2       =  7.481000e-01 : u^2 coefficient for exchange
    Parameter  3 _cx3       =  0.000000e+00 : u^3 coefficient for exchange
    Parameter  4 _cx4       =  0.000000e+00 : u^4 coefficient for exchange
    Parameter  5 _css0      =  1.737000e-01 : u^0 coefficient for same-spin correlation
    Parameter  6 _css1      =  2.348700e+00 : u^1 coefficient for same-spin correlation
    Parameter  7 _css2      = -2.486800e+00 : u^2 coefficient for same-spin correlation
    Parameter  8 _css3      =  0.000000e+00 : u^3 coefficient for same-spin correlation
    Parameter  9 _css4      =  0.000000e+00 : u^4 coefficient for same-spin correlation
    Parameter 10 _cos0      =  9.454000e-01 : u^0 coefficient for opposite-spin correlation
    Parameter 11 _cos1      =  7.471000e-01 : u^1 coefficient for opposite-spin correlation
    Parameter 12 _cos2      = -4.596100e+00 : u^2 coefficient for opposite-spin correlation
    Parameter 13 _cos3      =  0.000000e+00 : u^3 coefficient for opposite-spin correlation
    Parameter 14 _cos4      =  0.000000e+00 : u^4 coefficient for opposite-spin correlation
    Parameter 15 _cxx       =  1.943000e-01 : coefficient for exact exchange


General Settings:
 Integral files         IntName         .... /cluster/projects/nn14654k/ylvaos/basis_set_n_funcs/functionals/hyb_gga_xc_b97/PO2/inp/PO2_hyb_gga_xc_b97_def2tzvp
 Hartree-Fock type      HFTyp           .... UHF
 Total Charge           Charge          ....    0
 Multiplicity           Mult            ....    2
 Number of Electrons    NEL             ....   31
 Basis Dimension        Dim             ....   99
 Nuclear Repulsion      ENuc            ....     99.0862960463 Eh

Convergence Acceleration:
 AO-DIIS                CNVDIIS         .... on
   Start iteration      DIISMaxIt       ....    12
   Startup error        DIISStart       ....  0.200000
   # of expansion vecs  DIISMaxEq       ....     5
   Bias factor          DIISBfac        ....   1.050
   Max. coefficient     DIISMaxC        ....  10.000
 MO-DIIS                CNVKDIIS        .... off
 Trust-Rad. Augm. Hess. CNVTRAH         .... auto
   Auto Start mean grad. ratio tolernc. ....  1.125000
   Auto Start start iteration           ....    50
   Auto Start num. interpolation iter.  ....    10
   Max. Number of Micro iterations      ....    24
   Max. Number of Macro iterations      .... Maxiter - #DIIS iter
   Number of Davidson start vectors     ....     2
   Converg. threshold    (grad. norm)   ....   1.000e-05
   Grad. Scal. Fac. for Micro threshold ....   0.100
   Minimum threshold for Micro iter.    ....   1.000e-02
   NR start threshold (gradient norm)   ....   1.000e-04
   Initial trust radius                 ....   0.400
   Minimum AH scaling param. (alpha)    ....   1.000
   Maximum AH scaling param. (alpha)    .... 1000.000
   Quad. conv. algorithm                .... NR
   White noise on init. David. guess    .... on
   Maximum white noise                  ....   0.010
   Pseudo random numbers                .... off
   Inactive MOs                         .... canonical
   Orbital update algorithm             .... Taylor
   Preconditioner                       .... Diag
   Full preconditioner red. dimension   ....   250
 SOSCF                 CNVSOSCF           .... on
   Start iteration     SOSCFMaxIt         ....   150
   Startup grad/error  SOSCFStart         ....  0.003300
   Hessian update      SOSCFHessUp        .... L-BFGS
   Autom. constraints  SOSCFAutoConstrain .... off
 Level Shifting         CNVShift        .... on
   Level shift para.    LevelShift      ....    0.2500
   Turn off err/grad.   ShiftErr        ....    0.0010
 Zerner damping         CNVZerner       .... off
 Static damping         CNVDamp         .... on
   Fraction old density DampFac         ....    0.7000
   Max. Damping (<1)    DampMax         ....    0.9800
   Min. Damping (>=0)   DampMin         ....    0.0000
   Turn off err/grad.   DampErr         ....    0.1000

SCF Procedure:
 Maximum # iterations   MaxIter         ....   125
 SCF integral mode      SCFMode         .... Direct
   Integral package                     .... SHARK and LIBINT hybrid scheme
 Reset frequency        DirectResetFreq ....    20
 Integral Threshold     Thresh          ....  2.500e-11 Eh
 Primitive CutOff       TCut            ....  2.500e-12 Eh

Convergence Tolerance:
 Convergence Check Mode ConvCheckMode   .... Total+1el-Energy
 Convergence forced     ConvForced      .... 0
 Energy Change          TolE            ....  1.000e-08 Eh
 1-El. energy change                    ....  1.000e-05 Eh
 Orbital Gradient       TolG            ....  1.000e-05
 Orbital Rotation angle TolX            ....  1.000e-05
 DIIS Error             TolErr          ....  5.000e-07

------------------------------
INITIAL GUESS: MODEL POTENTIAL
------------------------------
Loading Hartree-Fock densities                     ... done
Calculating cut-offs                               ... done
Initializing the effective Hamiltonian             ... done
Setting up the integral package (SHARK)            ... done
Starting the Coulomb interaction                   ... done (   0.0 sec)
Making the grid                                    ... done (   0.0 sec)
Mapping shells                                     ... done
Starting the XC term evaluation                    ... done (   0.0 sec)
  promolecular density results
     # of electrons  =     31.000340810
     EX+EC           =    -32.557913373
Transforming the Hamiltonian                       ... done (   0.0 sec)
Diagonalizing the Hamiltonian                      ... done (   0.0 sec)
Back transforming the eigenvectors                 ... done (   0.0 sec)
Now organizing SCF variables                       ... done
                      ------------------
                      INITIAL GUESS DONE (   0.1 sec)
                      ------------------
             **** ENERGY FILE WAS UPDATED (/cluster/projects/nn14654k/ylvaos/basis_set_n_funcs/functionals/hyb_gga_xc_b97/PO2/inp/PO2_hyb_gga_xc_b97_def2tzvp.en.tmp) ****
Finished Guess after   0.2 sec
Maximum memory used throughout the entire GUESS-calculation: 6.5 MB


           ************************************************************
           *        Program running with 8 parallel MPI-processes     *
           *              working on a common directory               *
           ************************************************************

-------------------------------------------------------------------------------------------
                                      ORCA LEAN-SCF
                              memory conserving SCF solver
-------------------------------------------------------------------------------------------

----------------------------------------D-I-I-S--------------------------------------------
Iteration    Energy (Eh)           Delta-E    RMSDP     MaxDP     DIISErr   Damp  Time(sec)
-------------------------------------------------------------------------------------------
               ***  Starting incremental Fock matrix formation  ***
    1    -491.6701809436200961     0.00e+00  7.23e-03  1.74e-01  1.96e-01  0.700   0.2
    2    -491.7161646502132157    -4.60e-02  6.04e-03  1.59e-01  1.38e-01  0.700   0.2
                               ***Turning on AO-DIIS***
    3    -491.7358473465439488    -1.97e-02  3.88e-03  1.09e-01  9.55e-02  0.700   0.2
    4    -491.7487439169393042    -1.29e-02  8.57e-03  2.45e-01  6.46e-02  0.000   0.2
    5    -491.7774097417530470    -2.87e-02  3.91e-04  5.65e-03  6.25e-03  0.000   0.2
                              *** Initializing SOSCF ***
---------------------------------------S-O-S-C-F--------------------------------------
Iteration    Energy (Eh)           Delta-E    RMSDP     MaxDP     MaxGrad    Time(sec)
--------------------------------------------------------------------------------------
    6    -491.7777423410945516    -3.33e-04  2.05e-04  5.29e-03  7.76e-04     0.3
               *** Restarting incremental Fock matrix formation ***
    7    -491.7777545364306775    -1.22e-05  1.36e-04  3.35e-03  4.49e-04     0.2
    8    -491.7777565716738195    -2.04e-06  1.02e-04  2.35e-03  5.06e-04     0.2
    9    -491.7777575275003414    -9.56e-07  7.54e-05  1.93e-03  2.30e-04     0.1
   10    -491.7777581290748117    -6.02e-07  1.39e-05  3.59e-04  3.32e-05     0.2
   11    -491.7777581482823166    -1.92e-08  3.56e-06  7.23e-05  1.72e-05     0.2
   12    -491.7777581536875573    -5.41e-09  9.34e-07  1.78e-05  4.63e-06     0.2
                 **** Energy Check signals convergence ****

               *****************************************************
               *                     SUCCESS                       *
               *           SCF CONVERGED AFTER  12 CYCLES          *
               *****************************************************

             **** ENERGY FILE WAS UPDATED (/cluster/projects/nn14654k/ylvaos/basis_set_n_funcs/functionals/hyb_gga_xc_b97/PO2/inp/PO2_hyb_gga_xc_b97_def2tzvp.en.tmp) ****

----------------
TOTAL SCF ENERGY
----------------

Total Energy       :       -491.77775815355488 Eh          -13381.95312 eV

Components:
Nuclear Repulsion  :         99.08629604629714 Eh            2696.27519 eV
Electronic Energy  :       -590.86405419985203 Eh          -16078.22832 eV
One Electron Energy:       -875.47821533698243 Eh          -23822.97338 eV
Two Electron Energy:        284.61416113713040 Eh            7744.74506 eV

Virial components:
Potential Energy   :       -982.46256820754388 Eh          -26734.16562 eV
Kinetic Energy     :        490.68481005398894 Eh           13352.21249 eV
Virial Ratio       :          2.00222739338405

DFT components:
N(Alpha)           :       16.000005982608 electrons
N(Beta)            :       15.000003061011 electrons
N(Total)           :       31.000009043619 electrons
E(XC)              :      -32.766495229380 Eh       

---------------
SCF CONVERGENCE
---------------

  Last Energy change         ...    5.4052e-09  Tolerance :   1.0000e-08
  Last MAX-Density change    ...    1.7785e-05  Tolerance :   1.0000e-07
  Last RMS-Density change    ...    9.3381e-07  Tolerance :   5.0000e-09
  Last DIIS Error            ...    7.7646e-04  Tolerance :   5.0000e-07
  Last Orbital Gradient      ...    4.6337e-06  Tolerance :   1.0000e-05
  Last Orbital Rotation      ...    1.9319e-05  Tolerance :   1.0000e-05


----------------------
UHF SPIN CONTAMINATION
----------------------

Warning: in a DFT calculation there is little theoretical justification to 
         calculate <S**2> as in Hartree-Fock theory. We will do it anyways
         but you should keep in mind that the values have only limited relevance

Expectation value of <S**2>     :     0.754493
Ideal value S*(S+1) for S=0.5   :     0.750000
Deviation                       :     0.004493

----------------
ORBITAL ENERGIES
----------------
                 SPIN UP ORBITALS
  NO   OCC          E(Eh)            E(eV) 
   0   1.0000     -77.126658     -2098.7231 
   1   1.0000     -19.168420      -521.5992 
   2   1.0000     -19.168407      -521.5989 
   3   1.0000      -6.656689      -181.1377 
   4   1.0000      -4.813677      -130.9868 
   5   1.0000      -4.811504      -130.9277 
   6   1.0000      -4.807817      -130.8274 
   7   1.0000      -1.080719       -29.4079 
   8   1.0000      -1.034719       -28.1561 
   9   1.0000      -0.571017       -15.5382 
  10   1.0000      -0.471619       -12.8334 
  11   1.0000      -0.452229       -12.3058 
  12   1.0000      -0.447544       -12.1783 
  13   1.0000      -0.377074       -10.2607 
  14   1.0000      -0.373802       -10.1717 
  15   1.0000      -0.310697        -8.4545 
  16   0.0000      -0.092846        -2.5265 
  17   0.0000       0.014912         0.4058 
  18   0.0000       0.088697         2.4136 
  19   0.0000       0.198985         5.4147 
  20   0.0000       0.202894         5.5210 
  21   0.0000       0.227322         6.1857 
  22   0.0000       0.254000         6.9117 
  23   0.0000       0.274285         7.4637 
  24   0.0000       0.280210         7.6249 
  25   0.0000       0.395593        10.7646 
  26   0.0000       0.407943        11.1007 

                 SPIN DOWN ORBITALS
  NO   OCC          E(Eh)            E(eV) 
   0   1.0000     -77.124246     -2098.6574 
   1   1.0000     -19.162200      -521.4300 
   2   1.0000     -19.162184      -521.4295 
   3   1.0000      -6.654055      -181.0660 
   4   1.0000      -4.811687      -130.9327 
   5   1.0000      -4.806052      -130.7793 
   6   1.0000      -4.805928      -130.7760 
   7   1.0000      -1.061759       -28.8919 
   8   1.0000      -1.014544       -27.6072 
   9   1.0000      -0.540611       -14.7108 
  10   1.0000      -0.439950       -11.9717 
  11   1.0000      -0.438748       -11.9389 
  12   1.0000      -0.431604       -11.7445 
  13   1.0000      -0.371707       -10.1147 
  14   1.0000      -0.358489        -9.7550 
  15   0.0000      -0.195587        -5.3222 
  16   0.0000      -0.069655        -1.8954 
  17   0.0000       0.027652         0.7524 
  18   0.0000       0.099614         2.7106 
  19   0.0000       0.203726         5.5437 
  20   0.0000       0.207385         5.6432 
  21   0.0000       0.234136         6.3712 
  22   0.0000       0.274183         7.4609 
  23   0.0000       0.289022         7.8647 
  24   0.0000       0.301557         8.2058 
  25   0.0000       0.402613        10.9557 
*Only the first 10 virtual orbitals were printed.

                    ********************************
                    * MULLIKEN POPULATION ANALYSIS *
                    ********************************

--------------------------------------------
MULLIKEN ATOMIC CHARGES AND SPIN POPULATIONS
--------------------------------------------
   0 P :    0.685351    0.584049
   1 O :   -0.342676    0.207976
   2 O :   -0.342676    0.207976
Sum of atomic charges         :   -0.0000000
Sum of atomic spin populations:    1.0000000

-----------------------------------------------------
MULLIKEN REDUCED ORBITAL CHARGES AND SPIN POPULATIONS
-----------------------------------------------------
CHARGE
  0 P s       :     5.531236  s :     5.531236
      pz      :     2.826454  p :     8.113311
      px      :     2.694788
      py      :     2.592068
      dz2     :     0.084445  d :     0.599093
      dxz     :     0.015458
      dyz     :     0.175113
      dx2y2   :     0.129158
      dxy     :     0.194918
      f0      :     0.004284  f :     0.071009
      f+1     :     0.000178
      f-1     :     0.025675
      f+2     :     0.010311
      f-2     :     0.009872
      f+3     :     0.013334
      f-3     :     0.007355

  1 O s       :     3.817132  s :     3.817132
      pz      :     1.529129  p :     4.496888
      px      :     1.525721
      py      :     1.442038
      dz2     :     0.003983  d :     0.027354
      dxz     :     0.001339
      dyz     :     0.007555
      dx2y2   :     0.006238
      dxy     :     0.008240
      f0      :     0.000103  f :     0.001301
      f+1     :     0.000005
      f-1     :     0.000307
      f+2     :     0.000246
      f-2     :     0.000144
      f+3     :     0.000278
      f-3     :     0.000218

  2 O s       :     3.817132  s :     3.817132
      pz      :     1.529129  p :     4.496888
      px      :     1.525721
      py      :     1.442038
      dz2     :     0.003983  d :     0.027354
      dxz     :     0.001339
      dyz     :     0.007555
      dx2y2   :     0.006238
      dxy     :     0.008240
      f0      :     0.000103  f :     0.001301
      f+1     :     0.000005
      f-1     :     0.000307
      f+2     :     0.000246
      f-2     :     0.000144
      f+3     :     0.000278
      f-3     :     0.000218


SPIN
  0 P s       :     0.326772  s :     0.326772
      pz      :     0.191538  p :     0.175381
      px      :     0.021834
      py      :    -0.037991
      dz2     :     0.032430  d :     0.087170
      dxz     :    -0.003697
      dyz     :    -0.003519
      dx2y2   :     0.062809
      dxy     :    -0.000854
      f0      :    -0.000162  f :    -0.005274
      f+1     :    -0.000076
      f-1     :    -0.001700
      f+2     :    -0.000503
      f-2     :    -0.000379
      f+3     :    -0.001864
      f-3     :    -0.000590

  1 O s       :    -0.007749  s :    -0.007749
      pz      :     0.179746  p :     0.215720
      px      :    -0.007693
      py      :     0.043666
      dz2     :    -0.000026  d :    -0.000121
      dxz     :     0.000030
      dyz     :    -0.000349
      dx2y2   :     0.000091
      dxy     :     0.000134
      f0      :     0.000003  f :     0.000126
      f+1     :    -0.000003
      f-1     :     0.000018
      f+2     :     0.000036
      f-2     :     0.000030
      f+3     :     0.000020
      f-3     :     0.000021

  2 O s       :    -0.007749  s :    -0.007749
      pz      :     0.179746  p :     0.215720
      px      :    -0.007693
      py      :     0.043666
      dz2     :    -0.000026  d :    -0.000121
      dxz     :     0.000030
      dyz     :    -0.000349
      dx2y2   :     0.000091
      dxy     :     0.000134
      f0      :     0.000003  f :     0.000126
      f+1     :    -0.000003
      f-1     :     0.000018
      f+2     :     0.000036
      f-2     :     0.000030
      f+3     :     0.000020
      f-3     :     0.000021



                     *******************************
                     * LOEWDIN POPULATION ANALYSIS *
                     *******************************

-------------------------------------------
LOEWDIN ATOMIC CHARGES AND SPIN POPULATIONS
-------------------------------------------
   0 P :    0.376018    0.567375
   1 O :   -0.188009    0.216312
   2 O :   -0.188009    0.216312

----------------------------------------------------
LOEWDIN REDUCED ORBITAL CHARGES AND SPIN POPULATIONS
----------------------------------------------------
CHARGE
  0 P s       :     4.997983  s :     4.997983
      pz      :     2.882804  p :     8.315223
      px      :     2.674847
      py      :     2.757573
      dz2     :     0.142342  d :     1.078183
      dxz     :     0.019768
      dyz     :     0.335905
      dx2y2   :     0.293506
      dxy     :     0.286663
      f0      :     0.017968  f :     0.232592
      f+1     :     0.000298
      f-1     :     0.071202
      f+2     :     0.041636
      f-2     :     0.029931
      f+3     :     0.032291
      f-3     :     0.039266

  1 O s       :     3.574224  s :     3.574224
      pz      :     1.511427  p :     4.562438
      px      :     1.467483
      py      :     1.583528
      dz2     :     0.005363  d :     0.048882
      dxz     :     0.001349
      dyz     :     0.017550
      dx2y2   :     0.015899
      dxy     :     0.008721
      f0      :     0.000312  f :     0.002465
      f+1     :     0.000012
      f-1     :     0.000418
      f+2     :     0.000652
      f-2     :     0.000175
      f+3     :     0.000360
      f-3     :     0.000535

  2 O s       :     3.574224  s :     3.574224
      pz      :     1.511427  p :     4.562438
      px      :     1.467483
      py      :     1.583528
      dz2     :     0.005363  d :     0.048882
      dxz     :     0.001349
      dyz     :     0.017550
      dx2y2   :     0.015899
      dxy     :     0.008721
      f0      :     0.000312  f :     0.002465
      f+1     :     0.000012
      f-1     :     0.000418
      f+2     :     0.000652
      f-2     :     0.000175
      f+3     :     0.000360
      f-3     :     0.000535


SPIN
  0 P s       :     0.198158  s :     0.198158
      pz      :     0.211702  p :     0.212751
      px      :     0.019812
      py      :    -0.018763
      dz2     :     0.061844  d :     0.157722
      dxz     :    -0.003399
      dyz     :    -0.006734
      dx2y2   :     0.107247
      dxy     :    -0.001237
      f0      :     0.000129  f :    -0.001257
      f+1     :    -0.000065
      f-1     :     0.000333
      f+2     :    -0.000872
      f-2     :    -0.000285
      f+3     :    -0.001772
      f-3     :     0.001275

  1 O s       :     0.021081  s :     0.021081
      pz      :     0.158630  p :     0.194406
      px      :    -0.006796
      py      :     0.042572
      dz2     :     0.000155  d :     0.000738
      dxz     :     0.000055
      dyz     :     0.000438
      dx2y2   :    -0.000087
      dxy     :     0.000176
      f0      :    -0.000003  f :     0.000088
      f+1     :    -0.000001
      f-1     :     0.000021
      f+2     :     0.000016
      f-2     :     0.000024
      f+3     :     0.000015
      f-3     :     0.000017

  2 O s       :     0.021081  s :     0.021081
      pz      :     0.158630  p :     0.194406
      px      :    -0.006796
      py      :     0.042572
      dz2     :     0.000155  d :     0.000738
      dxz     :     0.000055
      dyz     :     0.000438
      dx2y2   :    -0.000087
      dxy     :     0.000176
      f0      :    -0.000003  f :     0.000088
      f+1     :    -0.000001
      f-1     :     0.000021
      f+2     :     0.000016
      f-2     :     0.000024
      f+3     :     0.000015
      f-3     :     0.000017



                      *****************************
                      * MAYER POPULATION ANALYSIS *
                      *****************************

  NA   - Mulliken gross atomic population
  ZA   - Total nuclear charge
  QA   - Mulliken gross atomic charge
  VA   - Mayer's total valence
  BVA  - Mayer's bonded valence
  FA   - Mayer's free valence

  ATOM       NA         ZA         QA         VA         BVA        FA
  0 P     14.3146    15.0000     0.6854     4.4961     4.0769     0.4192
  1 O      8.3427     8.0000    -0.3427     2.2073     2.1646     0.0428
  2 O      8.3427     8.0000    -0.3427     2.2073     2.1646     0.0428

  Mayer bond orders larger than 0.100000
B(  0-P ,  1-O ) :   2.0385 B(  0-P ,  2-O ) :   2.0385 B(  1-O ,  2-O ) :   0.1261 


-------
TIMINGS
-------

Total SCF time: 0 days 0 hours 0 min 2 sec 

Total time                  ....       2.639 sec
Sum of individual times     ....       2.479 sec  ( 93.9%)

SCF preparation             ....       0.106 sec  (  4.0%)
Fock matrix formation       ....       1.566 sec  ( 59.3%)
  Startup                   ....       0.028 sec  (  1.8% of F)
  Coulomb+Exchange Fock     ....       0.638 sec  ( 40.8% of F)
  XC integration            ....       0.506 sec  ( 32.3% of F)
    Basis function eval.    ....       0.027 sec  (  5.3% of XC)
    Density eval.           ....       0.025 sec  (  4.9% of XC)
    XC-Functional eval.     ....       0.020 sec  (  4.0% of XC)
    XC-Potential eval.      ....       0.060 sec  ( 11.8% of XC)
Diagonalization             ....       0.000 sec  (  0.0%)
Density matrix formation    ....       0.227 sec  (  8.6%)
Total Energy calculation    ....       0.045 sec  (  1.7%)
Population analysis         ....       0.018 sec  (  0.7%)
Orbital Transformation      ....       0.040 sec  (  1.5%)
Orbital Orthonormalization  ....       0.000 sec  (  0.0%)
DIIS solution               ....       0.345 sec  ( 13.1%)
SOSCF solution              ....       0.130 sec  (  4.9%)
Finished LeanSCF after   2.8 sec

Maximum memory used throughout the entire LEANSCF-calculation: 13.7 MB


           ************************************************************
           *        Program running with 8 parallel MPI-processes     *
           *              working on a common directory               *
           ************************************************************

------------------------------------------------------------------------------
                         ORCA PROPERTY INTEGRAL CALCULATIONS
------------------------------------------------------------------------------

GBWName                                   ... /cluster/projects/nn14654k/ylvaos/basis_set_n_funcs/functionals/hyb_gga_xc_b97/PO2/inp/PO2_hyb_gga_xc_b97_def2tzvp.gbw
Number of atoms                           ...      3
Number of basis functions                 ...     99
Max core memory                           ...   4096 MB

Dipole integrals                          ... YES
Quadrupole integrals                      ... YES
Linear momentum integrals                 ...  NO
Angular momentum integrals                ...  NO
Higher moments length integrals           ...  NO
Higher moments velocity integrals         ...  NO
Kinetic energy integrals                  ...  NO
GIAO right hand sides                     ...  NO
GIAO dipole derivative integrals          ...  NO
SOC integrals                             ...  NO
EPR diamagnetic integrals (GIAO)          ...  NO
EPR gauge integrals                       ...  NO
Field gradient integrals                  ...  NO (   0 nuclei)
Spin-dipole/Fermi contact integrals       ...  NO (   0 nuclei)
Contact density integrals                 ...  NO (   0 nuclei)
Nucleus-orbit integrals                   ...  NO (   0 nuclei)
Geometric perturbations                   ...  NO (   3 nuclei)

Choice of electric origin   ... Center of mass
Position of electric origin ... (  0.0000,  0.0000,  0.0084) 
Choice of magnetic origin   ... GIAO
Position of magnetic origin ... (  0.0000,  0.0000,  0.0000) 

Calculating integrals                     ... Electric Dipole (Length)     done (  0.0 sec)
Calculating integrals                     ... Electric Quadrupole (Length) done (  0.0 sec)

Property integrals calculated in   0.0 sec

Maximum memory used throughout the entire PROPINT-calculation: 6.9 MB
------------------------------------------------------------------------------
                           ORCA ORBITAL LOCALIZATION
------------------------------------------------------------------------------

Input orbitals are from                  ... /cluster/projects/nn14654k/ylvaos/basis_set_n_funcs/functionals/hyb_gga_xc_b97/PO2/inp/PO2_hyb_gga_xc_b97_def2tzvp.gbw
Output orbitals are to                   ... /cluster/projects/nn14654k/ylvaos/basis_set_n_funcs/functionals/hyb_gga_xc_b97/PO2/inp/PO2_hyb_gga_xc_b97_def2tzvp.loc
Max. number of iterations                ... 128
Localizations seeded randomly            ... on
Convergence tolerance                    ... 1.000e-06
Threshold for strong local MOs           ... 9.500e-01
Threshold for bond MOs                   ... 8.500e-01
Operator                                 ... 0
Orbital range for localization           ... 4 to 15
Localization criterion                   ... NEW-BOYS
Doing the dipole integrals               ... o.k.
Initial value of the localization sum :    31.883135
ITERATION   0 : L=   46.8932599844 DL=  1.50e+01 (AVERGE_DL)=    0.4768921677 
ITERATION   1 : L=   50.2811992960 DL=  3.39e+00 (AVERGE_DL)=    0.2265665770 
ITERATION   2 : L=   50.5322021655 DL=  2.51e-01 (AVERGE_DL)=    0.0616690666 
ITERATION   3 : L=   50.5887826921 DL=  5.66e-02 (AVERGE_DL)=    0.0292793563 
ITERATION   4 : L=   50.6026417576 DL=  1.39e-02 (AVERGE_DL)=    0.0144908882 
ITERATION   5 : L=   50.6062037735 DL=  3.56e-03 (AVERGE_DL)=    0.0073464234 
ITERATION   6 : L=   50.6071841418 DL=  9.80e-04 (AVERGE_DL)=    0.0038540974 
ITERATION   7 : L=   50.6074573201 DL=  2.73e-04 (AVERGE_DL)=    0.0020344692 
ITERATION   8 : L=   50.6075339658 DL=  7.66e-05 (AVERGE_DL)=    0.0010776355 
ITERATION   9 : L=   50.6075554160 DL=  2.15e-05 (AVERGE_DL)=    0.0005700907 
ITERATION  10 : L=   50.6075613850 DL=  5.97e-06 (AVERGE_DL)=    0.0003007313 
ITERATION  11 : L=   50.6075630318 DL=  1.65e-06 (AVERGE_DL)=    0.0001579620 
ITERATION  12 : L=   50.6075634824 DL=  4.51e-07 (AVERGE_DL)=    0.0000826218 
LOCALIZATION SUM CONVERGED


--------------------------------------------------------------------------------
                    LOCALIZED MOLECULAR ORBITAL COMPOSITIONS
--------------------------------------------------------------------------------

The Mulliken populations for each LMO on each atom are computed
The LMO`s will be ordered according to atom index and type
  (A) Strongly localized MO`s have populations of >=0.950 on one atom
  (B) Two center bond orbitals have populations of >=0.850 on two atoms
  (C) Other MO`s are considered to be `delocalized`

FOUND  -   6 strongly local MO`s
       -   6 two center bond MO`s
       -   0 significantly delocalized MO`s

Rather strongly localized orbitals:
MO   9:   2O  -   0.962486
MO   8:   1O  -   0.962485
MO   7:   0P  -   1.070988
MO   6:   0P  -   1.000366
MO   5:   0P  -   1.000918
MO   4:   0P  -   1.000366
Bond-like localized orbitals:
MO  15:   2O  -   0.881738  and   0P  -   0.119886
MO  14:   2O  -   0.736033  and   0P  -   0.264110
MO  13:   2O  -   0.736031  and   0P  -   0.264118
MO  12:   1O  -   0.736037  and   0P  -   0.264110
MO  11:   1O  -   0.881736  and   0P  -   0.119889
MO  10:   1O  -   0.736029  and   0P  -   0.264115
Localized MO's were stored in: /cluster/projects/nn14654k/ylvaos/basis_set_n_funcs/functionals/hyb_gga_xc_b97/PO2/inp/PO2_hyb_gga_xc_b97_def2tzvp.loc
------------------------------------------------------------------------------
                           ORCA ORBITAL LOCALIZATION
------------------------------------------------------------------------------

Input orbitals are from                  ... /cluster/projects/nn14654k/ylvaos/basis_set_n_funcs/functionals/hyb_gga_xc_b97/PO2/inp/PO2_hyb_gga_xc_b97_def2tzvp.loc
Output orbitals are to                   ... /cluster/projects/nn14654k/ylvaos/basis_set_n_funcs/functionals/hyb_gga_xc_b97/PO2/inp/PO2_hyb_gga_xc_b97_def2tzvp.loc
Max. number of iterations                ... 128
Localizations seeded randomly            ... on
Convergence tolerance                    ... 1.000e-06
Threshold for strong local MOs           ... 9.500e-01
Threshold for bond MOs                   ... 8.500e-01
Operator                                 ... 1
Orbital range for localization           ... 4 to 14
Localization criterion                   ... NEW-BOYS
Doing the dipole integrals               ... o.k.
Initial value of the localization sum :    29.053221
ITERATION   0 : L=   39.6022934229 DL=  1.05e+01 (AVERGE_DL)=    0.4379512679 
ITERATION   1 : L=   43.1364317176 DL=  3.53e+00 (AVERGE_DL)=    0.2534897629 
ITERATION   2 : L=   43.4596230168 DL=  3.23e-01 (AVERGE_DL)=    0.0766564116 
ITERATION   3 : L=   43.5189541982 DL=  5.93e-02 (AVERGE_DL)=    0.0328443108 
ITERATION   4 : L=   43.5250008307 DL=  6.05e-03 (AVERGE_DL)=    0.0104851691 
ITERATION   5 : L=   43.5273020848 DL=  2.30e-03 (AVERGE_DL)=    0.0064684608 
ITERATION   6 : L=   43.5287880588 DL=  1.49e-03 (AVERGE_DL)=    0.0051978561 
ITERATION   7 : L=   43.5298335872 DL=  1.05e-03 (AVERGE_DL)=    0.0043600009 
ITERATION   8 : L=   43.5305781694 DL=  7.45e-04 (AVERGE_DL)=    0.0036793828 
ITERATION   9 : L=   43.5311069867 DL=  5.29e-04 (AVERGE_DL)=    0.0031007839 
ITERATION  10 : L=   43.5314812137 DL=  3.74e-04 (AVERGE_DL)=    0.0026084719 
ITERATION  11 : L=   43.5317453364 DL=  2.64e-04 (AVERGE_DL)=    0.0021913994 
ITERATION  12 : L=   43.5319314477 DL=  1.86e-04 (AVERGE_DL)=    0.0018395221 
ITERATION  13 : L=   43.5320624753 DL=  1.31e-04 (AVERGE_DL)=    0.0015434768 
ITERATION  14 : L=   43.5321546855 DL=  9.22e-05 (AVERGE_DL)=    0.0012948165 
ITERATION  15 : L=   43.5322195810 DL=  6.49e-05 (AVERGE_DL)=    0.0010862400 
ITERATION  16 : L=   43.5322652560 DL=  4.57e-05 (AVERGE_DL)=    0.0009112926 
ITERATION  17 : L=   43.5322974141 DL=  3.22e-05 (AVERGE_DL)=    0.0007646524 
ITERATION  18 : L=   43.5323200641 DL=  2.26e-05 (AVERGE_DL)=    0.0006417304 
ITERATION  19 : L=   43.5323360224 DL=  1.60e-05 (AVERGE_DL)=    0.0005386578 
ITERATION  20 : L=   43.5323472727 DL=  1.13e-05 (AVERGE_DL)=    0.0004522723 
ITERATION  21 : L=   43.5323552055 DL=  7.93e-06 (AVERGE_DL)=    0.0003797804 
ITERATION  22 : L=   43.5323608027 DL=  5.60e-06 (AVERGE_DL)=    0.0003190096 
ITERATION  23 : L=   43.5323647532 DL=  3.95e-06 (AVERGE_DL)=    0.0002680054 
ITERATION  24 : L=   43.5323675426 DL=  2.79e-06 (AVERGE_DL)=    0.0002252017 
ITERATION  25 : L=   43.5323695129 DL=  1.97e-06 (AVERGE_DL)=    0.0001892746 
ITERATION  26 : L=   43.5323709052 DL=  1.39e-06 (AVERGE_DL)=    0.0001591018 
ITERATION  27 : L=   43.5323718895 DL=  9.84e-07 (AVERGE_DL)=    0.0001337810 
LOCALIZATION SUM CONVERGED


--------------------------------------------------------------------------------
                    LOCALIZED MOLECULAR ORBITAL COMPOSITIONS
--------------------------------------------------------------------------------

The Mulliken populations for each LMO on each atom are computed
The LMO`s will be ordered according to atom index and type
  (A) Strongly localized MO`s have populations of >=0.950 on one atom
  (B) Two center bond orbitals have populations of >=0.850 on two atoms
  (C) Other MO`s are considered to be `delocalized`

FOUND  -   5 strongly local MO`s
       -   6 two center bond MO`s
       -   0 significantly delocalized MO`s

Rather strongly localized orbitals:
MO   8:   2O  -   0.957123
MO   7:   1O  -   0.957115
MO   6:   0P  -   1.000862
MO   5:   0P  -   1.000201
MO   4:   0P  -   1.000201
Bond-like localized orbitals:
MO  14:   2O  -   0.555813  and   0P  -   0.438409
MO  13:   2O  -   0.775473  and   0P  -   0.225019
MO  12:   2O  -   0.776016  and   0P  -   0.224483
MO  11:   1O  -   0.555818  and   0P  -   0.438404
MO  10:   1O  -   0.775836  and   0P  -   0.224659
MO   9:   1O  -   0.775655  and   0P  -   0.224843
Localized MO's were stored in: /cluster/projects/nn14654k/ylvaos/basis_set_n_funcs/functionals/hyb_gga_xc_b97/PO2/inp/PO2_hyb_gga_xc_b97_def2tzvp.loc

-------------------------   --------------------
FINAL SINGLE POINT ENERGY      -491.777758153555
-------------------------   --------------------



           ************************************************************
           *        Program running with 8 parallel MPI-processes     *
           *              working on a common directory               *
           ************************************************************

------------------------------------------------------------------------------
                              ORCA PROPERTY CALCULATIONS
------------------------------------------------------------------------------

GBWName                                 ... /cluster/projects/nn14654k/ylvaos/basis_set_n_funcs/functionals/hyb_gga_xc_b97/PO2/inp/PO2_hyb_gga_xc_b97_def2tzvp.gbw
Number of atoms                         ...      3
Number of basis functions               ...     99
Max core memory                         ...   4096 MB

Electric properties:
Dipole moment                           ... YES
Quadrupole moment                       ... YES
Static polarizability (Dipole/Dipole)   ...  NO
Static polarizability (Dipole/Quad.)    ...  NO
Static polarizability (Quad./Quad.)     ...  NO
Static polarizability (Velocity)        ...  NO
Static hyperpolarizability              ...  NO

Atomic electric properties:
Dipole moment                           ...  NO
Quadrupole moment                       ...  NO
Static polarizability                   ...  NO

Choice of electric origin               ... Center of mass
Position of electric origin             ...     0.000000     0.000000     0.008437

General magnetic properties:
Magnetizability                         ...  NO

EPR properties:
g-Tensor (aka g-matrix)                 ...  NO
Zero-Field splitting spin-orbit         ...  NO
Zero-field splitting spin-spin          ...  NO
Hyperfine couplings                     ...  NO (   0 nuclei)
Quadrupole couplings                    ...  NO (   0 nuclei)
Contact density                         ...  NO (   0 nuclei)

NMR properties:
Chemical shifts                         ...  NO (   0 nuclei)
Spin-rotation constants                 ...  NO (   0 nuclei)
Spin-spin couplings                     ...  NO (   0 nuclei,    0 pairs)

Choice of magnetic origin               ... GIAO
Position of magnetic origin             ...     0.000000     0.000000     0.000000

Properties with geometric perturbations:
SCF Hessian                             ...  NO
IR spectrum                             ...  NO
VCD spectrum                            ...  NO
X-ray spectroscopy properties:
SCF XES/XAS/RIXS spectra                ...  NO

SCF SOC stabilization energy            ...  NO
Diagonal Born-Oppenheimer correction    ...  NO

-------------
DIPOLE MOMENT
-------------

Method             : SCF
Type of density    : Electron Density
Multiplicity       :   2
Irrep              :   0
Energy             :  -491.7777581535548848 Eh
Basis              : AO
                                X                 Y                 Z
Electronic contribution:     -0.000000000      -0.000000000       0.815428183
Nuclear contribution   :      0.000000000       0.000000000      -0.261362976
                        -----------------------------------------
Total Dipole Moment    :     -0.000000000      -0.000000000       0.554065206
                        -----------------------------------------
Magnitude (a.u.)       :      0.554065206
Magnitude (Debye)      :      1.408321833



--------------------
Rotational spectrum 
--------------------
 
Rotational constants in cm-1:             3.442444             0.286393             0.264396 
Rotational constants in MHz :        103201.869580          8585.841533          7926.407020 

Dipole components along the rotational axes: 
x,y,z [a.u.] :    -0.000000     0.554065    -0.000000 
x,y,z [Debye]:    -0.000000     1.408322    -0.000000 

 

Dipole moment calculation done in   0.0 sec 

-----------------
QUADRUPOLE MOMENT
-----------------

Method             : SCF
Type of density    : Electron Density
Multiplicity       :   2
Irrep              :   0
Energy             :  -491.7777581535548848 Eh
Basis              : AO

                XX              YY              ZZ              XY              XZ              YZ
  NUC        0.000000000   105.106420135     8.604299986     0.000000000     0.000000000     0.000000000
  EL       -15.354732868  -126.174370611   -24.674285558    -0.000000000    -0.000000000    -0.000000000
  TOT      -15.354732868   -21.067950476   -16.069985573    -0.000000000    -0.000000000    -0.000000000 (a.u.)
           -20.652640839   -28.337113914   -21.614680189    -0.000000000    -0.000000000    -0.000000000 (Buckingham)

diagonalized tensor:
           -21.067950476   -16.069985573   -15.354732868 (a.u.)
           -28.337113914   -21.614680189   -20.652640839 (Buckingham)
           -14.406906799     5.760394375     8.646512425 (traceless form in Buckingham)

             0.000000000     0.000000000     1.000000000
             1.000000000    -0.000000000    -0.000000000
             0.000000000     1.000000000    -0.000000000
        
Isotropic quadrupole :   -17.497556305

Quadrupole moment calculation done in   0.0 sec (  0.0 sec for integrals)

Maximum memory used throughout the entire PROP-calculation: 3.4 MB

--------------------------------
SUGGESTED CITATIONS FOR THIS RUN
--------------------------------

Below you find a list of papers that are relevant to this ORCA run
We neither can nor want to force you to cite these papers, but we appreciate if you do
You receive ORCA, which is the product of decades of hard work by many enthusiastic individuals, for free
The only thing we kindly ask in return is that you cite our papers,
We deeply appreciate it, if you show your appreciation for ORCA by not just citing the generic ORCA reference.

Please note that relegating all ORCA citations to the supporting information does *not* help us.
SI sections are not indexed - citations you put there will not count into any citation statistics
But we need these citations in order to attract the funding resources that allow us to do what we are doing

Therefore, if you are a happy ORCA user, please consider citing a few of the papers listed below in the main body of your paper

In addition to the list printed below, the program has created the file /cluster/projects/nn14654k/ylvaos/basis_set_n_funcs/functionals/hyb_gga_xc_b97/PO2/inp/PO2_hyb_gga_xc_b97_def2tzvp.bibtex that contains the list in bibtex format
You can import this file easily into all common literature databanks and citation aid programs

It goes without saying that in many instances, there are alternative algorithms to achieve similar
results as the ones you have gotten from ORCA. It is, of course, also the case that in some instances
ORCA just re-implements algorithms worked out by others. We are fully aware of that and we are also
fully appreciative of our colleagues work. Hence this citation list should not be read as indicating
that the listed papers, which are focused on our own work, are the only ones worth citing. It simply
meant to make it easier for users to cite ORCA specific papers. It is not a substitute for doing your
own literature research and citing the relevant literature in a scientifically appropriate manner.

List of essential papers. We consider these as the minimum necessary citations

  1. Neese, F.
     Software update: the ORCA program system, version 6.0
     WIRES Comput. Molec. Sci. 2025 15(1), e70019
     doi.org/10.1002/wcms.70019

List of papers to cite with high priority. The work reported in these papers was absolutely
necessary for this run to complete.
Our perspective: the developers of density functionals and basis sets usually get cited in chemistry papers
Good! But without the algorithms to do something with them, the functionals or basis sets would not do anything.
Hence, in our opinion, the algorithm design and method developments papers are equally worthy of getting cited

  1. Lehtola, S.; Steigemann, C.; Oliveira, M.; Marques, M.
     Recent developments in Libxc - A comprehensive library of functionals for density functional theory
     Software X 2018 7 , 
     doi.org/10.1016/j.softx.2017.11.002
  2. Neese, F.
     The SHARK Integral Generation and Digestion System
     J. Comp. Chem. 2022 44(3), 381
     doi.org/10.1002/jcc.26942

List of suggested additional citations. These are papers that are important in the 'surrounding' of 
of this run, or papers that preceded the highly important papers. If you like your results we are grateful for a citation.

  1. Neese, F.
     The ORCA program system
     WIRES Comput. Molec. Sci. 2012 2(1), 73-78
     doi.org/10.1002/wcms.81
  2. Neese, F.
     Software update: the ORCA program system, version 4.0
     WIRES Comput. Molec. Sci. 2018 8(1), 1-6
     doi.org/10.1002/wcms.1327
  3. Neese, F.; Wennmohs, F.; Becker, U.; Riplinger, C.
     The ORCA quantum chemistry program package
     J. Chem. Phys. 2020 152(22), 224108
     doi.org/10.1063/5.0004608
  4. Neese, F.
     Software update: The ORCA program system—Version 5.0
     WIRES Comput. Molec. Sci. 2022 12(1), e1606
     doi.org/10.1002/wcms.1606

List of optional additional citations

  1. Neese, F.
     Approximate second-order SCF convergence for spin unrestricted wavefunctions
     Chem. Phys. Lett. 2000 325(1-3), 93-98
     doi.org/10.1016/s0009-2614(00)00662-x

Timings for individual modules:

Sum of individual times          ...        4.454 sec (=   0.074 min)
Startup calculation              ...        0.529 sec (=   0.009 min)  11.9 %
SCF iterations                   ...        3.411 sec (=   0.057 min)  76.6 %
Property integrals               ...        0.247 sec (=   0.004 min)   5.5 %
Property calculations            ...        0.246 sec (=   0.004 min)   5.5 %
Orbital localization             ...        0.021 sec (=   0.000 min)   0.5 %
                             ****ORCA TERMINATED NORMALLY****
TOTAL RUN TIME: 0 days 0 hours 0 minutes 5 seconds 561 msec
