
                                 *****************
                                 * O   R   C   A *
                                 *****************

                                            #,                                       
                                            ###                                      
                                            ####                                     
                                            #####                                    
                                            ######                                   
                                           ########,                                 
                                     ,,################,,,,,                         
                               ,,#################################,,                 
                          ,,##########################################,,             
                       ,#########################################, ''#####,          
                    ,#############################################,,   '####,        
                  ,##################################################,,,,####,       
                ,###########''''           ''''###############################       
              ,#####''   ,,,,##########,,,,          '''####'''          '####       
            ,##' ,,,,###########################,,,                        '##       
           ' ,,###''''                  '''############,,,                           
         ,,##''                                '''############,,,,        ,,,,,,###''
      ,#''                                            '''#######################'''  
     '                                                          ''''####''''         
             ,#######,   #######,   ,#######,      ##                                
            ,#'     '#,  ##    ##  ,#'     '#,    #''#        ,####,    ,#,          
            ##       ##  ##   ,#'  ##            #'  '#       #'       ,# #          
            ##       ##  #######   ##           ,######,      #####,      #          
            '#,     ,#'  ##    ##  '#,     ,#' ,#      #,     #,   #      #          
             '#######'   ##     ##  '#######'  #'      '#     '####' #    #          



                #########################################################
                #                        -***-                          #
                #          Department of theory and spectroscopy        #
                #                                                       #
                #                      Frank Neese                      #
                #                                                       #
                #     Directorship, Architecture, Infrastructure        #
                #                    SHARK, DRIVERS                     #
                #        Core code/Algorithms in most modules           #
                #                                                       #
                #        Max Planck Institute fuer Kohlenforschung      #
                #                Kaiser Wilhelm Platz 1                 #
                #                 D-45470 Muelheim/Ruhr                 #
                #                      Germany                          #
                #                                                       #
                #                  All rights reserved                  #
                #                        -***-                          #
                #########################################################


                         Program Version 6.1.1  -  RELEASE   -
                                (GIT: $487d211c$)
                          ($2025-11-21 10:33:24 +0100$)


 With contributions from (in alphabetic order):
[Max-Planck-Institut fuer Kohlenforschung]                               
  Daniel Aravena         : Magnetic Suceptibility                        
  Michael Atanasov       : Ab Initio Ligand Field Theory (pilot matlab implementation)
  Alexander A. Auer      : GIAO ZORA, VPT2 properties, NMR spectrum      
  Ute Becker             : All parallelization in ORCA, NUMFREQ, NUMCALC 
  Giovanni Bistoni       : ED, misc. LED, open-shell LED, HFLD           
  Dmytro Bykov           : pre 5.0 version of the SCF Hessian            
  Marcos Casanova-Páez   : Triplet and SCS-CIS(D). UHF-(DLPNO)-IP/EA/STEOM-CCSD. UHF-CVS-IP/STEOM-CCSD   
  Vijay G. Chilkuri      : MRCI spin determinant printing, contributions to CSF-ICE 
  Pauline Colinet        : FMM embedding                                 
  Dipayan Datta          : RHF DLPNO-CCSD density                        
  Achintya Kumar Dutta   : EOM-CC, STEOM-CC                              
  Nicolas Foglia         : Exact transition moments, OPA infrastructure, MCD improvements    
  Dmitry Ganyushin       : Spin-Orbit,Spin-Spin,Magnetic field MRCI      
  Miquel Garcia-Rates    : C-PCM and meta-GGA Hessian, CCSD/C-PCM, Gaussian charge scheme 
  Tiago L. C. Gouveia    : GS-ROHF, GS-ROCIS                             
  Yang Guo               : DLPNO-NEVPT2, F12-NEVPT2, CIM, IAO-localization        
  Andreas Hansen         : Spin unrestricted coupled pair/coupled cluster methods 
  Ingolf Harden          : AUTO-CI MPn and infrastructure                
  Benjamin Helmich-Paris : MC-RPA, TRAH-(SCF,CASSCF), AVAS, COSX integrals, SCF dyn. polar., MC-PDFT, srDFT 
  Lee Huntington         : MR-EOM, pCC                                   
  Robert Izsak           : Overlap fitted RIJCOSX, COSX-SCS-MP3, EOM     
  Riya Kayal             : Wick's Theorem for AUTO-CI, AUTO-CI UHF-CCSDT 
  Emily Kempfer          : AUTO-CI RHF CISDT and CCSDT, approximate NEVPT4
  Christian Kollmar      : KDIIS, OOCD, Brueckner-CCSD(T), CCSD density, CASPT2, CASPT2-K, improved NEVPT2 
  Axel Koslowski         : Symmetry handling                             
  Simone Kossmann        : meta-GGA functionals, TD-DFT gradient, OOMP2, (MP2 Hessian; deprecated post 5.0) 
  Lucas Lang             : DCDCAS, Hyperfine gauge corrections, ICE-SOC+SSC
  Marvin Lechner         : AUTO-CI (C++ implementation), FIC-MRCC        
  Spencer Leger          : CASSCF response                               
  Dagmar Lenk            : GEPOL surface, SMD, ORCA-2-JSON               
  Dimitrios Liakos       : Extrapolation schemes; Compound Job, Property file
  Dimitrios Manganas     : Further ROCIS development; embedding schemes. LFT, Crystal Embedding 
  Dimitrios Pantazis     : SARC Basis sets                               
  Anastasios Papadopoulos: AUTO-CI, single reference methods and gradients 
  Taras Petrenko         : pre 6.0 DFT Hessian and TD-DFT gradient,  ECA, NRVS 
  Petra Pikulova         : Analytic Raman intensities                    
  Peter Pinski           : DLPNO-MP2, DLPNO-MP2 Gradient                 
  Shashank Vittal Rao    : ES-AILFT, MagRelax                            
  Christoph Reimann      : Effective Core Potentials                     
  Marius Retegan         : Local ZFS, SOC                                
  Christoph Riplinger    : Optimizer, TS searches, QM/MM, DLPNO-CCSD(T), (RO)-DLPNO pert. Triples 
  Michael Roemelt        : Original ROCIS implementation, recursive CI coupling coefficients
  Masaaki Saitow         : Open-shell DLPNO-CCSD energy and density      
  Barbara Sandhoefer     : DKH picture change effects                    
  Yorick L. A. Schmerwitz: GMF and freeze-and-release deltaSCF, NEB S-IDPP initial path                    
  Kantharuban Sivalingam : CASSCF convergence/infrastructure, NEVPT2, NEVPT3, NEVPT4(SD), FIC-MRCI and CEPA variants
  Bernardo de Souza      : ESD, SOC TD-DFT                               
  Georgi L. Stoychev     : AutoAux, RI-MP2 NMR, DLPNO-MP2 response, X2C  
  Van Anh Tran           : RI-MP2 g-tensors                              
  Willem Van den Heuvel  : Paramagnetic NMR                              
  Zikuan Wang            : NOTCH, Electric field optimization            
  Frank Wennmohs         : Technical directorship and infrastructure     
  Hang Xu                : AUTO-CI-Response properties                   
                                                                         
[FACCTs GmbH]                                                            
  Markus Bursch, Nicolas Foglia, Miquel Garcia-Rates, Ingolf Harden, Hagen Neugebauer, Anastasios Papadopoulos, 
  Christoph Riplinger, Bernardo de Souza, Georgi L. Stoychev                                                    
                                                                 
  APM, various basis sets, CI-OPT, improved COSX, DLPNO-Multilevel,           
  DOCKER, DRACO, updates on ESD, Fragmentator, GOAT, IRC, LR-CPCM, L-BFGS, MBIS, meta-GGA TD-DFT gradient, ML-optimized integration grids, 
  MM, NACMEs, nearIR, NEB, NEB-TS, NL-DFT gradient (VV10), 2- and 3-layer-ONIOM, interface openCOSMO-RS, QMMM,   
  Crystal-QMMM, RESP, rigid body optimization, SF, symmetry and pop. for TD-DFT, various functionals, SOLVATOR                                   
                                                                         
[Other institutions]                                                     
  V. Asgeirsson          : NEB                                           
  Christoph Bannwarth    : sTDA-DFT, sTD-DFT, PBEh-3c, B97-3c, D3        
  Giovanni Bistoni       : ETS/NOCV, ADLD/ADEX, COVALED                  
  Martin Brehm           : Molecular dynamics                            
  Ronald Cardenas        : ETS/NOCV                                      
  Martina Colucci        : COVALED                                       
  Sebastian Ehlert       : rSCAN, r2SCAN, r2SCAN-3c, D4, dhf basis sets  
  Marvin Friede          : D4 for Fr, Ra, Ac-Lr                          
  Lars Goerigk           : TD-DFT with DH, B97 family of functionals     
  Stefan Grimme          : VdW corrections, initial TS optimization, DFT functionals, gCP, sTDA/sTD-DF 
  Waldemar Hujo          : DFT-NL                                        
  H. Jonsson             : NEB                                           
  Holger Kruse           : gCP                                           
  Marcel Mueller         : wB97X-3c, vDZP basis set                      
  Hagen Neugebauer       : wr2SCAN, Native XTB                           
  Gianluca Regni         : ADLD/ADEX                                     
  Tobias Risthaus        : pre 6.0 range-separated hybrid DFT and stability analysis
  Lukas Wittmann         : regularized MP2, r2SCAN double-hybrids, wr2SCAN        
                                                                         
We gratefully acknowledge several colleagues who have allowed us to      
interface, adapt or use parts of their codes:                            
  Ed Valeev, F. Pavosevic, A. Kumar             : LibInt (2-el integral package), F12 methods 
  Garnet Chan, S. Sharma, J. Yang, R. Olivares  : DMRG                   
  Ulf Ekstrom                                   : XCFun DFT Library      
  Mihaly Kallay                                 : mrcc  (arbitrary order and MRCC methods)
  Frank Weinhold                                : gennbo (NPA and NBO analysis)           
  Simon Mueller                                 : openCOSMO-RS                            
  Christopher J. Cramer and Donald G. Truhlar   : smd solvation model                     
  S Lehtola, MJT Oliveira, MAL Marques          : LibXC Library                           
  Liviu Ungur et al                             : ANISO software                          


 Your calculation uses the libint2 library for the computation of 2-el integrals
 For citations please refer to: http://libint.valeyev.net

 Your ORCA version has been built with support for libXC version: 7.0.0
 For citations please refer to: https://libxc.gitlab.io

 This ORCA versions uses:
   CBLAS   interface :  Fast vector & matrix operations
   LAPACKE interface :  Fast linear algebra routines
   SCALAPACK package :  Parallel linear algebra routines
   Shared memory     :  Shared parallel matrices
   BLAS/LAPACK       :  OpenBLAS 0.3.29  USE64BITINT DYNAMIC_ARCH NO_AFFINITY Cooperlake SINGLE_THREADED
        Core in use  :  Cooperlake
   Copyright (c) 2011-2014, The OpenBLAS Project


  ***********************************
  * Starting time: Wed May 20 12:36:04 2026
  * Host name:     c1-6
  * Process ID:    2551570
  * Working dir.:  /cluster/projects/nn14654k/ylvaos/basis_set_n_funcs/functionals/gga_x_b88/LiS/out
  ***********************************

Using LibXC functional ID 106 : Becke 88
[ 1]  A. D. Becke.,  Phys. Rev. A 38, 3098 (1988)
Using LibXC functional ID 106 : Becke 88
[ 1]  A. D. Becke.,  Phys. Rev. A 38, 3098 (1988)
Your calculation utilizes LibXC
by S. Lehtola, C. Steigemann, M. J. T. Oliveira & M. A. L. Marques
Please cite in your paper:
Lehtola, S.; Steigemann, C.; Oliveira, M.J.T.; Marques, M. A. L. Software X, 7, (2018), 1.
   

================================================================================

----- Orbital basis set information -----
Your calculation utilizes the basis: cc-pVDZ 
       H, B-Ne : Obtained from the ccRepo (grant-hill.group.shef.ac.uk/ccrepo) Feb. 2017
                 T. H. Dunning, Jr., J. Chem. Phys. 90, 1007 (1989)
            He : Obtained from the ccRepo (grant-hill.group.shef.ac.uk/ccrepo) Feb. 2017
                 D. E. Woon, T. H. Dunning, Jr., J. Chem. Phys. 100, 2975 (1994)
  Li-Be, Na-Mg : Obtained from the ccRepo (grant-hill.group.shef.ac.uk/ccrepo) Feb. 2017
                 B. P. Prascher, D. E. Woon, K. A. Peterson, T. H. Dunning, Jr., A. K. Wilson, Theor. Chem. Acc. 128, 69 (2011)
         Al-Ar : Obtained from the ccRepo (grant-hill.group.shef.ac.uk/ccrepo) Feb. 2017
                 D. E. Woon, T. H. Dunning, Jr., J. Chem. Phys. 98, 1358 (1993)
            Ca : Obtained from the Peterson Research Group Website (tyr0.chem.wsu.edu/~kipeters) Feb. 2017
                 J. Koput, K. A. Peterson, J. Phys. Chem. 106, 9595 (2002)
         Sc-Zn : Obtained from the ccRepo (grant-hill.group.shef.ac.uk/ccrepo) Feb. 2017
                 N. B. Balabanov, K. A. Peterson, J. Chem. Phys. 123, 064107 (2005)
                 N. B. Balabanov, K. A. Peterson, J. Chem. Phys. 125, 074110 (2006)
         Ga-Kr : Obtained from the ccRepo (grant-hill.group.shef.ac.uk/ccrepo) Feb. 2017
                 A. K. Wilson, D. E. Woon, K. A. Peterson, T. H. Dunning, Jr., J. Chem. Phys. 110, 7667 (1999)

================================================================================
                                        WARNINGS
                       Please study these warnings very carefully!
================================================================================


WARNING: your system is open-shell and RHF/RKS was chosen
  ===> : WILL SWITCH to UHF/UKS


================================================================================
                                       INPUT FILE
================================================================================
NAME = /cluster/projects/nn14654k/ylvaos/basis_set_n_funcs/functionals/gga_x_b88/LiS/inp/LiS_gga_x_b88_ccpvdz.inp
|  1> ! dft cc-pVDZ TightSCF
|  2> %pal nprocs 8 end
|  3> 
|  4> %loc
|  5>   LocMet NewBoys
|  6>   Occ true
|  7> end
|  8> 
|  9> %method
| 10>   exchange gga_x_b88
| 11>   correlation None
| 12> end
| 13> 
| 14> %elprop
| 15>   Dipole true
| 16>   Quadrupole true
| 17> end
| 18> 
| 19> * xyz 0 2
| 20> Li    0.000000000000   0.000000000000  -1.074850000000
| 21> S    0.000000000000   0.000000000000   1.074850000000
| 22> *
| 23> 
| 24> 
| 25>                          ****END OF INPUT****
================================================================================

                       ****************************
                       * Single Point Calculation *
                       ****************************

---------------------------------
CARTESIAN COORDINATES (ANGSTROEM)
---------------------------------
  Li     0.000000    0.000000   -1.074850
  S      0.000000    0.000000    1.074850

----------------------------
CARTESIAN COORDINATES (A.U.)
----------------------------
  NO LB      ZA    FRAG     MASS         X           Y           Z
   0 Li    3.0000    0     6.941    0.000000    0.000000   -2.031172
   1 S    16.0000    0    32.060    0.000000    0.000000    2.031172

--------------------------------
INTERNAL COORDINATES (ANGSTROEM)
--------------------------------
 Li     0   0   0     0.000000000000     0.00000000     0.00000000
 S      1   0   0     2.149700000000     0.00000000     0.00000000

---------------------------
INTERNAL COORDINATES (A.U.)
---------------------------
 Li     0   0   0     0.000000000000     0.00000000     0.00000000
 S      1   0   0     4.062344270091     0.00000000     0.00000000

---------------------
BASIS SET INFORMATION
---------------------
There are 2 groups of distinct atoms

 Group   1 Type Li  : 17s4p1d contracted to 3s2p1d pattern {881/31/1}
 Group   2 Type S   : 34s15p1d contracted to 4s3p1d pattern {1111111/771/1}

Atom   0Li   basis set group =>   1
Atom   1S    basis set group =>   2


           ************************************************************
           *        Program running with 8 parallel MPI-processes     *
           *              working on a common directory               *
           ************************************************************
------------------------------------------------------------------------------
                             ORCA STARTUP CALCULATIONS
------------------------------------------------------------------------------
------------------------------------------------------------------------------
                   ___                                                        
                  /   \      - P O W E R E D   B Y -                         
                 /     \                                                     
                 |  |  |   _    _      __       _____    __    __             
                 |  |  |  | |  | |    /  \     |  _  \  |  |  /  |          
                  \  \/   | |  | |   /    \    | | | |  |  | /  /          
                 / \  \   | |__| |  /  /\  \   | |_| |  |  |/  /          
                |  |  |   |  __  | /  /__\  \  |    /   |      \           
                |  |  |   | |  | | |   __   |  |    \   |  |\   \          
                \     /   | |  | | |  |  |  |  | |\  \  |  | \   \       
                 \___/    |_|  |_| |__|  |__|  |_| \__\ |__|  \__/        
                                                                              
                      - O R C A' S   B I G   F R I E N D -                    
                                      &                                       
                       - I N T E G R A L  F E E D E R -                       
                                                                              
 v1 FN, 2020, v2 2021, v3 2022-2024                                           
------------------------------------------------------------------------------


----------------------
SHARK INTEGRAL PACKAGE
----------------------

Number of atoms                             ...      2
Number of basis functions                   ...     61
Number of shells                            ...     33
Maximum angular momentum                    ...      2
Integral batch strategy                     ... SHARK/LIBINT Hybrid
RI-J (if used) integral strategy            ... SPLIT-RIJ (Revised 2003 algorithm where possible)
Printlevel                                  ...      1
Contraction scheme used                     ... PARTIAL GENERAL contraction
Prescreening option                         ... SCHWARTZ
   Thresh                                   ... 2.500e-11
   Tcut                                     ... 2.500e-12
   Tpresel                                  ... 2.500e-12 
Coulomb Range Separation                    ... NOT USED
Exchange Range Separation                   ... NOT USED
Multipole approximations                    ... NOT USED
Finite Nucleus Model                        ... NOT USED
CABS basis                                  ... NOT available
Auxiliary Coulomb fitting basis             ... NOT available
Auxiliary J/K fitting basis                 ... NOT available
Auxiliary Correlation fitting basis         ... NOT available
Auxiliary 'external' fitting basis          ... NOT available

Checking pre-screening integrals            ... done (  0.0 sec) Dimension = 33
Save PGC pre-screening integrals            ... done (  0.0 sec) Dimension = 33
Calculate PGC overlap integrals             ... done (  0.0 sec) Dimension = 14
Calculating pre-screening integrals (ORCA)  ... done (  0.0 sec) Dimension = 14
Shell pair information
Shell pair cut-off parameter TPreSel        ...   2.5e-12
Total number of shell pairs                 ...       561
Shell pairs after pre-screening             ...       479
Total number of primitive shell pairs       ...       633
Primitive shell pairs kept                  ...       551
          la=0 lb=0:    176 shell pairs
          la=1 lb=0:    183 shell pairs
          la=1 lb=1:     55 shell pairs
          la=2 lb=0:     42 shell pairs
          la=2 lb=1:     20 shell pairs
          la=2 lb=2:      3 shell pairs

Checking whether 4 symmetric matrices of dimension 61 fit in memory
:Max Core in MB      =   4096.00
 MB in use           =      1.66
 MB left             =   4094.34
 MB needed           =      0.06
 Data fit in memory  = YES
Calculating Nuclear repulsion               ... done (  0.0 sec) ENN=     11.815837557985 Eh

Diagonalization of the overlap matrix:
Smallest eigenvalue                        ... 1.244e-02
Time for diagonalization                   ...    0.000 sec
Threshold for overlap eigenvalues          ... 1.000e-07
Number of eigenvalues below threshold      ... 0
Time for construction of square roots      ...    0.004 sec
Total time needed                          ...    0.014 sec

-------------------
DFT GRID GENERATION
-------------------

General Integration Accuracy     IntAcc      ... 4.388
Radial Grid Type                 RadialGrid  ... OptM3 with GC (2021)
Angular Grid (max. ang.)         AngularGrid ... 4 (Lebedev-302)
Angular grid pruning method      GridPruning ... 4 (adaptive)
Weight generation scheme         WeightScheme... mBecke (2022)
Basis function cutoff            BFCut       ... 1.0000e-11
Integration weight cutoff        WCut        ... 1.0000e-14
Partially contracted basis set               ... off
Rotationally invariant grid construction     ... off
Angular grids for H and He will be reduced by one unit

Total number of grid points                  ...    13486
Total number of batches                      ...      212
Average number of points per batch           ...       63
Average number of grid points per atom       ...     6743

---------------------
SHARK GRID GENERATION
---------------------

General Integration Accuracy     IntAcc      ... 4.388
Radial Grid Type                 RadialGrid  ... OptM3 with GC (2021)
Angular Grid (max. ang.)         AngularGrid ... 4 (Lebedev-302)
Angular grid pruning method      GridPruning ... 4 (adaptive)
Weight generation scheme         WeightScheme... mBecke (2022)
Basis function cutoff            BFCut       ... 1.0000e-11
Integration weight cutoff        WCut        ... 1.0000e-14
Partially contracted basis set               ... off
Rotationally invariant grid construction     ... off
Angular grids for H and He will be reduced by one unit
Core-polarized basis detected: some atoms will have their core
                               angular grid increased.
Steep s-basis detected: some atoms will have their radial
                        grid points doubled.

Total number of grid points                  ...    31699
Total number of batches                      ...      497
Average number of points per batch           ...       63
Average number of grid points per atom       ...    15850
Grids setup in   1.1 sec
Initializing property integral containers    ... done (  0.0 sec)

SHARK setup successfully completed in   1.2 seconds

Maximum memory used throughout the entire STARTUP-calculation: 24.9 MB


           ************************************************************
           *        Program running with 8 parallel MPI-processes     *
           *              working on a common directory               *
           ************************************************************
-------------------------------------------------------------------------------
                                 ORCA GUESS
                   Start orbitals & Density for SCF / CASSCF
-------------------------------------------------------------------------------

------------
SCF SETTINGS
------------
Hamiltonian:
 Density Functional     Method          .... DFT(GTOs)
  Functional kind                       .... Exchange
  Functional name                       .... Becke 88
  Functional family                     .... GGA
  Functional refs                              
    [ 0] A. D. Becke.,  Phys. Rev. A 38, 3098 (1988), doi: 10.1103/PhysRevA.38.3098
  Functional external parameters        .... 2
    Parameter  0 _beta      =  4.200000e-03 : beta/X_FACTOR_C is the coefficient of the gradient expansion
    Parameter  1 _gamma     =  6.000000e+00 : gamma should be 6 to get the right asymptotics of Ex
 Correlation Functional Correlation     .... No Correlation
 Gradients option       PostSCFGGA      .... off


General Settings:
 Integral files         IntName         .... /cluster/projects/nn14654k/ylvaos/basis_set_n_funcs/functionals/gga_x_b88/LiS/inp/LiS_gga_x_b88_ccpvdz
 Hartree-Fock type      HFTyp           .... UHF
 Total Charge           Charge          ....    0
 Multiplicity           Mult            ....    2
 Number of Electrons    NEL             ....   19
 Basis Dimension        Dim             ....   32
 Nuclear Repulsion      ENuc            ....     11.8158375580 Eh

Convergence Acceleration:
 AO-DIIS                CNVDIIS         .... on
   Start iteration      DIISMaxIt       ....    12
   Startup error        DIISStart       ....  0.200000
   # of expansion vecs  DIISMaxEq       ....     5
   Bias factor          DIISBfac        ....   1.050
   Max. coefficient     DIISMaxC        ....  10.000
 MO-DIIS                CNVKDIIS        .... off
 Trust-Rad. Augm. Hess. CNVTRAH         .... auto
   Auto Start mean grad. ratio tolernc. ....  1.125000
   Auto Start start iteration           ....    50
   Auto Start num. interpolation iter.  ....    10
   Max. Number of Micro iterations      ....    24
   Max. Number of Macro iterations      .... Maxiter - #DIIS iter
   Number of Davidson start vectors     ....     2
   Converg. threshold    (grad. norm)   ....   1.000e-05
   Grad. Scal. Fac. for Micro threshold ....   0.100
   Minimum threshold for Micro iter.    ....   1.000e-02
   NR start threshold (gradient norm)   ....   1.000e-04
   Initial trust radius                 ....   0.400
   Minimum AH scaling param. (alpha)    ....   1.000
   Maximum AH scaling param. (alpha)    .... 1000.000
   Quad. conv. algorithm                .... NR
   White noise on init. David. guess    .... on
   Maximum white noise                  ....   0.010
   Pseudo random numbers                .... off
   Inactive MOs                         .... canonical
   Orbital update algorithm             .... Taylor
   Preconditioner                       .... Diag
   Full preconditioner red. dimension   ....   250
 SOSCF                 CNVSOSCF           .... on
   Start iteration     SOSCFMaxIt         ....   150
   Startup grad/error  SOSCFStart         ....  0.003300
   Hessian update      SOSCFHessUp        .... L-BFGS
   Autom. constraints  SOSCFAutoConstrain .... off
 Level Shifting         CNVShift        .... on
   Level shift para.    LevelShift      ....    0.2500
   Turn off err/grad.   ShiftErr        ....    0.0010
 Zerner damping         CNVZerner       .... off
 Static damping         CNVDamp         .... on
   Fraction old density DampFac         ....    0.7000
   Max. Damping (<1)    DampMax         ....    0.9800
   Min. Damping (>=0)   DampMin         ....    0.0000
   Turn off err/grad.   DampErr         ....    0.1000

SCF Procedure:
 Maximum # iterations   MaxIter         ....   125
 SCF integral mode      SCFMode         .... Direct
   Integral package                     .... SHARK and LIBINT hybrid scheme
 Reset frequency        DirectResetFreq ....    20
 Integral Threshold     Thresh          ....  2.500e-11 Eh
 Primitive CutOff       TCut            ....  2.500e-12 Eh

Convergence Tolerance:
 Convergence Check Mode ConvCheckMode   .... Total+1el-Energy
 Convergence forced     ConvForced      .... 0
 Energy Change          TolE            ....  1.000e-08 Eh
 1-El. energy change                    ....  1.000e-05 Eh
 Orbital Gradient       TolG            ....  1.000e-05
 Orbital Rotation angle TolX            ....  1.000e-05
 DIIS Error             TolErr          ....  5.000e-07

------------------------------
INITIAL GUESS: MODEL POTENTIAL
------------------------------
Loading Hartree-Fock densities                     ... done
Calculating cut-offs                               ... done
Initializing the effective Hamiltonian             ... done
Setting up the integral package (SHARK)            ... done
Starting the Coulomb interaction                   ... done (   0.0 sec)
Making the grid                                    ... done (   0.0 sec)
Mapping shells                                     ... done
Starting the XC term evaluation                    ... done (   0.0 sec)
  promolecular density results
     # of electrons  =     18.999659774
     EX              =    -26.733579546
     EC              =      0.000000000
     EX+EC           =    -26.733579546
Transforming the Hamiltonian                       ... done (   0.0 sec)
Diagonalizing the Hamiltonian                      ... done (   0.0 sec)
Back transforming the eigenvectors                 ... done (   0.0 sec)
Now organizing SCF variables                       ... done
                      ------------------
                      INITIAL GUESS DONE (   0.1 sec)
                      ------------------
             **** ENERGY FILE WAS UPDATED (/cluster/projects/nn14654k/ylvaos/basis_set_n_funcs/functionals/gga_x_b88/LiS/inp/LiS_gga_x_b88_ccpvdz.en.tmp) ****
Finished Guess after   0.2 sec
Maximum memory used throughout the entire GUESS-calculation: 3.9 MB


           ************************************************************
           *        Program running with 8 parallel MPI-processes     *
           *              working on a common directory               *
           ************************************************************

-------------------------------------------------------------------------------------------
                                      ORCA LEAN-SCF
                              memory conserving SCF solver
-------------------------------------------------------------------------------------------

----------------------------------------D-I-I-S--------------------------------------------
Iteration    Energy (Eh)           Delta-E    RMSDP     MaxDP     DIISErr   Damp  Time(sec)
-------------------------------------------------------------------------------------------
               ***  Starting incremental Fock matrix formation  ***
    1    -404.9476714554867272     0.00e+00  9.66e-03  2.99e-02  5.47e-02  0.700   0.1
Warning: op=0 Small HOMO/LUMO gap (   0.043) - skipping pre-diagonalization
         Will do a full diagonalization
    2    -404.9624801355001864    -1.48e-02  8.39e-03  2.57e-02  3.02e-02  0.700   0.1
                               ***Turning on AO-DIIS***
    3    -404.9696645533947503    -7.18e-03  3.69e-03  9.23e-03  1.62e-02  0.700   0.1
    4    -404.9730631872810136    -3.40e-03  6.30e-03  1.55e-02  1.10e-02  0.000   0.1
    5    -404.9802926797030409    -7.23e-03  1.54e-03  3.42e-03  7.56e-03  0.000   0.2
    6    -404.9807292366522802    -4.37e-04  7.12e-04  1.75e-03  3.87e-03  0.000   0.1
                              *** Initializing SOSCF ***
---------------------------------------S-O-S-C-F--------------------------------------
Iteration    Energy (Eh)           Delta-E    RMSDP     MaxDP     MaxGrad    Time(sec)
--------------------------------------------------------------------------------------
    7    -404.9808415581876488    -1.12e-04  3.97e-04  9.89e-04  2.09e-03     0.1
               *** Restarting incremental Fock matrix formation ***
    8    -404.9808740383689951    -3.25e-05  7.14e-04  1.99e-03  1.24e-03     0.1
    9    -404.9808820722240625    -8.03e-06  4.31e-04  1.27e-03  1.04e-03     0.2
   10    -404.9808923348904841    -1.03e-05  9.52e-05  2.96e-04  1.15e-04     0.1
   11    -404.9808926389275143    -3.04e-07  7.50e-05  1.98e-04  5.54e-05     0.1
   12    -404.9808927449895464    -1.06e-07  2.58e-05  7.55e-05  3.00e-05     0.1
   13    -404.9808927561418272    -1.12e-08  7.38e-06  2.29e-05  1.10e-05     0.2
   14    -404.9808927581867124    -2.04e-09  1.79e-06  4.87e-06  2.20e-06     0.1
                 **** Energy Check signals convergence ****

               *****************************************************
               *                     SUCCESS                       *
               *           SCF CONVERGED AFTER  14 CYCLES          *
               *****************************************************

             **** ENERGY FILE WAS UPDATED (/cluster/projects/nn14654k/ylvaos/basis_set_n_funcs/functionals/gga_x_b88/LiS/inp/LiS_gga_x_b88_ccpvdz.en.tmp) ****

----------------
TOTAL SCF ENERGY
----------------

Total Energy       :       -404.98089275831586 Eh          -11020.09034 eV

Components:
Nuclear Repulsion  :         11.81583755798484 Eh             321.52529 eV
Electronic Energy  :       -416.79673031630068 Eh          -11341.61563 eV
One Electron Energy:       -584.13719199736170 Eh          -15895.18109 eV
Two Electron Energy:        167.34046168106102 Eh            4553.56546 eV

Virial components:
Potential Energy   :       -809.51229104067284 Eh          -22027.94932 eV
Kinetic Energy     :        404.53139828235692 Eh           11007.85898 eV
Virial Ratio       :          2.00111114854834

DFT components:
N(Alpha)           :        9.999994213483 electrons
N(Beta)            :        8.999992598772 electrons
N(Total)           :       18.999986812255 electrons
E(X)               :      -26.828842079262 Eh       
E(C)               :        0.000000000000 Eh       
E(XC)              :      -26.828842079262 Eh       

---------------
SCF CONVERGENCE
---------------

  Last Energy change         ...    2.0449e-09  Tolerance :   1.0000e-08
  Last MAX-Density change    ...    4.8658e-06  Tolerance :   1.0000e-07
  Last RMS-Density change    ...    1.7862e-06  Tolerance :   5.0000e-09
  Last DIIS Error            ...    2.0864e-03  Tolerance :   5.0000e-07
  Last Orbital Gradient      ...    2.2042e-06  Tolerance :   1.0000e-05
  Last Orbital Rotation      ...    1.5834e-05  Tolerance :   1.0000e-05


----------------------
UHF SPIN CONTAMINATION
----------------------

Warning: in a DFT calculation there is little theoretical justification to 
         calculate <S**2> as in Hartree-Fock theory. We will do it anyways
         but you should keep in mind that the values have only limited relevance

Expectation value of <S**2>     :     0.755709
Ideal value S*(S+1) for S=0.5   :     0.750000
Deviation                       :     0.005709

----------------
ORBITAL ENERGIES
----------------
                 SPIN UP ORBITALS
  NO   OCC          E(Eh)            E(eV) 
   0   1.0000     -88.037692     -2395.6274 
   1   1.0000      -7.581123      -206.2928 
   2   1.0000      -5.618662      -152.8916 
   3   1.0000      -5.602686      -152.4568 
   4   1.0000      -5.601906      -152.4356 
   5   1.0000      -1.868215       -50.8367 
   6   1.0000      -0.525618       -14.3028 
   7   1.0000      -0.190526        -5.1845 
   8   1.0000      -0.167132        -4.5479 
   9   1.0000      -0.144718        -3.9380 
  10   0.0000      -0.054461        -1.4820 
  11   0.0000      -0.000941        -0.0256 
  12   0.0000       0.004141         0.1127 
  13   0.0000       0.026853         0.7307 
  14   0.0000       0.080902         2.2015 
  15   0.0000       0.085550         2.3279 
  16   0.0000       0.088723         2.4143 
  17   0.0000       0.191542         5.2121 
  18   0.0000       0.230136         6.2623 
  19   0.0000       0.230358         6.2684 
  20   0.0000       0.259546         7.0626 

                 SPIN DOWN ORBITALS
  NO   OCC          E(Eh)            E(eV) 
   0   1.0000     -88.033451     -2395.5120 
   1   1.0000      -7.576050      -206.1548 
   2   1.0000      -5.605468      -152.5325 
   3   1.0000      -5.599488      -152.3698 
   4   1.0000      -5.598537      -152.3439 
   5   1.0000      -1.868398       -50.8417 
   6   1.0000      -0.481534       -13.1032 
   7   1.0000      -0.150675        -4.1001 
   8   1.0000      -0.128458        -3.4955 
   9   0.0000      -0.110911        -3.0180 
  10   0.0000      -0.056014        -1.5242 
  11   0.0000       0.001742         0.0474 
  12   0.0000       0.011807         0.3213 
  13   0.0000       0.031133         0.8472 
  14   0.0000       0.081679         2.2226 
  15   0.0000       0.088811         2.4167 
  16   0.0000       0.089481         2.4349 
  17   0.0000       0.194878         5.3029 
  18   0.0000       0.232253         6.3199 
  19   0.0000       0.235957         6.4207 
*Only the first 10 virtual orbitals were printed.

                    ********************************
                    * MULLIKEN POPULATION ANALYSIS *
                    ********************************

--------------------------------------------
MULLIKEN ATOMIC CHARGES AND SPIN POPULATIONS
--------------------------------------------
   0 Li:    0.209629   -0.002390
   1 S :   -0.209629    1.002390
Sum of atomic charges         :   -0.0000000
Sum of atomic spin populations:    1.0000000

-----------------------------------------------------
MULLIKEN REDUCED ORBITAL CHARGES AND SPIN POPULATIONS
-----------------------------------------------------
CHARGE
  0 Lis       :     2.255820  s :     2.255820
      pz      :     0.193663  p :     0.452828
      px      :     0.054195
      py      :     0.204970
      dz2     :     0.023615  d :     0.081723
      dxz     :     0.016987
      dyz     :     0.041023
      dx2y2   :     0.000097
      dxy     :     0.000001

  1 S s       :     5.878588  s :     5.878588
      pz      :     3.644229  p :    10.324825
      px      :     2.930221
      py      :     3.750375
      dz2     :     0.002978  d :     0.006216
      dxz     :     0.000732
      dyz     :     0.001496
      dx2y2   :     0.001002
      dxy     :     0.000009


SPIN
  0 Lis       :    -0.024964  s :    -0.024964
      pz      :    -0.012965  p :     0.010436
      px      :     0.053672
      py      :    -0.030271
      dz2     :    -0.002968  d :     0.012138
      dxz     :     0.016856
      dyz     :    -0.001786
      dx2y2   :     0.000035
      dxy     :     0.000000

  1 S s       :     0.021047  s :     0.021047
      pz      :     0.019172  p :     0.980015
      px      :     0.926608
      py      :     0.034235
      dz2     :    -0.000109  d :     0.001328
      dxz     :     0.000729
      dyz     :    -0.000043
      dx2y2   :     0.000745
      dxy     :     0.000006



                     *******************************
                     * LOEWDIN POPULATION ANALYSIS *
                     *******************************

-------------------------------------------
LOEWDIN ATOMIC CHARGES AND SPIN POPULATIONS
-------------------------------------------
   0 Li:   -0.116296    0.070679
   1 S :    0.116296    0.929321

----------------------------------------------------
LOEWDIN REDUCED ORBITAL CHARGES AND SPIN POPULATIONS
----------------------------------------------------
CHARGE
  0 Lis       :     2.256185  s :     2.256185
      pz      :     0.282139  p :     0.586940
      px      :     0.070666
      py      :     0.234135
      dz2     :     0.125203  d :     0.273171
      dxz     :     0.049588
      dyz     :     0.098280
      dx2y2   :     0.000099
      dxy     :     0.000001

  1 S s       :     5.594673  s :     5.594673
      pz      :     3.736327  p :    10.282559
      px      :     2.881576
      py      :     3.664656
      dz2     :     0.004366  d :     0.006472
      dxz     :     0.000305
      dyz     :     0.000793
      dx2y2   :     0.000999
      dxy     :     0.000009


SPIN
  0 Lis       :    -0.016705  s :    -0.016705
      pz      :    -0.004726  p :     0.036683
      px      :     0.070094
      py      :    -0.028685
      dz2     :     0.000793  d :     0.050701
      dxz     :     0.049120
      dyz     :     0.000750
      dx2y2   :     0.000037
      dxy     :     0.000000

  1 S s       :     0.006903  s :     0.006903
      pz      :     0.012856  p :     0.921361
      px      :     0.878347
      py      :     0.030157
      dz2     :     0.000092  d :     0.001057
      dxz     :     0.000303
      dyz     :    -0.000087
      dx2y2   :     0.000743
      dxy     :     0.000006



                      *****************************
                      * MAYER POPULATION ANALYSIS *
                      *****************************

  NA   - Mulliken gross atomic population
  ZA   - Total nuclear charge
  QA   - Mulliken gross atomic charge
  VA   - Mayer's total valence
  BVA  - Mayer's bonded valence
  FA   - Mayer's free valence

  ATOM       NA         ZA         QA         VA         BVA        FA
  0 Li     2.7904     3.0000     0.2096     1.3294     1.3220     0.0075
  1 S     16.2096    16.0000    -0.2096     2.1920     1.3220     0.8700

  Mayer bond orders larger than 0.100000
B(  0-Li,  1-S ) :   1.3220 

-------
TIMINGS
-------

Total SCF time: 0 days 0 hours 0 min 1 sec 

Total time                  ....       1.985 sec
Sum of individual times     ....       1.870 sec  ( 94.2%)

SCF preparation             ....       0.065 sec  (  3.3%)
Fock matrix formation       ....       1.058 sec  ( 53.3%)
  Startup                   ....       0.027 sec  (  2.6% of F)
  Coulomb formation         ....       0.054 sec  (  5.1% of F)
  XC integration            ....       0.481 sec  ( 45.5% of F)
    XC Preparation          ....       0.000 sec  (  0.0% of XC)
    Basis function eval.    ....       0.016 sec  (  3.4% of XC)
    Density eval.           ....       0.006 sec  (  1.2% of XC)
    XC-Functional eval.     ....       0.009 sec  (  1.8% of XC)
    XC-Potential eval.      ....       0.009 sec  (  1.9% of XC)
Diagonalization             ....       0.000 sec  (  0.0%)
Density matrix formation    ....       0.175 sec  (  8.8%)
Total Energy calculation    ....       0.033 sec  (  1.6%)
Population analysis         ....       0.015 sec  (  0.8%)
Orbital Transformation      ....       0.022 sec  (  1.1%)
Orbital Orthonormalization  ....       0.000 sec  (  0.0%)
DIIS solution               ....       0.241 sec  ( 12.1%)
SOSCF solution              ....       0.260 sec  ( 13.1%)
Finished LeanSCF after   2.0 sec

Maximum memory used throughout the entire LEANSCF-calculation: 5.9 MB


           ************************************************************
           *        Program running with 8 parallel MPI-processes     *
           *              working on a common directory               *
           ************************************************************

------------------------------------------------------------------------------
                         ORCA PROPERTY INTEGRAL CALCULATIONS
------------------------------------------------------------------------------

GBWName                                   ... /cluster/projects/nn14654k/ylvaos/basis_set_n_funcs/functionals/gga_x_b88/LiS/inp/LiS_gga_x_b88_ccpvdz.gbw
Number of atoms                           ...      2
Number of basis functions                 ...     61
Max core memory                           ...   4096 MB

Dipole integrals                          ... YES
Quadrupole integrals                      ... YES
Linear momentum integrals                 ...  NO
Angular momentum integrals                ...  NO
Higher moments length integrals           ...  NO
Higher moments velocity integrals         ...  NO
Kinetic energy integrals                  ...  NO
GIAO right hand sides                     ...  NO
GIAO dipole derivative integrals          ...  NO
SOC integrals                             ...  NO
EPR diamagnetic integrals (GIAO)          ...  NO
EPR gauge integrals                       ...  NO
Field gradient integrals                  ...  NO (   0 nuclei)
Spin-dipole/Fermi contact integrals       ...  NO (   0 nuclei)
Contact density integrals                 ...  NO (   0 nuclei)
Nucleus-orbit integrals                   ...  NO (   0 nuclei)
Geometric perturbations                   ...  NO (   2 nuclei)

Choice of electric origin   ... Center of mass
Position of electric origin ... (  0.0000,  0.0000,  1.3082) 
Choice of magnetic origin   ... GIAO
Position of magnetic origin ... (  0.0000,  0.0000,  0.0000) 

Calculating integrals                     ... Electric Dipole (Length)     done (  0.0 sec)
Calculating integrals                     ... Electric Quadrupole (Length) done (  0.0 sec)

Property integrals calculated in   0.0 sec

Maximum memory used throughout the entire PROPINT-calculation: 4.1 MB
------------------------------------------------------------------------------
                           ORCA ORBITAL LOCALIZATION
------------------------------------------------------------------------------

Input orbitals are from                  ... /cluster/projects/nn14654k/ylvaos/basis_set_n_funcs/functionals/gga_x_b88/LiS/inp/LiS_gga_x_b88_ccpvdz.gbw
Output orbitals are to                   ... /cluster/projects/nn14654k/ylvaos/basis_set_n_funcs/functionals/gga_x_b88/LiS/inp/LiS_gga_x_b88_ccpvdz.loc
Max. number of iterations                ... 128
Localizations seeded randomly            ... on
Convergence tolerance                    ... 1.000e-06
Threshold for strong local MOs           ... 9.500e-01
Threshold for bond MOs                   ... 8.500e-01
Operator                                 ... 0
Orbital range for localization           ... 5 to 9
Localization criterion                   ... NEW-BOYS
Doing the dipole integrals               ... o.k.
Initial value of the localization sum :    12.300583
ITERATION   0 : L=   15.7024417998 DL=  3.40e+00 (AVERGE_DL)=    0.5832545799 
ITERATION   1 : L=   15.8110119470 DL=  1.09e-01 (AVERGE_DL)=    0.1041969996 
ITERATION   2 : L=   15.8542423268 DL=  4.32e-02 (AVERGE_DL)=    0.0657498135 
ITERATION   3 : L=   15.8618353650 DL=  7.59e-03 (AVERGE_DL)=    0.0275554680 
ITERATION   4 : L=   15.8643351768 DL=  2.50e-03 (AVERGE_DL)=    0.0158107932 
ITERATION   5 : L=   15.8655438805 DL=  1.21e-03 (AVERGE_DL)=    0.0109941064 
ITERATION   6 : L=   15.8662871479 DL=  7.43e-04 (AVERGE_DL)=    0.0086212955 
ITERATION   7 : L=   15.8667607648 DL=  4.74e-04 (AVERGE_DL)=    0.0068819830 
ITERATION   8 : L=   15.8670545564 DL=  2.94e-04 (AVERGE_DL)=    0.0054202549 
ITERATION   9 : L=   15.8672320557 DL=  1.77e-04 (AVERGE_DL)=    0.0042130663 
ITERATION  10 : L=   15.8673377389 DL=  1.06e-04 (AVERGE_DL)=    0.0032508955 
ITERATION  11 : L=   15.8674007965 DL=  6.31e-05 (AVERGE_DL)=    0.0025111271 
ITERATION  12 : L=   15.8674392528 DL=  3.85e-05 (AVERGE_DL)=    0.0019610287 
ITERATION  13 : L=   15.8674637746 DL=  2.45e-05 (AVERGE_DL)=    0.0015659439 
ITERATION  14 : L=   15.8674804823 DL=  1.67e-05 (AVERGE_DL)=    0.0012925790 
ITERATION  15 : L=   15.8674928044 DL=  1.23e-05 (AVERGE_DL)=    0.0011100497 
ITERATION  16 : L=   15.8675026220 DL=  9.82e-06 (AVERGE_DL)=    0.0009908411 
ITERATION  17 : L=   15.8675109481 DL=  8.33e-06 (AVERGE_DL)=    0.0009124724 
ITERATION  18 : L=   15.8675183150 DL=  7.37e-06 (AVERGE_DL)=    0.0008583097 
ITERATION  19 : L=   15.8675249992 DL=  6.68e-06 (AVERGE_DL)=    0.0008175695 
ITERATION  20 : L=   15.8675311412 DL=  6.14e-06 (AVERGE_DL)=    0.0007837077 
ITERATION  21 : L=   15.8675368136 DL=  5.67e-06 (AVERGE_DL)=    0.0007531525 
ITERATION  22 : L=   15.8675420567 DL=  5.24e-06 (AVERGE_DL)=    0.0007240902 
ITERATION  23 : L=   15.8675468960 DL=  4.84e-06 (AVERGE_DL)=    0.0006956527 
ITERATION  24 : L=   15.8675513523 DL=  4.46e-06 (AVERGE_DL)=    0.0006675598 
ITERATION  25 : L=   15.8675554453 DL=  4.09e-06 (AVERGE_DL)=    0.0006397602 
ITERATION  26 : L=   15.8675591951 DL=  3.75e-06 (AVERGE_DL)=    0.0006123548 
ITERATION  27 : L=   15.8675626218 DL=  3.43e-06 (AVERGE_DL)=    0.0005853850 
ITERATION  28 : L=   15.8675657470 DL=  3.13e-06 (AVERGE_DL)=    0.0005590335 
ITERATION  29 : L=   15.8675685920 DL=  2.84e-06 (AVERGE_DL)=    0.0005333848 
ITERATION  30 : L=   15.8675711779 DL=  2.59e-06 (AVERGE_DL)=    0.0005085176 
ITERATION  31 : L=   15.8675735253 DL=  2.35e-06 (AVERGE_DL)=    0.0004844992 
ITERATION  32 : L=   15.8675756542 DL=  2.13e-06 (AVERGE_DL)=    0.0004614039 
ITERATION  33 : L=   15.8675775803 DL=  1.93e-06 (AVERGE_DL)=    0.0004388664 
ITERATION  34 : L=   15.8675793258 DL=  1.75e-06 (AVERGE_DL)=    0.0004177967 
ITERATION  35 : L=   15.8675809052 DL=  1.58e-06 (AVERGE_DL)=    0.0003974135 
ITERATION  36 : L=   15.8675823330 DL=  1.43e-06 (AVERGE_DL)=    0.0003778675 
ITERATION  37 : L=   15.8675836233 DL=  1.29e-06 (AVERGE_DL)=    0.0003592116 
ITERATION  38 : L=   15.8675847890 DL=  1.17e-06 (AVERGE_DL)=    0.0003414097 
ITERATION  39 : L=   15.8675858416 DL=  1.05e-06 (AVERGE_DL)=    0.0003244520 
ITERATION  40 : L=   15.8675867920 DL=  9.50e-07 (AVERGE_DL)=    0.0003082859 
LOCALIZATION SUM CONVERGED


--------------------------------------------------------------------------------
                    LOCALIZED MOLECULAR ORBITAL COMPOSITIONS
--------------------------------------------------------------------------------

The Mulliken populations for each LMO on each atom are computed
The LMO`s will be ordered according to atom index and type
  (A) Strongly localized MO`s have populations of >=0.950 on one atom
  (B) Two center bond orbitals have populations of >=0.850 on two atoms
  (C) Other MO`s are considered to be `delocalized`

FOUND  -   2 strongly local MO`s
       -   3 two center bond MO`s
       -   0 significantly delocalized MO`s

Rather strongly localized orbitals:
MO   6:   1S  -   0.964795
MO   5:   0Li -   1.000974
Bond-like localized orbitals:
MO   9:   1S  -   0.866129  and   0Li -   0.133871
MO   8:   1S  -   0.913778  and   0Li -   0.086222
MO   7:   1S  -   0.865613  and   0Li -   0.134387
Localized MO's were stored in: /cluster/projects/nn14654k/ylvaos/basis_set_n_funcs/functionals/gga_x_b88/LiS/inp/LiS_gga_x_b88_ccpvdz.loc
------------------------------------------------------------------------------
                           ORCA ORBITAL LOCALIZATION
------------------------------------------------------------------------------

Input orbitals are from                  ... /cluster/projects/nn14654k/ylvaos/basis_set_n_funcs/functionals/gga_x_b88/LiS/inp/LiS_gga_x_b88_ccpvdz.loc
Output orbitals are to                   ... /cluster/projects/nn14654k/ylvaos/basis_set_n_funcs/functionals/gga_x_b88/LiS/inp/LiS_gga_x_b88_ccpvdz.loc
Max. number of iterations                ... 128
Localizations seeded randomly            ... on
Convergence tolerance                    ... 1.000e-06
Threshold for strong local MOs           ... 9.500e-01
Threshold for bond MOs                   ... 8.500e-01
Operator                                 ... 1
Orbital range for localization           ... 5 to 8
Localization criterion                   ... NEW-BOYS
Doing the dipole integrals               ... o.k.
Initial value of the localization sum :    11.923371
ITERATION   0 : L=   14.4893442732 DL=  2.57e+00 (AVERGE_DL)=    0.6539588376 
ITERATION   1 : L=   14.5621441856 DL=  7.28e-02 (AVERGE_DL)=    0.1101513447 
ITERATION   2 : L=   14.8810145375 DL=  3.19e-01 (AVERGE_DL)=    0.2305321206 
ITERATION   3 : L=   15.2538911697 DL=  3.73e-01 (AVERGE_DL)=    0.2492912060 
ITERATION   4 : L=   15.3526858535 DL=  9.88e-02 (AVERGE_DL)=    0.1283190580 
ITERATION   5 : L=   15.3705934071 DL=  1.79e-02 (AVERGE_DL)=    0.0546314219 
ITERATION   6 : L=   15.3738560812 DL=  3.26e-03 (AVERGE_DL)=    0.0233190698 
ITERATION   7 : L=   15.3744644768 DL=  6.08e-04 (AVERGE_DL)=    0.0100697206 
ITERATION   8 : L=   15.3745794811 DL=  1.15e-04 (AVERGE_DL)=    0.0043780555 
ITERATION   9 : L=   15.3746013612 DL=  2.19e-05 (AVERGE_DL)=    0.0019096307 
ITERATION  10 : L=   15.3746055363 DL=  4.18e-06 (AVERGE_DL)=    0.0008341773 
ITERATION  11 : L=   15.3746063339 DL=  7.98e-07 (AVERGE_DL)=    0.0003645973 
LOCALIZATION SUM CONVERGED


--------------------------------------------------------------------------------
                    LOCALIZED MOLECULAR ORBITAL COMPOSITIONS
--------------------------------------------------------------------------------

The Mulliken populations for each LMO on each atom are computed
The LMO`s will be ordered according to atom index and type
  (A) Strongly localized MO`s have populations of >=0.950 on one atom
  (B) Two center bond orbitals have populations of >=0.850 on two atoms
  (C) Other MO`s are considered to be `delocalized`

FOUND  -   2 strongly local MO`s
       -   2 two center bond MO`s
       -   0 significantly delocalized MO`s

Rather strongly localized orbitals:
MO   6:   1S  -   0.973587
MO   5:   0Li -   1.000952
Bond-like localized orbitals:
MO   8:   1S  -   0.817123  and   0Li -   0.182877
MO   7:   1S  -   0.817064  and   0Li -   0.182936
Localized MO's were stored in: /cluster/projects/nn14654k/ylvaos/basis_set_n_funcs/functionals/gga_x_b88/LiS/inp/LiS_gga_x_b88_ccpvdz.loc

-------------------------   --------------------
FINAL SINGLE POINT ENERGY      -404.980892758316
-------------------------   --------------------



           ************************************************************
           *        Program running with 8 parallel MPI-processes     *
           *              working on a common directory               *
           ************************************************************

------------------------------------------------------------------------------
                              ORCA PROPERTY CALCULATIONS
------------------------------------------------------------------------------

GBWName                                 ... /cluster/projects/nn14654k/ylvaos/basis_set_n_funcs/functionals/gga_x_b88/LiS/inp/LiS_gga_x_b88_ccpvdz.gbw
Number of atoms                         ...      2
Number of basis functions               ...     61
Max core memory                         ...   4096 MB

Electric properties:
Dipole moment                           ... YES
Quadrupole moment                       ... YES
Static polarizability (Dipole/Dipole)   ...  NO
Static polarizability (Dipole/Quad.)    ...  NO
Static polarizability (Quad./Quad.)     ...  NO
Static polarizability (Velocity)        ...  NO
Static hyperpolarizability              ...  NO

Atomic electric properties:
Dipole moment                           ...  NO
Quadrupole moment                       ...  NO
Static polarizability                   ...  NO

Choice of electric origin               ... Center of mass
Position of electric origin             ...     0.000000     0.000000     1.308198

General magnetic properties:
Magnetizability                         ...  NO

EPR properties:
g-Tensor (aka g-matrix)                 ...  NO
Zero-Field splitting spin-orbit         ...  NO
Zero-field splitting spin-spin          ...  NO
Hyperfine couplings                     ...  NO (   0 nuclei)
Quadrupole couplings                    ...  NO (   0 nuclei)
Contact density                         ...  NO (   0 nuclei)

NMR properties:
Chemical shifts                         ...  NO (   0 nuclei)
Spin-rotation constants                 ...  NO (   0 nuclei)
Spin-spin couplings                     ...  NO (   0 nuclei,    0 pairs)

Choice of magnetic origin               ... GIAO
Position of magnetic origin             ...     0.000000     0.000000     0.000000

Properties with geometric perturbations:
SCF Hessian                             ...  NO
IR spectrum                             ...  NO
VCD spectrum                            ...  NO
X-ray spectroscopy properties:
SCF XES/XAS/RIXS spectra                ...  NO

SCF SOC stabilization energy            ...  NO
Diagonal Born-Oppenheimer correction    ...  NO

-------------
DIPOLE MOMENT
-------------

Method             : SCF
Type of density    : Electron Density
Multiplicity       :   2
Irrep              :   0
Energy             :  -404.9808927583158606 Eh
Basis              : AO
                                X                 Y                 Z
Electronic contribution:      0.000000000      -0.000000002      -3.941624824
Nuclear contribution   :      0.000000000       0.000000000       1.549484202
                        -----------------------------------------
Total Dipole Moment    :      0.000000000      -0.000000002      -2.392140622
                        -----------------------------------------
Magnitude (a.u.)       :      2.392140622
Magnitude (Debye)      :      6.080338248



--------------------
Rotational spectrum 
--------------------
 
Rotational constants in cm-1:             0.000000             0.639339             0.639339 
Rotational constants in MHz :             0.000000         19166.891897         19166.891897 

Dipole components along the rotational axes: 
x,y,z [a.u.] :    -2.392141    -0.000000     0.000000 
x,y,z [Debye]:    -6.080338    -0.000000     0.000000 

 

Dipole moment calculation done in   0.0 sec 

-----------------
QUADRUPOLE MOMENT
-----------------

Method             : SCF
Type of density    : Electron Density
Multiplicity       :   2
Irrep              :   0
Energy             :  -404.9808927583158606 Eh
Basis              : AO

                XX              YY              ZZ              XY              XZ              YZ
  NUC        0.000000000     0.000000000    41.817245673     0.000000000     0.000000000     0.000000000
  EL       -12.097463244   -14.947051545   -46.014784285     0.132115262     0.000000001     0.000000004
  TOT      -12.097463244   -14.947051545    -4.197538612     0.132115262     0.000000001     0.000000004 (a.u.)
           -16.271501797   -20.104295517    -5.645832988     0.177699546     0.000000001     0.000000005 (Buckingham)

diagonalized tensor:
           -14.953163686   -12.091351104    -4.197538612 (a.u.)
           -20.112516555   -16.263280758    -5.645832988 (Buckingham)
           -18.315919364    -6.768211973    25.084131337 (traceless form in Buckingham)

             0.046214267    -0.998931550     0.000000000
            -0.998931550    -0.046214267     0.000000000
             0.000000000     0.000000000     1.000000000
        
Isotropic quadrupole :   -10.414017800

Quadrupole moment calculation done in   0.0 sec (  0.0 sec for integrals)

Maximum memory used throughout the entire PROP-calculation: 1.8 MB

--------------------------------
SUGGESTED CITATIONS FOR THIS RUN
--------------------------------

Below you find a list of papers that are relevant to this ORCA run
We neither can nor want to force you to cite these papers, but we appreciate if you do
You receive ORCA, which is the product of decades of hard work by many enthusiastic individuals, for free
The only thing we kindly ask in return is that you cite our papers,
We deeply appreciate it, if you show your appreciation for ORCA by not just citing the generic ORCA reference.

Please note that relegating all ORCA citations to the supporting information does *not* help us.
SI sections are not indexed - citations you put there will not count into any citation statistics
But we need these citations in order to attract the funding resources that allow us to do what we are doing

Therefore, if you are a happy ORCA user, please consider citing a few of the papers listed below in the main body of your paper

In addition to the list printed below, the program has created the file /cluster/projects/nn14654k/ylvaos/basis_set_n_funcs/functionals/gga_x_b88/LiS/inp/LiS_gga_x_b88_ccpvdz.bibtex that contains the list in bibtex format
You can import this file easily into all common literature databanks and citation aid programs

It goes without saying that in many instances, there are alternative algorithms to achieve similar
results as the ones you have gotten from ORCA. It is, of course, also the case that in some instances
ORCA just re-implements algorithms worked out by others. We are fully aware of that and we are also
fully appreciative of our colleagues work. Hence this citation list should not be read as indicating
that the listed papers, which are focused on our own work, are the only ones worth citing. It simply
meant to make it easier for users to cite ORCA specific papers. It is not a substitute for doing your
own literature research and citing the relevant literature in a scientifically appropriate manner.

List of essential papers. We consider these as the minimum necessary citations

  1. Neese, F.
     Software update: the ORCA program system, version 6.0
     WIRES Comput. Molec. Sci. 2025 15(1), e70019
     doi.org/10.1002/wcms.70019

List of papers to cite with high priority. The work reported in these papers was absolutely
necessary for this run to complete.
Our perspective: the developers of density functionals and basis sets usually get cited in chemistry papers
Good! But without the algorithms to do something with them, the functionals or basis sets would not do anything.
Hence, in our opinion, the algorithm design and method developments papers are equally worthy of getting cited

  1. Lehtola, S.; Steigemann, C.; Oliveira, M.; Marques, M.
     Recent developments in Libxc - A comprehensive library of functionals for density functional theory
     Software X 2018 7 , 
     doi.org/10.1016/j.softx.2017.11.002
  2. Neese, F.
     The SHARK Integral Generation and Digestion System
     J. Comp. Chem. 2022 44(3), 381
     doi.org/10.1002/jcc.26942

List of suggested additional citations. These are papers that are important in the 'surrounding' of 
of this run, or papers that preceded the highly important papers. If you like your results we are grateful for a citation.

  1. Neese, F.
     The ORCA program system
     WIRES Comput. Molec. Sci. 2012 2(1), 73-78
     doi.org/10.1002/wcms.81
  2. Neese, F.
     Software update: the ORCA program system, version 4.0
     WIRES Comput. Molec. Sci. 2018 8(1), 1-6
     doi.org/10.1002/wcms.1327
  3. Neese, F.; Wennmohs, F.; Becker, U.; Riplinger, C.
     The ORCA quantum chemistry program package
     J. Chem. Phys. 2020 152(22), 224108
     doi.org/10.1063/5.0004608
  4. Neese, F.
     Software update: The ORCA program system—Version 5.0
     WIRES Comput. Molec. Sci. 2022 12(1), e1606
     doi.org/10.1002/wcms.1606

List of optional additional citations

  1. Neese, F.
     Approximate second-order SCF convergence for spin unrestricted wavefunctions
     Chem. Phys. Lett. 2000 325(1-3), 93-98
     doi.org/10.1016/s0009-2614(00)00662-x

Timings for individual modules:

Sum of individual times          ...        4.716 sec (=   0.079 min)
Startup calculation              ...        1.441 sec (=   0.024 min)  30.6 %
SCF iterations                   ...        2.644 sec (=   0.044 min)  56.1 %
Property integrals               ...        0.332 sec (=   0.006 min)   7.0 %
Property calculations            ...        0.291 sec (=   0.005 min)   6.2 %
Orbital localization             ...        0.008 sec (=   0.000 min)   0.2 %
                             ****ORCA TERMINATED NORMALLY****
TOTAL RUN TIME: 0 days 0 hours 0 minutes 5 seconds 711 msec
