
                                 *****************
                                 * O   R   C   A *
                                 *****************

                                            #,                                       
                                            ###                                      
                                            ####                                     
                                            #####                                    
                                            ######                                   
                                           ########,                                 
                                     ,,################,,,,,                         
                               ,,#################################,,                 
                          ,,##########################################,,             
                       ,#########################################, ''#####,          
                    ,#############################################,,   '####,        
                  ,##################################################,,,,####,       
                ,###########''''           ''''###############################       
              ,#####''   ,,,,##########,,,,          '''####'''          '####       
            ,##' ,,,,###########################,,,                        '##       
           ' ,,###''''                  '''############,,,                           
         ,,##''                                '''############,,,,        ,,,,,,###''
      ,#''                                            '''#######################'''  
     '                                                          ''''####''''         
             ,#######,   #######,   ,#######,      ##                                
            ,#'     '#,  ##    ##  ,#'     '#,    #''#        ,####,    ,#,          
            ##       ##  ##   ,#'  ##            #'  '#       #'       ,# #          
            ##       ##  #######   ##           ,######,      #####,      #          
            '#,     ,#'  ##    ##  '#,     ,#' ,#      #,     #,   #      #          
             '#######'   ##     ##  '#######'  #'      '#     '####' #    #          



                #########################################################
                #                        -***-                          #
                #          Department of theory and spectroscopy        #
                #                                                       #
                #                      Frank Neese                      #
                #                                                       #
                #     Directorship, Architecture, Infrastructure        #
                #                    SHARK, DRIVERS                     #
                #        Core code/Algorithms in most modules           #
                #                                                       #
                #        Max Planck Institute fuer Kohlenforschung      #
                #                Kaiser Wilhelm Platz 1                 #
                #                 D-45470 Muelheim/Ruhr                 #
                #                      Germany                          #
                #                                                       #
                #                  All rights reserved                  #
                #                        -***-                          #
                #########################################################


                         Program Version 6.1.1  -  RELEASE   -
                                (GIT: $487d211c$)
                          ($2025-11-21 10:33:24 +0100$)


 With contributions from (in alphabetic order):
[Max-Planck-Institut fuer Kohlenforschung]                               
  Daniel Aravena         : Magnetic Suceptibility                        
  Michael Atanasov       : Ab Initio Ligand Field Theory (pilot matlab implementation)
  Alexander A. Auer      : GIAO ZORA, VPT2 properties, NMR spectrum      
  Ute Becker             : All parallelization in ORCA, NUMFREQ, NUMCALC 
  Giovanni Bistoni       : ED, misc. LED, open-shell LED, HFLD           
  Dmytro Bykov           : pre 5.0 version of the SCF Hessian            
  Marcos Casanova-Páez   : Triplet and SCS-CIS(D). UHF-(DLPNO)-IP/EA/STEOM-CCSD. UHF-CVS-IP/STEOM-CCSD   
  Vijay G. Chilkuri      : MRCI spin determinant printing, contributions to CSF-ICE 
  Pauline Colinet        : FMM embedding                                 
  Dipayan Datta          : RHF DLPNO-CCSD density                        
  Achintya Kumar Dutta   : EOM-CC, STEOM-CC                              
  Nicolas Foglia         : Exact transition moments, OPA infrastructure, MCD improvements    
  Dmitry Ganyushin       : Spin-Orbit,Spin-Spin,Magnetic field MRCI      
  Miquel Garcia-Rates    : C-PCM and meta-GGA Hessian, CCSD/C-PCM, Gaussian charge scheme 
  Tiago L. C. Gouveia    : GS-ROHF, GS-ROCIS                             
  Yang Guo               : DLPNO-NEVPT2, F12-NEVPT2, CIM, IAO-localization        
  Andreas Hansen         : Spin unrestricted coupled pair/coupled cluster methods 
  Ingolf Harden          : AUTO-CI MPn and infrastructure                
  Benjamin Helmich-Paris : MC-RPA, TRAH-(SCF,CASSCF), AVAS, COSX integrals, SCF dyn. polar., MC-PDFT, srDFT 
  Lee Huntington         : MR-EOM, pCC                                   
  Robert Izsak           : Overlap fitted RIJCOSX, COSX-SCS-MP3, EOM     
  Riya Kayal             : Wick's Theorem for AUTO-CI, AUTO-CI UHF-CCSDT 
  Emily Kempfer          : AUTO-CI RHF CISDT and CCSDT, approximate NEVPT4
  Christian Kollmar      : KDIIS, OOCD, Brueckner-CCSD(T), CCSD density, CASPT2, CASPT2-K, improved NEVPT2 
  Axel Koslowski         : Symmetry handling                             
  Simone Kossmann        : meta-GGA functionals, TD-DFT gradient, OOMP2, (MP2 Hessian; deprecated post 5.0) 
  Lucas Lang             : DCDCAS, Hyperfine gauge corrections, ICE-SOC+SSC
  Marvin Lechner         : AUTO-CI (C++ implementation), FIC-MRCC        
  Spencer Leger          : CASSCF response                               
  Dagmar Lenk            : GEPOL surface, SMD, ORCA-2-JSON               
  Dimitrios Liakos       : Extrapolation schemes; Compound Job, Property file
  Dimitrios Manganas     : Further ROCIS development; embedding schemes. LFT, Crystal Embedding 
  Dimitrios Pantazis     : SARC Basis sets                               
  Anastasios Papadopoulos: AUTO-CI, single reference methods and gradients 
  Taras Petrenko         : pre 6.0 DFT Hessian and TD-DFT gradient,  ECA, NRVS 
  Petra Pikulova         : Analytic Raman intensities                    
  Peter Pinski           : DLPNO-MP2, DLPNO-MP2 Gradient                 
  Shashank Vittal Rao    : ES-AILFT, MagRelax                            
  Christoph Reimann      : Effective Core Potentials                     
  Marius Retegan         : Local ZFS, SOC                                
  Christoph Riplinger    : Optimizer, TS searches, QM/MM, DLPNO-CCSD(T), (RO)-DLPNO pert. Triples 
  Michael Roemelt        : Original ROCIS implementation, recursive CI coupling coefficients
  Masaaki Saitow         : Open-shell DLPNO-CCSD energy and density      
  Barbara Sandhoefer     : DKH picture change effects                    
  Yorick L. A. Schmerwitz: GMF and freeze-and-release deltaSCF, NEB S-IDPP initial path                    
  Kantharuban Sivalingam : CASSCF convergence/infrastructure, NEVPT2, NEVPT3, NEVPT4(SD), FIC-MRCI and CEPA variants
  Bernardo de Souza      : ESD, SOC TD-DFT                               
  Georgi L. Stoychev     : AutoAux, RI-MP2 NMR, DLPNO-MP2 response, X2C  
  Van Anh Tran           : RI-MP2 g-tensors                              
  Willem Van den Heuvel  : Paramagnetic NMR                              
  Zikuan Wang            : NOTCH, Electric field optimization            
  Frank Wennmohs         : Technical directorship and infrastructure     
  Hang Xu                : AUTO-CI-Response properties                   
                                                                         
[FACCTs GmbH]                                                            
  Markus Bursch, Nicolas Foglia, Miquel Garcia-Rates, Ingolf Harden, Hagen Neugebauer, Anastasios Papadopoulos, 
  Christoph Riplinger, Bernardo de Souza, Georgi L. Stoychev                                                    
                                                                 
  APM, various basis sets, CI-OPT, improved COSX, DLPNO-Multilevel,           
  DOCKER, DRACO, updates on ESD, Fragmentator, GOAT, IRC, LR-CPCM, L-BFGS, MBIS, meta-GGA TD-DFT gradient, ML-optimized integration grids, 
  MM, NACMEs, nearIR, NEB, NEB-TS, NL-DFT gradient (VV10), 2- and 3-layer-ONIOM, interface openCOSMO-RS, QMMM,   
  Crystal-QMMM, RESP, rigid body optimization, SF, symmetry and pop. for TD-DFT, various functionals, SOLVATOR                                   
                                                                         
[Other institutions]                                                     
  V. Asgeirsson          : NEB                                           
  Christoph Bannwarth    : sTDA-DFT, sTD-DFT, PBEh-3c, B97-3c, D3        
  Giovanni Bistoni       : ETS/NOCV, ADLD/ADEX, COVALED                  
  Martin Brehm           : Molecular dynamics                            
  Ronald Cardenas        : ETS/NOCV                                      
  Martina Colucci        : COVALED                                       
  Sebastian Ehlert       : rSCAN, r2SCAN, r2SCAN-3c, D4, dhf basis sets  
  Marvin Friede          : D4 for Fr, Ra, Ac-Lr                          
  Lars Goerigk           : TD-DFT with DH, B97 family of functionals     
  Stefan Grimme          : VdW corrections, initial TS optimization, DFT functionals, gCP, sTDA/sTD-DF 
  Waldemar Hujo          : DFT-NL                                        
  H. Jonsson             : NEB                                           
  Holger Kruse           : gCP                                           
  Marcel Mueller         : wB97X-3c, vDZP basis set                      
  Hagen Neugebauer       : wr2SCAN, Native XTB                           
  Gianluca Regni         : ADLD/ADEX                                     
  Tobias Risthaus        : pre 6.0 range-separated hybrid DFT and stability analysis
  Lukas Wittmann         : regularized MP2, r2SCAN double-hybrids, wr2SCAN        
                                                                         
We gratefully acknowledge several colleagues who have allowed us to      
interface, adapt or use parts of their codes:                            
  Ed Valeev, F. Pavosevic, A. Kumar             : LibInt (2-el integral package), F12 methods 
  Garnet Chan, S. Sharma, J. Yang, R. Olivares  : DMRG                   
  Ulf Ekstrom                                   : XCFun DFT Library      
  Mihaly Kallay                                 : mrcc  (arbitrary order and MRCC methods)
  Frank Weinhold                                : gennbo (NPA and NBO analysis)           
  Simon Mueller                                 : openCOSMO-RS                            
  Christopher J. Cramer and Donald G. Truhlar   : smd solvation model                     
  S Lehtola, MJT Oliveira, MAL Marques          : LibXC Library                           
  Liviu Ungur et al                             : ANISO software                          


 Your calculation uses the libint2 library for the computation of 2-el integrals
 For citations please refer to: http://libint.valeyev.net

 Your ORCA version has been built with support for libXC version: 7.0.0
 For citations please refer to: https://libxc.gitlab.io

 This ORCA versions uses:
   CBLAS   interface :  Fast vector & matrix operations
   LAPACKE interface :  Fast linear algebra routines
   SCALAPACK package :  Parallel linear algebra routines
   Shared memory     :  Shared parallel matrices
   BLAS/LAPACK       :  OpenBLAS 0.3.29  USE64BITINT DYNAMIC_ARCH NO_AFFINITY Cooperlake SINGLE_THREADED
        Core in use  :  Cooperlake
   Copyright (c) 2011-2014, The OpenBLAS Project


  ***********************************
  * Starting time: Wed May 20 12:36:04 2026
  * Host name:     c1-40
  * Process ID:    644562
  * Working dir.:  /cluster/projects/nn14654k/ylvaos/basis_set_n_funcs/functionals/gga_x_b88/LiS/out
  ***********************************

Using LibXC functional ID 106 : Becke 88
[ 1]  A. D. Becke.,  Phys. Rev. A 38, 3098 (1988)
Using LibXC functional ID 106 : Becke 88
[ 1]  A. D. Becke.,  Phys. Rev. A 38, 3098 (1988)
Your calculation utilizes LibXC
by S. Lehtola, C. Steigemann, M. J. T. Oliveira & M. A. L. Marques
Please cite in your paper:
Lehtola, S.; Steigemann, C.; Oliveira, M.J.T.; Marques, M. A. L. Software X, 7, (2018), 1.
   

================================================================================

----- Orbital basis set information -----
Your calculation utilizes the basis: aug-cc-pVTZ 
    H, B-Ne : Obtained from the ccRepo (grant-hill.group.shef.ac.uk/ccrepo) Feb. 2017
              R. A. Kendall, T. H. Dunning, Jr., R. J. Harrison, J. Chem. Phys. 96, 6796 (1992)
         He : Obtained from the ccRepo (grant-hill.group.shef.ac.uk/ccrepo) Feb. 2017
              D. E. Woon, T. H. Dunning, Jr., J. Chem. Phys. 100, 2975 (1994)
  Li-Be, Na : Obtained from the ccRepo (grant-hill.group.shef.ac.uk/ccrepo) Feb. 2017
              B. P. Prascher, D. E. Woon, K. A. Peterson, T. H. Dunning, Jr., A. K. Wilson, Theor. Chem. Acc. 128, 69 (2011)
         Mg : Obtained from the Peterson Research Group Website (tyr0.chem.wsu.edu/~kipeters) Feb. 2017
              B. P. Prascher, D. E. Woon, K. A. Peterson, T. H. Dunning, Jr., A. K. Wilson, Theor. Chem. Acc. 128, 69 (2011)
      Al-Ar : Obtained from the ccRepo (grant-hill.group.shef.ac.uk/ccrepo) Feb. 2017
              D. E. Woon, T. H. Dunning, Jr., J. Chem. Phys. 98, 1358 (1993)
      Sc-Zn : Obtained from the ccRepo (grant-hill.group.shef.ac.uk/ccrepo) Feb. 2017
              N. B. Balabanov, K. A. Peterson, J. Chem. Phys. 123, 064107 (2005)
              N. B. Balabanov, K. A. Peterson, J. Chem. Phys. 125, 074110 (2006)
      Ga-Kr : Obtained from the ccRepo (grant-hill.group.shef.ac.uk/ccrepo) Feb. 2017
              A. K. Wilson, D. E. Woon, K. A. Peterson, T. H. Dunning, Jr., J. Chem. Phys. 110, 7667 (1999)
     Ag, Au : Obtained from the Peterson Research Group Website (tyr0.chem.wsu.edu/~kipeters) Feb. 2017
              K. A. Peterson, C. Puzzarini, Theor. Chem. Acc. 114, 283 (2005)

================================================================================
                                        WARNINGS
                       Please study these warnings very carefully!
================================================================================


WARNING: your system is open-shell and RHF/RKS was chosen
  ===> : WILL SWITCH to UHF/UKS


================================================================================
                                       INPUT FILE
================================================================================
NAME = /cluster/projects/nn14654k/ylvaos/basis_set_n_funcs/functionals/gga_x_b88/LiS/inp/LiS_gga_x_b88_augccpvtz.inp
|  1> ! dft aug-cc-pVTZ TightSCF
|  2> %pal nprocs 8 end
|  3> 
|  4> %loc
|  5>   LocMet NewBoys
|  6>   Occ true
|  7> end
|  8> 
|  9> %method
| 10>   exchange gga_x_b88
| 11>   correlation None
| 12> end
| 13> 
| 14> %elprop
| 15>   Dipole true
| 16>   Quadrupole true
| 17> end
| 18> 
| 19> * xyz 0 2
| 20> Li    0.000000000000   0.000000000000  -1.074850000000
| 21> S    0.000000000000   0.000000000000   1.074850000000
| 22> *
| 23> 
| 24> 
| 25>                          ****END OF INPUT****
================================================================================

                       ****************************
                       * Single Point Calculation *
                       ****************************

---------------------------------
CARTESIAN COORDINATES (ANGSTROEM)
---------------------------------
  Li     0.000000    0.000000   -1.074850
  S      0.000000    0.000000    1.074850

----------------------------
CARTESIAN COORDINATES (A.U.)
----------------------------
  NO LB      ZA    FRAG     MASS         X           Y           Z
   0 Li    3.0000    0     6.941    0.000000    0.000000   -2.031172
   1 S    16.0000    0    32.060    0.000000    0.000000    2.031172

--------------------------------
INTERNAL COORDINATES (ANGSTROEM)
--------------------------------
 Li     0   0   0     0.000000000000     0.00000000     0.00000000
 S      1   0   0     2.149700000000     0.00000000     0.00000000

---------------------------
INTERNAL COORDINATES (A.U.)
---------------------------
 Li     0   0   0     0.000000000000     0.00000000     0.00000000
 S      1   0   0     4.062344270091     0.00000000     0.00000000

---------------------
BASIS SET INFORMATION
---------------------
There are 2 groups of distinct atoms

 Group   1 Type Li  : 21s6p3d2f contracted to 5s4p3d2f pattern {99111/3111/111/11}
 Group   2 Type S   : 42s17p3d2f contracted to 6s5p3d2f pattern {131313111/77111/111/11}

Atom   0Li   basis set group =>   1
Atom   1S    basis set group =>   2


           ************************************************************
           *        Program running with 8 parallel MPI-processes     *
           *              working on a common directory               *
           ************************************************************
------------------------------------------------------------------------------
                             ORCA STARTUP CALCULATIONS
------------------------------------------------------------------------------
------------------------------------------------------------------------------
                   ___                                                        
                  /   \      - P O W E R E D   B Y -                         
                 /     \                                                     
                 |  |  |   _    _      __       _____    __    __             
                 |  |  |  | |  | |    /  \     |  _  \  |  |  /  |          
                  \  \/   | |  | |   /    \    | | | |  |  | /  /          
                 / \  \   | |__| |  /  /\  \   | |_| |  |  |/  /          
                |  |  |   |  __  | /  /__\  \  |    /   |      \           
                |  |  |   | |  | | |   __   |  |    \   |  |\   \          
                \     /   | |  | | |  |  |  |  | |\  \  |  | \   \       
                 \___/    |_|  |_| |__|  |__|  |_| \__\ |__|  \__/        
                                                                              
                      - O R C A' S   B I G   F R I E N D -                    
                                      &                                       
                       - I N T E G R A L  F E E D E R -                       
                                                                              
 v1 FN, 2020, v2 2021, v3 2022-2024                                           
------------------------------------------------------------------------------


----------------------
SHARK INTEGRAL PACKAGE
----------------------

Number of atoms                             ...      2
Number of basis functions                   ...    128
Number of shells                            ...     52
Maximum angular momentum                    ...      3
Integral batch strategy                     ... SHARK/LIBINT Hybrid
RI-J (if used) integral strategy            ... SPLIT-RIJ (Revised 2003 algorithm where possible)
Printlevel                                  ...      1
Contraction scheme used                     ... PARTIAL GENERAL contraction
Prescreening option                         ... SCHWARTZ
   Thresh                                   ... 2.500e-11
   Tcut                                     ... 2.500e-12
   Tpresel                                  ... 2.500e-12 
Coulomb Range Separation                    ... NOT USED
Exchange Range Separation                   ... NOT USED
Multipole approximations                    ... NOT USED
Finite Nucleus Model                        ... NOT USED
CABS basis                                  ... NOT available
Auxiliary Coulomb fitting basis             ... NOT available
Auxiliary J/K fitting basis                 ... NOT available
Auxiliary Correlation fitting basis         ... NOT available
Auxiliary 'external' fitting basis          ... NOT available

Checking pre-screening integrals            ... done (  0.0 sec) Dimension = 52
Save PGC pre-screening integrals            ... done (  0.0 sec) Dimension = 52
Calculate PGC overlap integrals             ... done (  0.0 sec) Dimension = 30
Calculating pre-screening integrals (ORCA)  ... done (  0.0 sec) Dimension = 30
Shell pair information
Shell pair cut-off parameter TPreSel        ...   2.5e-12
Total number of shell pairs                 ...      1378
Shell pairs after pre-screening             ...      1252
Total number of primitive shell pairs       ...      1488
Primitive shell pairs kept                  ...      1346
          la=0 lb=0:    323 shell pairs
          la=1 lb=0:    351 shell pairs
          la=1 lb=1:    105 shell pairs
          la=2 lb=0:    168 shell pairs
          la=2 lb=1:     84 shell pairs
          la=2 lb=2:     21 shell pairs
          la=3 lb=0:    110 shell pairs
          la=3 lb=1:     56 shell pairs
          la=3 lb=2:     24 shell pairs
          la=3 lb=3:     10 shell pairs

Checking whether 4 symmetric matrices of dimension 128 fit in memory
:Max Core in MB      =   4096.00
 MB in use           =      3.24
 MB left             =   4092.76
 MB needed           =      0.25
 Data fit in memory  = YES
Calculating Nuclear repulsion               ... done (  0.0 sec) ENN=     11.815837557985 Eh

Diagonalization of the overlap matrix:
Smallest eigenvalue                        ... 6.724e-04
Time for diagonalization                   ...    0.001 sec
Threshold for overlap eigenvalues          ... 1.000e-07
Number of eigenvalues below threshold      ... 0
Time for construction of square roots      ...    0.002 sec
Total time needed                          ...    0.005 sec

-------------------
DFT GRID GENERATION
-------------------

General Integration Accuracy     IntAcc      ... 4.388
Radial Grid Type                 RadialGrid  ... OptM3 with GC (2021)
Angular Grid (max. ang.)         AngularGrid ... 4 (Lebedev-302)
Angular grid pruning method      GridPruning ... 4 (adaptive)
Weight generation scheme         WeightScheme... mBecke (2022)
Basis function cutoff            BFCut       ... 1.0000e-11
Integration weight cutoff        WCut        ... 1.0000e-14
Partially contracted basis set               ... off
Rotationally invariant grid construction     ... off
Angular grids for H and He will be reduced by one unit
Diffuse basis detected: some atoms will have their outermost
                        angular grid increased by 1.

Total number of grid points                  ...    14126
Total number of batches                      ...      221
Average number of points per batch           ...       63
Average number of grid points per atom       ...     7063

---------------------
SHARK GRID GENERATION
---------------------

General Integration Accuracy     IntAcc      ... 4.388
Radial Grid Type                 RadialGrid  ... OptM3 with GC (2021)
Angular Grid (max. ang.)         AngularGrid ... 4 (Lebedev-302)
Angular grid pruning method      GridPruning ... 4 (adaptive)
Weight generation scheme         WeightScheme... mBecke (2022)
Basis function cutoff            BFCut       ... 1.0000e-11
Integration weight cutoff        WCut        ... 1.0000e-14
Partially contracted basis set               ... off
Rotationally invariant grid construction     ... off
Angular grids for H and He will be reduced by one unit
Diffuse basis detected: some atoms will have their outermost
                        angular grid increased by 1.
Core-polarized basis detected: some atoms will have their core
                               angular grid increased.
Steep s-basis detected: some atoms will have their radial
                        grid points doubled.

Total number of grid points                  ...    33087
Total number of batches                      ...      518
Average number of points per batch           ...       63
Average number of grid points per atom       ...    16544
Grids setup in   0.8 sec
Initializing property integral containers    ... done (  0.0 sec)

SHARK setup successfully completed in   0.9 seconds

Maximum memory used throughout the entire STARTUP-calculation: 48.0 MB


           ************************************************************
           *        Program running with 8 parallel MPI-processes     *
           *              working on a common directory               *
           ************************************************************
-------------------------------------------------------------------------------
                                 ORCA GUESS
                   Start orbitals & Density for SCF / CASSCF
-------------------------------------------------------------------------------

------------
SCF SETTINGS
------------
Hamiltonian:
 Density Functional     Method          .... DFT(GTOs)
  Functional kind                       .... Exchange
  Functional name                       .... Becke 88
  Functional family                     .... GGA
  Functional refs                              
    [ 0] A. D. Becke.,  Phys. Rev. A 38, 3098 (1988), doi: 10.1103/PhysRevA.38.3098
  Functional external parameters        .... 2
    Parameter  0 _beta      =  4.200000e-03 : beta/X_FACTOR_C is the coefficient of the gradient expansion
    Parameter  1 _gamma     =  6.000000e+00 : gamma should be 6 to get the right asymptotics of Ex
 Correlation Functional Correlation     .... No Correlation
 Gradients option       PostSCFGGA      .... off


General Settings:
 Integral files         IntName         .... /cluster/projects/nn14654k/ylvaos/basis_set_n_funcs/functionals/gga_x_b88/LiS/inp/LiS_gga_x_b88_augccpvtz
 Hartree-Fock type      HFTyp           .... UHF
 Total Charge           Charge          ....    0
 Multiplicity           Mult            ....    2
 Number of Electrons    NEL             ....   19
 Basis Dimension        Dim             ....   96
 Nuclear Repulsion      ENuc            ....     11.8158375580 Eh

Convergence Acceleration:
 AO-DIIS                CNVDIIS         .... on
   Start iteration      DIISMaxIt       ....    12
   Startup error        DIISStart       ....  0.200000
   # of expansion vecs  DIISMaxEq       ....     5
   Bias factor          DIISBfac        ....   1.050
   Max. coefficient     DIISMaxC        ....  10.000
 MO-DIIS                CNVKDIIS        .... off
 Trust-Rad. Augm. Hess. CNVTRAH         .... auto
   Auto Start mean grad. ratio tolernc. ....  1.125000
   Auto Start start iteration           ....    50
   Auto Start num. interpolation iter.  ....    10
   Max. Number of Micro iterations      ....    24
   Max. Number of Macro iterations      .... Maxiter - #DIIS iter
   Number of Davidson start vectors     ....     2
   Converg. threshold    (grad. norm)   ....   1.000e-05
   Grad. Scal. Fac. for Micro threshold ....   0.100
   Minimum threshold for Micro iter.    ....   1.000e-02
   NR start threshold (gradient norm)   ....   1.000e-04
   Initial trust radius                 ....   0.400
   Minimum AH scaling param. (alpha)    ....   1.000
   Maximum AH scaling param. (alpha)    .... 1000.000
   Quad. conv. algorithm                .... NR
   White noise on init. David. guess    .... on
   Maximum white noise                  ....   0.010
   Pseudo random numbers                .... off
   Inactive MOs                         .... canonical
   Orbital update algorithm             .... Taylor
   Preconditioner                       .... Diag
   Full preconditioner red. dimension   ....   250
 SOSCF                 CNVSOSCF           .... on
   Start iteration     SOSCFMaxIt         ....   150
   Startup grad/error  SOSCFStart         ....  0.003300
   Hessian update      SOSCFHessUp        .... L-BFGS
   Autom. constraints  SOSCFAutoConstrain .... off
 Level Shifting         CNVShift        .... on
   Level shift para.    LevelShift      ....    0.2500
   Turn off err/grad.   ShiftErr        ....    0.0010
 Zerner damping         CNVZerner       .... off
 Static damping         CNVDamp         .... on
   Fraction old density DampFac         ....    0.7000
   Max. Damping (<1)    DampMax         ....    0.9800
   Min. Damping (>=0)   DampMin         ....    0.0000
   Turn off err/grad.   DampErr         ....    0.1000

SCF Procedure:
 Maximum # iterations   MaxIter         ....   125
 SCF integral mode      SCFMode         .... Direct
   Integral package                     .... SHARK and LIBINT hybrid scheme
 Reset frequency        DirectResetFreq ....    20
 Integral Threshold     Thresh          ....  2.500e-11 Eh
 Primitive CutOff       TCut            ....  2.500e-12 Eh

Convergence Tolerance:
 Convergence Check Mode ConvCheckMode   .... Total+1el-Energy
 Convergence forced     ConvForced      .... 0
 Energy Change          TolE            ....  1.000e-08 Eh
 1-El. energy change                    ....  1.000e-05 Eh
 Orbital Gradient       TolG            ....  1.000e-05
 Orbital Rotation angle TolX            ....  1.000e-05
 DIIS Error             TolErr          ....  5.000e-07

------------------------------
INITIAL GUESS: MODEL POTENTIAL
------------------------------
Loading Hartree-Fock densities                     ... done
Calculating cut-offs                               ... done
Initializing the effective Hamiltonian             ... done
Setting up the integral package (SHARK)            ... done
Starting the Coulomb interaction                   ... done (   0.0 sec)
Making the grid                                    ... done (   0.0 sec)
Mapping shells                                     ... done
Starting the XC term evaluation                    ... done (   0.0 sec)
  promolecular density results
     # of electrons  =     18.999681821
     EX              =    -26.733582041
     EC              =      0.000000000
     EX+EC           =    -26.733582041
Transforming the Hamiltonian                       ... done (   0.0 sec)
Diagonalizing the Hamiltonian                      ... done (   0.0 sec)
Back transforming the eigenvectors                 ... done (   0.0 sec)
Now organizing SCF variables                       ... done
                      ------------------
                      INITIAL GUESS DONE (   0.1 sec)
                      ------------------
             **** ENERGY FILE WAS UPDATED (/cluster/projects/nn14654k/ylvaos/basis_set_n_funcs/functionals/gga_x_b88/LiS/inp/LiS_gga_x_b88_augccpvtz.en.tmp) ****
Finished Guess after   0.1 sec
Maximum memory used throughout the entire GUESS-calculation: 7.1 MB


           ************************************************************
           *        Program running with 8 parallel MPI-processes     *
           *              working on a common directory               *
           ************************************************************

-------------------------------------------------------------------------------------------
                                      ORCA LEAN-SCF
                              memory conserving SCF solver
-------------------------------------------------------------------------------------------

----------------------------------------D-I-I-S--------------------------------------------
Iteration    Energy (Eh)           Delta-E    RMSDP     MaxDP     DIISErr   Damp  Time(sec)
-------------------------------------------------------------------------------------------
               ***  Starting incremental Fock matrix formation  ***
    1    -404.9656277622103175     0.00e+00  3.09e-03  2.34e-02  5.44e-02  0.700   0.1
Warning: op=0 Small HOMO/LUMO gap (   0.047) - skipping pre-diagonalization
         Will do a full diagonalization
    2    -404.9812520669696028    -1.56e-02  2.66e-03  2.11e-02  2.99e-02  0.700   0.2
                               ***Turning on AO-DIIS***
    3    -404.9886644581754354    -7.41e-03  1.20e-03  9.15e-03  1.26e-02  0.700   0.1
    4    -404.9923768325909350    -3.71e-03  1.99e-03  1.61e-02  8.70e-03  0.000   0.1
    5    -405.0006072376805264    -8.23e-03  4.66e-04  3.56e-03  5.24e-03  0.000   0.1
                              *** Initializing SOSCF ***
---------------------------------------S-O-S-C-F--------------------------------------
Iteration    Energy (Eh)           Delta-E    RMSDP     MaxDP     MaxGrad    Time(sec)
--------------------------------------------------------------------------------------
    6    -405.0009145088650371    -3.07e-04  1.84e-04  1.22e-03  2.54e-03     0.2
               *** Restarting incremental Fock matrix formation ***
    7    -405.0009855815226274    -7.11e-05  2.07e-04  1.69e-03  1.01e-03     0.2
    8    -405.0009976521575936    -1.21e-05  1.43e-04  1.14e-03  8.28e-04     0.1
    9    -405.0010101758023779    -1.25e-05  3.29e-05  2.23e-04  1.79e-04     0.1
   10    -405.0010104558807029    -2.80e-07  9.79e-06  6.34e-05  6.77e-05     0.1
   11    -405.0010105400147609    -8.41e-08  6.41e-06  5.18e-05  3.58e-05     0.1
   12    -405.0010105524708592    -1.25e-08  2.64e-06  2.28e-05  1.39e-05     0.2
   13    -405.0010105547553394    -2.28e-09  1.02e-06  1.02e-05  3.86e-06     0.1
                 **** Energy Check signals convergence ****

               *****************************************************
               *                     SUCCESS                       *
               *           SCF CONVERGED AFTER  13 CYCLES          *
               *****************************************************

             **** ENERGY FILE WAS UPDATED (/cluster/projects/nn14654k/ylvaos/basis_set_n_funcs/functionals/gga_x_b88/LiS/inp/LiS_gga_x_b88_augccpvtz.en.tmp) ****

----------------
TOTAL SCF ENERGY
----------------

Total Energy       :       -405.00101055505246 Eh          -11020.63778 eV

Components:
Nuclear Repulsion  :         11.81583755798484 Eh             321.52529 eV
Electronic Energy  :       -416.81684811303728 Eh          -11342.16306 eV
One Electron Energy:       -584.07250800748227 Eh          -15893.42095 eV
Two Electron Energy:        167.25565989444496 Eh            4551.25789 eV

Virial components:
Potential Energy   :       -809.17914272517919 Eh          -22018.88389 eV
Kinetic Energy     :        404.17813217012667 Eh           10998.24612 eV
Virial Ratio       :          2.00203593000073

DFT components:
N(Alpha)           :       10.000010763544 electrons
N(Beta)            :        9.000007274872 electrons
N(Total)           :       19.000018038416 electrons
E(X)               :      -26.806476566998 Eh       
E(C)               :        0.000000000000 Eh       
E(XC)              :      -26.806476566998 Eh       

---------------
SCF CONVERGENCE
---------------

  Last Energy change         ...    2.2845e-09  Tolerance :   1.0000e-08
  Last MAX-Density change    ...    1.0158e-05  Tolerance :   1.0000e-07
  Last RMS-Density change    ...    1.0174e-06  Tolerance :   5.0000e-09
  Last DIIS Error            ...    2.5382e-03  Tolerance :   5.0000e-07
  Last Orbital Gradient      ...    3.8642e-06  Tolerance :   1.0000e-05
  Last Orbital Rotation      ...    3.3570e-05  Tolerance :   1.0000e-05


----------------------
UHF SPIN CONTAMINATION
----------------------

Warning: in a DFT calculation there is little theoretical justification to 
         calculate <S**2> as in Hartree-Fock theory. We will do it anyways
         but you should keep in mind that the values have only limited relevance

Expectation value of <S**2>     :     0.757258
Ideal value S*(S+1) for S=0.5   :     0.750000
Deviation                       :     0.007258

----------------
ORBITAL ENERGIES
----------------
                 SPIN UP ORBITALS
  NO   OCC          E(Eh)            E(eV) 
   0   1.0000     -88.057376     -2396.1630 
   1   1.0000      -7.587028      -206.4535 
   2   1.0000      -5.624790      -153.0583 
   3   1.0000      -5.608660      -152.6194 
   4   1.0000      -5.608354      -152.6111 
   5   1.0000      -1.868112       -50.8339 
   6   1.0000      -0.528695       -14.3865 
   7   1.0000      -0.195816        -5.3284 
   8   1.0000      -0.170741        -4.6461 
   9   1.0000      -0.149655        -4.0723 
  10   0.0000      -0.057376        -1.5613 
  11   0.0000      -0.007653        -0.2083 
  12   0.0000      -0.004512        -0.1228 
  13   0.0000       0.003143         0.0855 
  14   0.0000       0.009087         0.2473 
  15   0.0000       0.020966         0.5705 
  16   0.0000       0.022758         0.6193 
  17   0.0000       0.043221         1.1761 
  18   0.0000       0.069292         1.8855 
  19   0.0000       0.069591         1.8937 
  20   0.0000       0.072289         1.9671 

                 SPIN DOWN ORBITALS
  NO   OCC          E(Eh)            E(eV) 
   0   1.0000     -88.053181     -2396.0489 
   1   1.0000      -7.582058      -206.3183 
   2   1.0000      -5.611414      -152.6944 
   3   1.0000      -5.605680      -152.5383 
   4   1.0000      -5.605222      -152.5258 
   5   1.0000      -1.868336       -50.8400 
   6   1.0000      -0.484632       -13.1875 
   7   1.0000      -0.155972        -4.2442 
   8   1.0000      -0.135327        -3.6824 
   9   0.0000      -0.112468        -3.0604 
  10   0.0000      -0.057671        -1.5693 
  11   0.0000      -0.006466        -0.1759 
  12   0.0000      -0.001850        -0.0503 
  13   0.0000       0.002853         0.0776 
  14   0.0000       0.010935         0.2976 
  15   0.0000       0.021370         0.5815 
  16   0.0000       0.023920         0.6509 
  17   0.0000       0.045472         1.2374 
  18   0.0000       0.070629         1.9219 
  19   0.0000       0.072626         1.9763 
*Only the first 10 virtual orbitals were printed.

                    ********************************
                    * MULLIKEN POPULATION ANALYSIS *
                    ********************************

--------------------------------------------
MULLIKEN ATOMIC CHARGES AND SPIN POPULATIONS
--------------------------------------------
   0 Li:    0.297801   -0.017320
   1 S :   -0.297801    1.017320
Sum of atomic charges         :   -0.0000000
Sum of atomic spin populations:    1.0000000

-----------------------------------------------------
MULLIKEN REDUCED ORBITAL CHARGES AND SPIN POPULATIONS
-----------------------------------------------------
CHARGE
  0 Lis       :     2.300461  s :     2.300461
      pz      :     0.216724  p :     0.351471
      px      :     0.042725
      py      :     0.092023
      dz2     :     0.026484  d :     0.047754
      dxz     :     0.006781
      dyz     :     0.014428
      dx2y2   :     0.000020
      dxy     :     0.000040
      f0      :     0.002769  f :     0.002513
      f+1     :    -0.000425
      f-1     :     0.000118
      f+2     :     0.000008
      f-2     :     0.000015
      f+3     :     0.000019
      f-3     :     0.000009

  1 S s       :     5.836517  s :     5.836517
      pz      :     3.596823  p :    10.433917
      px      :     3.157255
      py      :     3.679839
      dz2     :     0.013871  d :     0.021793
      dxz     :     0.002729
      dyz     :     0.003717
      dx2y2   :     0.000499
      dxy     :     0.000977
      f0      :     0.004521  f :     0.005574
      f+1     :    -0.000048
      f-1     :     0.000094
      f+2     :     0.000092
      f-2     :     0.000180
      f+3     :     0.000406
      f-3     :     0.000330


SPIN
  0 Lis       :    -0.023857  s :    -0.023857
      pz      :    -0.004517  p :     0.003560
      px      :     0.016234
      py      :    -0.008157
      dz2     :     0.000433  d :     0.003145
      dxz     :     0.002959
      dyz     :    -0.000257
      dx2y2   :     0.000003
      dxy     :     0.000006
      f0      :     0.000321  f :    -0.000168
      f+1     :    -0.000448
      f-1     :    -0.000078
      f+2     :     0.000006
      f-2     :     0.000012
      f+3     :     0.000011
      f-3     :     0.000009

  1 S s       :     0.008257  s :     0.008257
      pz      :     0.018029  p :     1.004966
      px      :     0.769775
      py      :     0.217163
      dz2     :     0.000221  d :     0.003557
      dxz     :     0.001893
      dyz     :     0.000558
      dx2y2   :     0.000299
      dxy     :     0.000585
      f0      :    -0.000004  f :     0.000539
      f+1     :    -0.000123
      f-1     :    -0.000189
      f+2     :     0.000069
      f-2     :     0.000136
      f+3     :     0.000322
      f-3     :     0.000328



                     *******************************
                     * LOEWDIN POPULATION ANALYSIS *
                     *******************************

-------------------------------------------
LOEWDIN ATOMIC CHARGES AND SPIN POPULATIONS
-------------------------------------------
   0 Li:   -0.479957    0.181412
   1 S :    0.479957    0.818588

----------------------------------------------------
LOEWDIN REDUCED ORBITAL CHARGES AND SPIN POPULATIONS
----------------------------------------------------
CHARGE
  0 Lis       :     2.145079  s :     2.145079
      pz      :     0.309099  p :     0.561775
      px      :     0.089737
      py      :     0.162938
      dz2     :     0.222375  d :     0.452996
      dxz     :     0.092737
      dyz     :     0.137818
      dx2y2   :     0.000022
      dxy     :     0.000043
      f0      :     0.129432  f :     0.320107
      f+1     :     0.079348
      f-1     :     0.111238
      f+2     :     0.000018
      f-2     :     0.000035
      f+3     :     0.000023
      f-3     :     0.000012

  1 S s       :     5.464772  s :     5.464772
      pz      :     3.686290  p :    10.009550
      px      :     2.946495
      py      :     3.376764
      dz2     :     0.025257  d :     0.028176
      dxz     :     0.000515
      dyz     :     0.000963
      dx2y2   :     0.000487
      dxy     :     0.000954
      f0      :     0.015863  f :     0.017545
      f+1     :     0.000185
      f-1     :     0.000496
      f+2     :     0.000092
      f-2     :     0.000180
      f+3     :     0.000403
      f-3     :     0.000327


SPIN
  0 Lis       :    -0.008886  s :    -0.008886
      pz      :    -0.002115  p :     0.044309
      px      :     0.046499
      py      :    -0.000076
      dz2     :     0.000378  d :     0.076856
      dxz     :     0.059967
      dyz     :     0.016498
      dx2y2   :     0.000005
      dxy     :     0.000009
      f0      :     0.001045  f :     0.069134
      f+1     :     0.052084
      f-1     :     0.015945
      f+2     :     0.000011
      f-2     :     0.000022
      f+3     :     0.000014
      f-3     :     0.000012

  1 S s       :     0.003541  s :     0.003541
      pz      :     0.004725  p :     0.813287
      px      :     0.631571
      py      :     0.176991
      dz2     :     0.000237  d :     0.001151
      dxz     :     0.000169
      dyz     :    -0.000120
      dx2y2   :     0.000292
      dxy     :     0.000573
      f0      :    -0.000041  f :     0.000610
      f+1     :    -0.000000
      f-1     :    -0.000198
      f+2     :     0.000069
      f-2     :     0.000135
      f+3     :     0.000319
      f-3     :     0.000325



                      *****************************
                      * MAYER POPULATION ANALYSIS *
                      *****************************

  NA   - Mulliken gross atomic population
  ZA   - Total nuclear charge
  QA   - Mulliken gross atomic charge
  VA   - Mayer's total valence
  BVA  - Mayer's bonded valence
  FA   - Mayer's free valence

  ATOM       NA         ZA         QA         VA         BVA        FA
  0 Li     2.7022     3.0000     0.2978     1.1770     1.1748     0.0021
  1 S     16.2978    16.0000    -0.2978     2.1296     1.1748     0.9547

  Mayer bond orders larger than 0.100000
B(  0-Li,  1-S ) :   1.1748 

-------
TIMINGS
-------

Total SCF time: 0 days 0 hours 0 min 2 sec 

Total time                  ....       2.020 sec
Sum of individual times     ....       1.900 sec  ( 94.1%)

SCF preparation             ....       0.078 sec  (  3.9%)
Fock matrix formation       ....       1.351 sec  ( 66.9%)
  Startup                   ....       0.017 sec  (  1.2% of F)
  Coulomb formation         ....       0.606 sec  ( 44.9% of F)
  XC integration            ....       0.402 sec  ( 29.7% of F)
    XC Preparation          ....       0.000 sec  (  0.0% of XC)
    Basis function eval.    ....       0.030 sec  (  7.5% of XC)
    Density eval.           ....       0.027 sec  (  6.7% of XC)
    XC-Functional eval.     ....       0.008 sec  (  2.0% of XC)
    XC-Potential eval.      ....       0.071 sec  ( 17.7% of XC)
Diagonalization             ....       0.000 sec  (  0.0%)
Density matrix formation    ....       0.101 sec  (  5.0%)
Total Energy calculation    ....       0.032 sec  (  1.6%)
Population analysis         ....       0.014 sec  (  0.7%)
Orbital Transformation      ....       0.024 sec  (  1.2%)
Orbital Orthonormalization  ....       0.000 sec  (  0.0%)
DIIS solution               ....       0.157 sec  (  7.8%)
SOSCF solution              ....       0.144 sec  (  7.1%)
Finished LeanSCF after   2.1 sec

Maximum memory used throughout the entire LEANSCF-calculation: 11.4 MB


           ************************************************************
           *        Program running with 8 parallel MPI-processes     *
           *              working on a common directory               *
           ************************************************************

------------------------------------------------------------------------------
                         ORCA PROPERTY INTEGRAL CALCULATIONS
------------------------------------------------------------------------------

GBWName                                   ... /cluster/projects/nn14654k/ylvaos/basis_set_n_funcs/functionals/gga_x_b88/LiS/inp/LiS_gga_x_b88_augccpvtz.gbw
Number of atoms                           ...      2
Number of basis functions                 ...    128
Max core memory                           ...   4096 MB

Dipole integrals                          ... YES
Quadrupole integrals                      ... YES
Linear momentum integrals                 ...  NO
Angular momentum integrals                ...  NO
Higher moments length integrals           ...  NO
Higher moments velocity integrals         ...  NO
Kinetic energy integrals                  ...  NO
GIAO right hand sides                     ...  NO
GIAO dipole derivative integrals          ...  NO
SOC integrals                             ...  NO
EPR diamagnetic integrals (GIAO)          ...  NO
EPR gauge integrals                       ...  NO
Field gradient integrals                  ...  NO (   0 nuclei)
Spin-dipole/Fermi contact integrals       ...  NO (   0 nuclei)
Contact density integrals                 ...  NO (   0 nuclei)
Nucleus-orbit integrals                   ...  NO (   0 nuclei)
Geometric perturbations                   ...  NO (   2 nuclei)

Choice of electric origin   ... Center of mass
Position of electric origin ... (  0.0000,  0.0000,  1.3082) 
Choice of magnetic origin   ... GIAO
Position of magnetic origin ... (  0.0000,  0.0000,  0.0000) 

Calculating integrals                     ... Electric Dipole (Length)     done (  0.0 sec)
Calculating integrals                     ... Electric Quadrupole (Length) done (  0.0 sec)

Property integrals calculated in   0.0 sec

Maximum memory used throughout the entire PROPINT-calculation: 7.5 MB
------------------------------------------------------------------------------
                           ORCA ORBITAL LOCALIZATION
------------------------------------------------------------------------------

Input orbitals are from                  ... /cluster/projects/nn14654k/ylvaos/basis_set_n_funcs/functionals/gga_x_b88/LiS/inp/LiS_gga_x_b88_augccpvtz.gbw
Output orbitals are to                   ... /cluster/projects/nn14654k/ylvaos/basis_set_n_funcs/functionals/gga_x_b88/LiS/inp/LiS_gga_x_b88_augccpvtz.loc
Max. number of iterations                ... 128
Localizations seeded randomly            ... on
Convergence tolerance                    ... 1.000e-06
Threshold for strong local MOs           ... 9.500e-01
Threshold for bond MOs                   ... 8.500e-01
Operator                                 ... 0
Orbital range for localization           ... 5 to 9
Localization criterion                   ... NEW-BOYS
Doing the dipole integrals               ... o.k.
Initial value of the localization sum :    12.462039
ITERATION   0 : L=   15.5538615827 DL=  3.09e+00 (AVERGE_DL)=    0.5560415716 
ITERATION   1 : L=   15.7642658654 DL=  2.10e-01 (AVERGE_DL)=    0.1450531912 
ITERATION   2 : L=   15.8057962920 DL=  4.15e-02 (AVERGE_DL)=    0.0644441050 
ITERATION   3 : L=   15.8383098578 DL=  3.25e-02 (AVERGE_DL)=    0.0570206680 
ITERATION   4 : L=   15.8533148518 DL=  1.50e-02 (AVERGE_DL)=    0.0387362802 
ITERATION   5 : L=   15.8614543987 DL=  8.14e-03 (AVERGE_DL)=    0.0285298911 
ITERATION   6 : L=   15.8654787704 DL=  4.02e-03 (AVERGE_DL)=    0.0200608367 
ITERATION   7 : L=   15.8676225018 DL=  2.14e-03 (AVERGE_DL)=    0.0146414872 
ITERATION   8 : L=   15.8688558847 DL=  1.23e-03 (AVERGE_DL)=    0.0111057771 
ITERATION   9 : L=   15.8696532403 DL=  7.97e-04 (AVERGE_DL)=    0.0089294771 
ITERATION  10 : L=   15.8702287049 DL=  5.75e-04 (AVERGE_DL)=    0.0075859382 
ITERATION  11 : L=   15.8706819030 DL=  4.53e-04 (AVERGE_DL)=    0.0067319993 
ITERATION  12 : L=   15.8710601933 DL=  3.78e-04 (AVERGE_DL)=    0.0061505304 
ITERATION  13 : L=   15.8713873989 DL=  3.27e-04 (AVERGE_DL)=    0.0057201889 
ITERATION  14 : L=   15.8716764418 DL=  2.89e-04 (AVERGE_DL)=    0.0053762709 
ITERATION  15 : L=   15.8719349977 DL=  2.59e-04 (AVERGE_DL)=    0.0050848398 
ITERATION  16 : L=   15.8721680531 DL=  2.33e-04 (AVERGE_DL)=    0.0048275812 
ITERATION  17 : L=   15.8723791106 DL=  2.11e-04 (AVERGE_DL)=    0.0045940991 
ITERATION  18 : L=   15.8725707845 DL=  1.92e-04 (AVERGE_DL)=    0.0043780576 
ITERATION  19 : L=   15.8727451197 DL=  1.74e-04 (AVERGE_DL)=    0.0041753468 
ITERATION  20 : L=   15.8729037773 DL=  1.59e-04 (AVERGE_DL)=    0.0039831852 
ITERATION  21 : L=   15.8730481511 DL=  1.44e-04 (AVERGE_DL)=    0.0037996551 
ITERATION  22 : L=   15.8731794412 DL=  1.31e-04 (AVERGE_DL)=    0.0036233977 
ITERATION  23 : L=   15.8732987084 DL=  1.19e-04 (AVERGE_DL)=    0.0034535083 
ITERATION  24 : L=   15.8734069071 DL=  1.08e-04 (AVERGE_DL)=    0.0032893570 
ITERATION  25 : L=   15.8735049115 DL=  9.80e-05 (AVERGE_DL)=    0.0031305657 
ITERATION  26 : L=   15.8735935303 DL=  8.86e-05 (AVERGE_DL)=    0.0029768908 
ITERATION  27 : L=   15.8736735189 DL=  8.00e-05 (AVERGE_DL)=    0.0028282247 
ITERATION  28 : L=   15.8737455844 DL=  7.21e-05 (AVERGE_DL)=    0.0026845022 
ITERATION  29 : L=   15.8738103925 DL=  6.48e-05 (AVERGE_DL)=    0.0025457435 
ITERATION  30 : L=   15.8738685677 DL=  5.82e-05 (AVERGE_DL)=    0.0024119545 
ITERATION  31 : L=   15.8739206964 DL=  5.21e-05 (AVERGE_DL)=    0.0022831693 
ITERATION  32 : L=   15.8739673266 DL=  4.66e-05 (AVERGE_DL)=    0.0021594046 
ITERATION  33 : L=   15.8740089704 DL=  4.16e-05 (AVERGE_DL)=    0.0020406801 
ITERATION  34 : L=   15.8740461026 DL=  3.71e-05 (AVERGE_DL)=    0.0019269719 
ITERATION  35 : L=   15.8740791637 DL=  3.31e-05 (AVERGE_DL)=    0.0018182698 
ITERATION  36 : L=   15.8741085594 DL=  2.94e-05 (AVERGE_DL)=    0.0017145189 
ITERATION  37 : L=   15.8741346627 DL=  2.61e-05 (AVERGE_DL)=    0.0016156509 
ITERATION  38 : L=   15.8741578147 DL=  2.32e-05 (AVERGE_DL)=    0.0015215797 
ITERATION  39 : L=   15.8741783267 DL=  2.05e-05 (AVERGE_DL)=    0.0014322014 
ITERATION  40 : L=   15.8741964813 DL=  1.82e-05 (AVERGE_DL)=    0.0013473886 
ITERATION  41 : L=   15.8742125346 DL=  1.61e-05 (AVERGE_DL)=    0.0012670145 
ITERATION  42 : L=   15.8742267178 DL=  1.42e-05 (AVERGE_DL)=    0.0011909338 
ITERATION  43 : L=   15.8742392391 DL=  1.25e-05 (AVERGE_DL)=    0.0011189887 
ITERATION  44 : L=   15.8742502857 DL=  1.10e-05 (AVERGE_DL)=    0.0010510244 
ITERATION  45 : L=   15.8742600249 DL=  9.74e-06 (AVERGE_DL)=    0.0009868743 
ITERATION  46 : L=   15.8742686067 DL=  8.58e-06 (AVERGE_DL)=    0.0009263813 
ITERATION  47 : L=   15.8742761645 DL=  7.56e-06 (AVERGE_DL)=    0.0008693584 
ITERATION  48 : L=   15.8742828175 DL=  6.65e-06 (AVERGE_DL)=    0.0008156567 
ITERATION  49 : L=   15.8742886714 DL=  5.85e-06 (AVERGE_DL)=    0.0007651056 
ITERATION  50 : L=   15.8742938201 DL=  5.15e-06 (AVERGE_DL)=    0.0007175503 
ITERATION  51 : L=   15.8742983471 DL=  4.53e-06 (AVERGE_DL)=    0.0006728289 
ITERATION  52 : L=   15.8743023261 DL=  3.98e-06 (AVERGE_DL)=    0.0006307894 
ITERATION  53 : L=   15.8743058223 DL=  3.50e-06 (AVERGE_DL)=    0.0005912849 
ITERATION  54 : L=   15.8743088934 DL=  3.07e-06 (AVERGE_DL)=    0.0005541780 
ITERATION  55 : L=   15.8743115903 DL=  2.70e-06 (AVERGE_DL)=    0.0005193212 
ITERATION  56 : L=   15.8743139581 DL=  2.37e-06 (AVERGE_DL)=    0.0004865977 
ITERATION  57 : L=   15.8743160364 DL=  2.08e-06 (AVERGE_DL)=    0.0004558793 
ITERATION  58 : L=   15.8743178600 DL=  1.82e-06 (AVERGE_DL)=    0.0004270420 
ITERATION  59 : L=   15.8743194599 DL=  1.60e-06 (AVERGE_DL)=    0.0003999854 
ITERATION  60 : L=   15.8743208631 DL=  1.40e-06 (AVERGE_DL)=    0.0003745975 
ITERATION  61 : L=   15.8743220936 DL=  1.23e-06 (AVERGE_DL)=    0.0003507785 
ITERATION  62 : L=   15.8743231723 DL=  1.08e-06 (AVERGE_DL)=    0.0003284341 
ITERATION  63 : L=   15.8743241177 DL=  9.45e-07 (AVERGE_DL)=    0.0003074753 
LOCALIZATION SUM CONVERGED


--------------------------------------------------------------------------------
                    LOCALIZED MOLECULAR ORBITAL COMPOSITIONS
--------------------------------------------------------------------------------

The Mulliken populations for each LMO on each atom are computed
The LMO`s will be ordered according to atom index and type
  (A) Strongly localized MO`s have populations of >=0.950 on one atom
  (B) Two center bond orbitals have populations of >=0.850 on two atoms
  (C) Other MO`s are considered to be `delocalized`

FOUND  -   2 strongly local MO`s
       -   3 two center bond MO`s
       -   0 significantly delocalized MO`s

Rather strongly localized orbitals:
MO   6:   1S  -   0.985688
MO   5:   0Li -   0.987116
Bond-like localized orbitals:
MO   9:   1S  -   0.857473  and   0Li -   0.142527
MO   8:   1S  -   0.857084  and   0Li -   0.142916
MO   7:   1S  -   0.942449  and   0Li -   0.057551
Localized MO's were stored in: /cluster/projects/nn14654k/ylvaos/basis_set_n_funcs/functionals/gga_x_b88/LiS/inp/LiS_gga_x_b88_augccpvtz.loc
------------------------------------------------------------------------------
                           ORCA ORBITAL LOCALIZATION
------------------------------------------------------------------------------

Input orbitals are from                  ... /cluster/projects/nn14654k/ylvaos/basis_set_n_funcs/functionals/gga_x_b88/LiS/inp/LiS_gga_x_b88_augccpvtz.loc
Output orbitals are to                   ... /cluster/projects/nn14654k/ylvaos/basis_set_n_funcs/functionals/gga_x_b88/LiS/inp/LiS_gga_x_b88_augccpvtz.loc
Max. number of iterations                ... 128
Localizations seeded randomly            ... on
Convergence tolerance                    ... 1.000e-06
Threshold for strong local MOs           ... 9.500e-01
Threshold for bond MOs                   ... 8.500e-01
Operator                                 ... 1
Orbital range for localization           ... 5 to 8
Localization criterion                   ... NEW-BOYS
Doing the dipole integrals               ... o.k.
Initial value of the localization sum :    12.110090
ITERATION   0 : L=   14.8385268468 DL=  2.73e+00 (AVERGE_DL)=    0.6743436840 
ITERATION   1 : L=   14.8815940617 DL=  4.31e-02 (AVERGE_DL)=    0.0847223061 
ITERATION   2 : L=   14.9139189126 DL=  3.23e-02 (AVERGE_DL)=    0.0733994219 
ITERATION   3 : L=   14.9959404338 DL=  8.20e-02 (AVERGE_DL)=    0.1169198595 
ITERATION   4 : L=   15.1499022076 DL=  1.54e-01 (AVERGE_DL)=    0.1601883130 
ITERATION   5 : L=   15.2899022256 DL=  1.40e-01 (AVERGE_DL)=    0.1527525330 
ITERATION   6 : L=   15.3603370542 DL=  7.04e-02 (AVERGE_DL)=    0.1083473032 
ITERATION   7 : L=   15.3872473062 DL=  2.69e-02 (AVERGE_DL)=    0.0669704562 
ITERATION   8 : L=   15.3967110410 DL=  9.46e-03 (AVERGE_DL)=    0.0397150995 
ITERATION   9 : L=   15.3999829706 DL=  3.27e-03 (AVERGE_DL)=    0.0233521220 
ITERATION  10 : L=   15.4011146355 DL=  1.13e-03 (AVERGE_DL)=    0.0137335653 
ITERATION  11 : L=   15.4015074621 DL=  3.93e-04 (AVERGE_DL)=    0.0080914217 
ITERATION  12 : L=   15.4016442650 DL=  1.37e-04 (AVERGE_DL)=    0.0047749845 
ITERATION  13 : L=   15.4016920165 DL=  4.78e-05 (AVERGE_DL)=    0.0028210965 
ITERATION  14 : L=   15.4017087091 DL=  1.67e-05 (AVERGE_DL)=    0.0016679646 
ITERATION  15 : L=   15.4017145498 DL=  5.84e-06 (AVERGE_DL)=    0.0009866347 
ITERATION  16 : L=   15.4017165946 DL=  2.04e-06 (AVERGE_DL)=    0.0005837784 
ITERATION  17 : L=   15.4017173106 DL=  7.16e-07 (AVERGE_DL)=    0.0003454472 
LOCALIZATION SUM CONVERGED


--------------------------------------------------------------------------------
                    LOCALIZED MOLECULAR ORBITAL COMPOSITIONS
--------------------------------------------------------------------------------

The Mulliken populations for each LMO on each atom are computed
The LMO`s will be ordered according to atom index and type
  (A) Strongly localized MO`s have populations of >=0.950 on one atom
  (B) Two center bond orbitals have populations of >=0.850 on two atoms
  (C) Other MO`s are considered to be `delocalized`

FOUND  -   2 strongly local MO`s
       -   2 two center bond MO`s
       -   0 significantly delocalized MO`s

Rather strongly localized orbitals:
MO   6:   1S  -   1.005201
MO   5:   0Li -   0.987230
Bond-like localized orbitals:
MO   8:   1S  -   0.810181  and   0Li -   0.189819
MO   7:   1S  -   0.809967  and   0Li -   0.190033
Localized MO's were stored in: /cluster/projects/nn14654k/ylvaos/basis_set_n_funcs/functionals/gga_x_b88/LiS/inp/LiS_gga_x_b88_augccpvtz.loc

-------------------------   --------------------
FINAL SINGLE POINT ENERGY      -405.001010555052
-------------------------   --------------------



           ************************************************************
           *        Program running with 8 parallel MPI-processes     *
           *              working on a common directory               *
           ************************************************************

------------------------------------------------------------------------------
                              ORCA PROPERTY CALCULATIONS
------------------------------------------------------------------------------

GBWName                                 ... /cluster/projects/nn14654k/ylvaos/basis_set_n_funcs/functionals/gga_x_b88/LiS/inp/LiS_gga_x_b88_augccpvtz.gbw
Number of atoms                         ...      2
Number of basis functions               ...    128
Max core memory                         ...   4096 MB

Electric properties:
Dipole moment                           ... YES
Quadrupole moment                       ... YES
Static polarizability (Dipole/Dipole)   ...  NO
Static polarizability (Dipole/Quad.)    ...  NO
Static polarizability (Quad./Quad.)     ...  NO
Static polarizability (Velocity)        ...  NO
Static hyperpolarizability              ...  NO

Atomic electric properties:
Dipole moment                           ...  NO
Quadrupole moment                       ...  NO
Static polarizability                   ...  NO

Choice of electric origin               ... Center of mass
Position of electric origin             ...     0.000000     0.000000     1.308198

General magnetic properties:
Magnetizability                         ...  NO

EPR properties:
g-Tensor (aka g-matrix)                 ...  NO
Zero-Field splitting spin-orbit         ...  NO
Zero-field splitting spin-spin          ...  NO
Hyperfine couplings                     ...  NO (   0 nuclei)
Quadrupole couplings                    ...  NO (   0 nuclei)
Contact density                         ...  NO (   0 nuclei)

NMR properties:
Chemical shifts                         ...  NO (   0 nuclei)
Spin-rotation constants                 ...  NO (   0 nuclei)
Spin-spin couplings                     ...  NO (   0 nuclei,    0 pairs)

Choice of magnetic origin               ... GIAO
Position of magnetic origin             ...     0.000000     0.000000     0.000000

Properties with geometric perturbations:
SCF Hessian                             ...  NO
IR spectrum                             ...  NO
VCD spectrum                            ...  NO
X-ray spectroscopy properties:
SCF XES/XAS/RIXS spectra                ...  NO

SCF SOC stabilization energy            ...  NO
Diagonal Born-Oppenheimer correction    ...  NO

-------------
DIPOLE MOMENT
-------------

Method             : SCF
Type of density    : Electron Density
Multiplicity       :   2
Irrep              :   0
Energy             :  -405.0010105550524599 Eh
Basis              : AO
                                X                 Y                 Z
Electronic contribution:      0.000000005       0.000000003      -4.187919690
Nuclear contribution   :      0.000000000       0.000000000       1.549484202
                        -----------------------------------------
Total Dipole Moment    :      0.000000005       0.000000003      -2.638435488
                        -----------------------------------------
Magnitude (a.u.)       :      2.638435488
Magnitude (Debye)      :      6.706370048



--------------------
Rotational spectrum 
--------------------
 
Rotational constants in cm-1:             0.000000             0.639339             0.639339 
Rotational constants in MHz :             0.000000         19166.891897         19166.891897 

Dipole components along the rotational axes: 
x,y,z [a.u.] :    -2.638435     0.000000     0.000000 
x,y,z [Debye]:    -6.706370     0.000000     0.000000 

 

Dipole moment calculation done in   0.0 sec 

-----------------
QUADRUPOLE MOMENT
-----------------

Method             : SCF
Type of density    : Electron Density
Multiplicity       :   2
Irrep              :   0
Energy             :  -405.0010105550524599 Eh
Basis              : AO

                XX              YY              ZZ              XY              XZ              YZ
  NUC        0.000000000     0.000000000    41.817245673     0.000000000     0.000000000     0.000000000
  EL       -12.806976263   -14.368983699   -45.678953383     1.093360853    -0.000000030    -0.000000007
  TOT      -12.806976263   -14.368983699    -3.861707710     1.093360853    -0.000000030    -0.000000007 (a.u.)
           -17.225821072   -19.326774495    -5.194128940     1.470607740    -0.000000040    -0.000000010 (Buckingham)

diagonalized tensor:
           -14.931633494   -12.244326469    -3.861707710 (a.u.)
           -20.083557711   -16.469037856    -5.194128940 (Buckingham)
           -18.503948626    -7.660389062    26.164337687 (traceless form in Buckingham)

            -0.457573051     0.889172032    -0.000000003
             0.889172032     0.457573051    -0.000000001
            -0.000000001     0.000000004     1.000000000
        
Isotropic quadrupole :   -10.345889224

Quadrupole moment calculation done in   0.0 sec (  0.0 sec for integrals)

Maximum memory used throughout the entire PROP-calculation: 3.8 MB

--------------------------------
SUGGESTED CITATIONS FOR THIS RUN
--------------------------------

Below you find a list of papers that are relevant to this ORCA run
We neither can nor want to force you to cite these papers, but we appreciate if you do
You receive ORCA, which is the product of decades of hard work by many enthusiastic individuals, for free
The only thing we kindly ask in return is that you cite our papers,
We deeply appreciate it, if you show your appreciation for ORCA by not just citing the generic ORCA reference.

Please note that relegating all ORCA citations to the supporting information does *not* help us.
SI sections are not indexed - citations you put there will not count into any citation statistics
But we need these citations in order to attract the funding resources that allow us to do what we are doing

Therefore, if you are a happy ORCA user, please consider citing a few of the papers listed below in the main body of your paper

In addition to the list printed below, the program has created the file /cluster/projects/nn14654k/ylvaos/basis_set_n_funcs/functionals/gga_x_b88/LiS/inp/LiS_gga_x_b88_augccpvtz.bibtex that contains the list in bibtex format
You can import this file easily into all common literature databanks and citation aid programs

It goes without saying that in many instances, there are alternative algorithms to achieve similar
results as the ones you have gotten from ORCA. It is, of course, also the case that in some instances
ORCA just re-implements algorithms worked out by others. We are fully aware of that and we are also
fully appreciative of our colleagues work. Hence this citation list should not be read as indicating
that the listed papers, which are focused on our own work, are the only ones worth citing. It simply
meant to make it easier for users to cite ORCA specific papers. It is not a substitute for doing your
own literature research and citing the relevant literature in a scientifically appropriate manner.

List of essential papers. We consider these as the minimum necessary citations

  1. Neese, F.
     Software update: the ORCA program system, version 6.0
     WIRES Comput. Molec. Sci. 2025 15(1), e70019
     doi.org/10.1002/wcms.70019

List of papers to cite with high priority. The work reported in these papers was absolutely
necessary for this run to complete.
Our perspective: the developers of density functionals and basis sets usually get cited in chemistry papers
Good! But without the algorithms to do something with them, the functionals or basis sets would not do anything.
Hence, in our opinion, the algorithm design and method developments papers are equally worthy of getting cited

  1. Lehtola, S.; Steigemann, C.; Oliveira, M.; Marques, M.
     Recent developments in Libxc - A comprehensive library of functionals for density functional theory
     Software X 2018 7 , 
     doi.org/10.1016/j.softx.2017.11.002
  2. Neese, F.
     The SHARK Integral Generation and Digestion System
     J. Comp. Chem. 2022 44(3), 381
     doi.org/10.1002/jcc.26942

List of suggested additional citations. These are papers that are important in the 'surrounding' of 
of this run, or papers that preceded the highly important papers. If you like your results we are grateful for a citation.

  1. Neese, F.
     The ORCA program system
     WIRES Comput. Molec. Sci. 2012 2(1), 73-78
     doi.org/10.1002/wcms.81
  2. Neese, F.
     Software update: the ORCA program system, version 4.0
     WIRES Comput. Molec. Sci. 2018 8(1), 1-6
     doi.org/10.1002/wcms.1327
  3. Neese, F.; Wennmohs, F.; Becker, U.; Riplinger, C.
     The ORCA quantum chemistry program package
     J. Chem. Phys. 2020 152(22), 224108
     doi.org/10.1063/5.0004608
  4. Neese, F.
     Software update: The ORCA program system—Version 5.0
     WIRES Comput. Molec. Sci. 2022 12(1), e1606
     doi.org/10.1002/wcms.1606

List of optional additional citations

  1. Neese, F.
     Approximate second-order SCF convergence for spin unrestricted wavefunctions
     Chem. Phys. Lett. 2000 325(1-3), 93-98
     doi.org/10.1016/s0009-2614(00)00662-x

Timings for individual modules:

Sum of individual times          ...        4.298 sec (=   0.072 min)
Startup calculation              ...        1.132 sec (=   0.019 min)  26.3 %
SCF iterations                   ...        2.624 sec (=   0.044 min)  61.1 %
Property integrals               ...        0.240 sec (=   0.004 min)   5.6 %
Property calculations            ...        0.295 sec (=   0.005 min)   6.9 %
Orbital localization             ...        0.007 sec (=   0.000 min)   0.2 %
                             ****ORCA TERMINATED NORMALLY****
TOTAL RUN TIME: 0 days 0 hours 0 minutes 5 seconds 23 msec
