
                                 *****************
                                 * O   R   C   A *
                                 *****************

                                            #,                                       
                                            ###                                      
                                            ####                                     
                                            #####                                    
                                            ######                                   
                                           ########,                                 
                                     ,,################,,,,,                         
                               ,,#################################,,                 
                          ,,##########################################,,             
                       ,#########################################, ''#####,          
                    ,#############################################,,   '####,        
                  ,##################################################,,,,####,       
                ,###########''''           ''''###############################       
              ,#####''   ,,,,##########,,,,          '''####'''          '####       
            ,##' ,,,,###########################,,,                        '##       
           ' ,,###''''                  '''############,,,                           
         ,,##''                                '''############,,,,        ,,,,,,###''
      ,#''                                            '''#######################'''  
     '                                                          ''''####''''         
             ,#######,   #######,   ,#######,      ##                                
            ,#'     '#,  ##    ##  ,#'     '#,    #''#        ,####,    ,#,          
            ##       ##  ##   ,#'  ##            #'  '#       #'       ,# #          
            ##       ##  #######   ##           ,######,      #####,      #          
            '#,     ,#'  ##    ##  '#,     ,#' ,#      #,     #,   #      #          
             '#######'   ##     ##  '#######'  #'      '#     '####' #    #          



                #########################################################
                #                        -***-                          #
                #          Department of theory and spectroscopy        #
                #                                                       #
                #                      Frank Neese                      #
                #                                                       #
                #     Directorship, Architecture, Infrastructure        #
                #                    SHARK, DRIVERS                     #
                #        Core code/Algorithms in most modules           #
                #                                                       #
                #        Max Planck Institute fuer Kohlenforschung      #
                #                Kaiser Wilhelm Platz 1                 #
                #                 D-45470 Muelheim/Ruhr                 #
                #                      Germany                          #
                #                                                       #
                #                  All rights reserved                  #
                #                        -***-                          #
                #########################################################


                         Program Version 6.1.1  -  RELEASE   -
                                (GIT: $487d211c$)
                          ($2025-11-21 10:33:24 +0100$)


 With contributions from (in alphabetic order):
[Max-Planck-Institut fuer Kohlenforschung]                               
  Daniel Aravena         : Magnetic Suceptibility                        
  Michael Atanasov       : Ab Initio Ligand Field Theory (pilot matlab implementation)
  Alexander A. Auer      : GIAO ZORA, VPT2 properties, NMR spectrum      
  Ute Becker             : All parallelization in ORCA, NUMFREQ, NUMCALC 
  Giovanni Bistoni       : ED, misc. LED, open-shell LED, HFLD           
  Dmytro Bykov           : pre 5.0 version of the SCF Hessian            
  Marcos Casanova-Páez   : Triplet and SCS-CIS(D). UHF-(DLPNO)-IP/EA/STEOM-CCSD. UHF-CVS-IP/STEOM-CCSD   
  Vijay G. Chilkuri      : MRCI spin determinant printing, contributions to CSF-ICE 
  Pauline Colinet        : FMM embedding                                 
  Dipayan Datta          : RHF DLPNO-CCSD density                        
  Achintya Kumar Dutta   : EOM-CC, STEOM-CC                              
  Nicolas Foglia         : Exact transition moments, OPA infrastructure, MCD improvements    
  Dmitry Ganyushin       : Spin-Orbit,Spin-Spin,Magnetic field MRCI      
  Miquel Garcia-Rates    : C-PCM and meta-GGA Hessian, CCSD/C-PCM, Gaussian charge scheme 
  Tiago L. C. Gouveia    : GS-ROHF, GS-ROCIS                             
  Yang Guo               : DLPNO-NEVPT2, F12-NEVPT2, CIM, IAO-localization        
  Andreas Hansen         : Spin unrestricted coupled pair/coupled cluster methods 
  Ingolf Harden          : AUTO-CI MPn and infrastructure                
  Benjamin Helmich-Paris : MC-RPA, TRAH-(SCF,CASSCF), AVAS, COSX integrals, SCF dyn. polar., MC-PDFT, srDFT 
  Lee Huntington         : MR-EOM, pCC                                   
  Robert Izsak           : Overlap fitted RIJCOSX, COSX-SCS-MP3, EOM     
  Riya Kayal             : Wick's Theorem for AUTO-CI, AUTO-CI UHF-CCSDT 
  Emily Kempfer          : AUTO-CI RHF CISDT and CCSDT, approximate NEVPT4
  Christian Kollmar      : KDIIS, OOCD, Brueckner-CCSD(T), CCSD density, CASPT2, CASPT2-K, improved NEVPT2 
  Axel Koslowski         : Symmetry handling                             
  Simone Kossmann        : meta-GGA functionals, TD-DFT gradient, OOMP2, (MP2 Hessian; deprecated post 5.0) 
  Lucas Lang             : DCDCAS, Hyperfine gauge corrections, ICE-SOC+SSC
  Marvin Lechner         : AUTO-CI (C++ implementation), FIC-MRCC        
  Spencer Leger          : CASSCF response                               
  Dagmar Lenk            : GEPOL surface, SMD, ORCA-2-JSON               
  Dimitrios Liakos       : Extrapolation schemes; Compound Job, Property file
  Dimitrios Manganas     : Further ROCIS development; embedding schemes. LFT, Crystal Embedding 
  Dimitrios Pantazis     : SARC Basis sets                               
  Anastasios Papadopoulos: AUTO-CI, single reference methods and gradients 
  Taras Petrenko         : pre 6.0 DFT Hessian and TD-DFT gradient,  ECA, NRVS 
  Petra Pikulova         : Analytic Raman intensities                    
  Peter Pinski           : DLPNO-MP2, DLPNO-MP2 Gradient                 
  Shashank Vittal Rao    : ES-AILFT, MagRelax                            
  Christoph Reimann      : Effective Core Potentials                     
  Marius Retegan         : Local ZFS, SOC                                
  Christoph Riplinger    : Optimizer, TS searches, QM/MM, DLPNO-CCSD(T), (RO)-DLPNO pert. Triples 
  Michael Roemelt        : Original ROCIS implementation, recursive CI coupling coefficients
  Masaaki Saitow         : Open-shell DLPNO-CCSD energy and density      
  Barbara Sandhoefer     : DKH picture change effects                    
  Yorick L. A. Schmerwitz: GMF and freeze-and-release deltaSCF, NEB S-IDPP initial path                    
  Kantharuban Sivalingam : CASSCF convergence/infrastructure, NEVPT2, NEVPT3, NEVPT4(SD), FIC-MRCI and CEPA variants
  Bernardo de Souza      : ESD, SOC TD-DFT                               
  Georgi L. Stoychev     : AutoAux, RI-MP2 NMR, DLPNO-MP2 response, X2C  
  Van Anh Tran           : RI-MP2 g-tensors                              
  Willem Van den Heuvel  : Paramagnetic NMR                              
  Zikuan Wang            : NOTCH, Electric field optimization            
  Frank Wennmohs         : Technical directorship and infrastructure     
  Hang Xu                : AUTO-CI-Response properties                   
                                                                         
[FACCTs GmbH]                                                            
  Markus Bursch, Nicolas Foglia, Miquel Garcia-Rates, Ingolf Harden, Hagen Neugebauer, Anastasios Papadopoulos, 
  Christoph Riplinger, Bernardo de Souza, Georgi L. Stoychev                                                    
                                                                 
  APM, various basis sets, CI-OPT, improved COSX, DLPNO-Multilevel,           
  DOCKER, DRACO, updates on ESD, Fragmentator, GOAT, IRC, LR-CPCM, L-BFGS, MBIS, meta-GGA TD-DFT gradient, ML-optimized integration grids, 
  MM, NACMEs, nearIR, NEB, NEB-TS, NL-DFT gradient (VV10), 2- and 3-layer-ONIOM, interface openCOSMO-RS, QMMM,   
  Crystal-QMMM, RESP, rigid body optimization, SF, symmetry and pop. for TD-DFT, various functionals, SOLVATOR                                   
                                                                         
[Other institutions]                                                     
  V. Asgeirsson          : NEB                                           
  Christoph Bannwarth    : sTDA-DFT, sTD-DFT, PBEh-3c, B97-3c, D3        
  Giovanni Bistoni       : ETS/NOCV, ADLD/ADEX, COVALED                  
  Martin Brehm           : Molecular dynamics                            
  Ronald Cardenas        : ETS/NOCV                                      
  Martina Colucci        : COVALED                                       
  Sebastian Ehlert       : rSCAN, r2SCAN, r2SCAN-3c, D4, dhf basis sets  
  Marvin Friede          : D4 for Fr, Ra, Ac-Lr                          
  Lars Goerigk           : TD-DFT with DH, B97 family of functionals     
  Stefan Grimme          : VdW corrections, initial TS optimization, DFT functionals, gCP, sTDA/sTD-DF 
  Waldemar Hujo          : DFT-NL                                        
  H. Jonsson             : NEB                                           
  Holger Kruse           : gCP                                           
  Marcel Mueller         : wB97X-3c, vDZP basis set                      
  Hagen Neugebauer       : wr2SCAN, Native XTB                           
  Gianluca Regni         : ADLD/ADEX                                     
  Tobias Risthaus        : pre 6.0 range-separated hybrid DFT and stability analysis
  Lukas Wittmann         : regularized MP2, r2SCAN double-hybrids, wr2SCAN        
                                                                         
We gratefully acknowledge several colleagues who have allowed us to      
interface, adapt or use parts of their codes:                            
  Ed Valeev, F. Pavosevic, A. Kumar             : LibInt (2-el integral package), F12 methods 
  Garnet Chan, S. Sharma, J. Yang, R. Olivares  : DMRG                   
  Ulf Ekstrom                                   : XCFun DFT Library      
  Mihaly Kallay                                 : mrcc  (arbitrary order and MRCC methods)
  Frank Weinhold                                : gennbo (NPA and NBO analysis)           
  Simon Mueller                                 : openCOSMO-RS                            
  Christopher J. Cramer and Donald G. Truhlar   : smd solvation model                     
  S Lehtola, MJT Oliveira, MAL Marques          : LibXC Library                           
  Liviu Ungur et al                             : ANISO software                          


 Your calculation uses the libint2 library for the computation of 2-el integrals
 For citations please refer to: http://libint.valeyev.net

 Your ORCA version has been built with support for libXC version: 7.0.0
 For citations please refer to: https://libxc.gitlab.io

 This ORCA versions uses:
   CBLAS   interface :  Fast vector & matrix operations
   LAPACKE interface :  Fast linear algebra routines
   SCALAPACK package :  Parallel linear algebra routines
   Shared memory     :  Shared parallel matrices
   BLAS/LAPACK       :  OpenBLAS 0.3.29  USE64BITINT DYNAMIC_ARCH NO_AFFINITY Cooperlake SINGLE_THREADED
        Core in use  :  Cooperlake
   Copyright (c) 2011-2014, The OpenBLAS Project


  ***********************************
  * Starting time: Wed May 20 12:35:32 2026
  * Host name:     c1-44
  * Process ID:    2347704
  * Working dir.:  /cluster/projects/nn14654k/ylvaos/basis_set_n_funcs/functionals/N12/H2O2/out
  ***********************************

Using LibXC functional ID  82 : Minnesota N12 exchange functional
[ 1]  R. Peverati and D. G. Truhlar.,  J. Chem. Theory Comput. 8, 2310 (2012)
Using LibXC functional ID  80 : Minnesota N12 correlation functional
[ 1]  R. Peverati and D. G. Truhlar.,  J. Chem. Theory Comput. 8, 2310 (2012)
Using LibXC functional ID  82 : Minnesota N12 exchange functional
[ 1]  R. Peverati and D. G. Truhlar.,  J. Chem. Theory Comput. 8, 2310 (2012)
Using LibXC functional ID  80 : Minnesota N12 correlation functional
[ 1]  R. Peverati and D. G. Truhlar.,  J. Chem. Theory Comput. 8, 2310 (2012)
Your calculation utilizes LibXC
by S. Lehtola, C. Steigemann, M. J. T. Oliveira & M. A. L. Marques
Please cite in your paper:
Lehtola, S.; Steigemann, C.; Oliveira, M.J.T.; Marques, M. A. L. Software X, 7, (2018), 1.
   

================================================================================

----- Orbital basis set information -----
Your calculation utilizes the basis: cc-pVQZ 
       H, B-Ne : Obtained from the ccRepo (grant-hill.group.shef.ac.uk/ccrepo) Feb. 2017
                 T. H. Dunning, Jr., J. Chem. Phys. 90, 1007 (1989)
            He : Obtained from the ccRepo (grant-hill.group.shef.ac.uk/ccrepo) Feb. 2017
                 D. E. Woon, T. H. Dunning, Jr., J. Chem. Phys. 100, 2975 (1994)
  Li-Be, Na-Mg : Obtained from the ccRepo (grant-hill.group.shef.ac.uk/ccrepo) Feb. 2017
                 B. P. Prascher, D. E. Woon, K. A. Peterson, T. H. Dunning, Jr., A. K. Wilson, Theor. Chem. Acc. 128, 69 (2011)
         Al-Ar : Obtained from the ccRepo (grant-hill.group.shef.ac.uk/ccrepo) Feb. 2017
                 D. E. Woon, T. H. Dunning, Jr., J. Chem. Phys. 98, 1358 (1993)
            Ca : Obtained from the Peterson Research Group Website (tyr0.chem.wsu.edu/~kipeters) Feb. 2017
                 J. Koput, K. A. Peterson, J. Phys. Chem. 106, 9595 (2002)
         Sc-Zn : Obtained from the ccRepo (grant-hill.group.shef.ac.uk/ccrepo) Feb. 2017
                 N. B. Balabanov, K. A. Peterson, J. Chem. Phys. 123, 064107 (2005)
                 N. B. Balabanov, K. A. Peterson, J. Chem. Phys. 125, 074110 (2006)
         Ga-Kr : Obtained from the ccRepo (grant-hill.group.shef.ac.uk/ccrepo) Feb. 2017
                 A. K. Wilson, D. E. Woon, K. A. Peterson, T. H. Dunning, Jr., J. Chem. Phys. 110, 7667 (1999)

================================================================================
                                        WARNINGS
                       Please study these warnings very carefully!
================================================================================


================================================================================
                                       INPUT FILE
================================================================================
NAME = /cluster/projects/nn14654k/ylvaos/basis_set_n_funcs/functionals/N12/H2O2/inp/H2O2_N12_ccpvqz.inp
|  1> ! dft cc-pVQZ TightSCF
|  2> %pal nprocs 8 end
|  3> 
|  4> %loc
|  5>   LocMet NewBoys
|  6>   Occ true
|  7> end
|  8> 
|  9> %method
| 10>   exchange gga_x_N12
| 11>   correlation gga_c_N12
| 12> end
| 13> 
| 14> %elprop
| 15>   Dipole true
| 16>   Quadrupole true
| 17> end
| 18> 
| 19> * xyz 0 1
| 20> O    0.000000000000   0.737500000000  -0.052800000000
| 21> O    0.000000000000  -0.737500000000  -0.052800000000
| 22> H    0.819000000000   0.817000000000   0.422000000000
| 23> H   -0.819000000000  -0.817000000000   0.422000000000
| 24> *
| 25> 
| 26> 
| 27>                          ****END OF INPUT****
================================================================================

                       ****************************
                       * Single Point Calculation *
                       ****************************

---------------------------------
CARTESIAN COORDINATES (ANGSTROEM)
---------------------------------
  O      0.000000    0.737500   -0.052800
  O      0.000000   -0.737500   -0.052800
  H      0.819000    0.817000    0.422000
  H     -0.819000   -0.817000    0.422000

----------------------------
CARTESIAN COORDINATES (A.U.)
----------------------------
  NO LB      ZA    FRAG     MASS         X           Y           Z
   0 O     8.0000    0    15.999    0.000000    1.393673   -0.099778
   1 O     8.0000    0    15.999    0.000000   -1.393673   -0.099778
   2 H     1.0000    0     1.008    1.547686    1.543906    0.797464
   3 H     1.0000    0     1.008   -1.547686   -1.543906    0.797464

--------------------------------
INTERNAL COORDINATES (ANGSTROEM)
--------------------------------
 O      0   0   0     0.000000000000     0.00000000     0.00000000
 O      1   0   0     1.475000000000     0.00000000     0.00000000
 H      1   2   0     0.950008573646    94.80032267     0.00000000
 H      2   1   3     0.950008573646    94.80032267   119.79556962

---------------------------
INTERNAL COORDINATES (A.U.)
---------------------------
 O      0   0   0     0.000000000000     0.00000000     0.00000000
 O      1   0   0     2.787346047534     0.00000000     0.00000000
 H      1   2   0     1.795256029067    94.80032267     0.00000000
 H      2   1   3     1.795256029067    94.80032267   119.79556962

---------------------
BASIS SET INFORMATION
---------------------
There are 2 groups of distinct atoms

 Group   1 Type O   : 21s6p3d2f1g contracted to 5s4p3d2f1g pattern {99111/3111/111/11/1}
 Group   2 Type H   : 6s3p2d1f contracted to 4s3p2d1f pattern {3111/111/11/1}

Atom   0O    basis set group =>   1
Atom   1O    basis set group =>   1
Atom   2H    basis set group =>   2
Atom   3H    basis set group =>   2


           ************************************************************
           *        Program running with 8 parallel MPI-processes     *
           *              working on a common directory               *
           ************************************************************
------------------------------------------------------------------------------
                             ORCA STARTUP CALCULATIONS
------------------------------------------------------------------------------
------------------------------------------------------------------------------
                   ___                                                        
                  /   \      - P O W E R E D   B Y -                         
                 /     \                                                     
                 |  |  |   _    _      __       _____    __    __             
                 |  |  |  | |  | |    /  \     |  _  \  |  |  /  |          
                  \  \/   | |  | |   /    \    | | | |  |  | /  /          
                 / \  \   | |__| |  /  /\  \   | |_| |  |  |/  /          
                |  |  |   |  __  | /  /__\  \  |    /   |      \           
                |  |  |   | |  | | |   __   |  |    \   |  |\   \          
                \     /   | |  | | |  |  |  |  | |\  \  |  | \   \       
                 \___/    |_|  |_| |__|  |__|  |_| \__\ |__|  \__/        
                                                                              
                      - O R C A' S   B I G   F R I E N D -                    
                                      &                                       
                       - I N T E G R A L  F E E D E R -                       
                                                                              
 v1 FN, 2020, v2 2021, v3 2022-2024                                           
------------------------------------------------------------------------------


----------------------
SHARK INTEGRAL PACKAGE
----------------------

Number of atoms                             ...      4
Number of basis functions                   ...    184
Number of shells                            ...     64
Maximum angular momentum                    ...      4
Integral batch strategy                     ... SHARK/LIBINT Hybrid
RI-J (if used) integral strategy            ... SPLIT-RIJ (Revised 2003 algorithm where possible)
Printlevel                                  ...      1
Contraction scheme used                     ... PARTIAL GENERAL contraction
Prescreening option                         ... SCHWARTZ
   Thresh                                   ... 2.500e-11
   Tcut                                     ... 2.500e-12
   Tpresel                                  ... 2.500e-12 
Coulomb Range Separation                    ... NOT USED
Exchange Range Separation                   ... NOT USED
Multipole approximations                    ... NOT USED
Finite Nucleus Model                        ... NOT USED
CABS basis                                  ... NOT available
Auxiliary Coulomb fitting basis             ... NOT available
Auxiliary J/K fitting basis                 ... NOT available
Auxiliary Correlation fitting basis         ... NOT available
Auxiliary 'external' fitting basis          ... NOT available

Checking pre-screening integrals            ... done (  0.0 sec) Dimension = 64
Save PGC pre-screening integrals            ... done (  0.0 sec) Dimension = 64
Calculate PGC overlap integrals             ... done (  0.0 sec) Dimension = 50
Calculating pre-screening integrals (ORCA)  ... done (  0.1 sec) Dimension = 50
Shell pair information
Shell pair cut-off parameter TPreSel        ...   2.5e-12
Total number of shell pairs                 ...      2080
Shell pairs after pre-screening             ...      1961
Total number of primitive shell pairs       ...      2640
Primitive shell pairs kept                  ...      2379
          la=0 lb=0:    435 shell pairs
          la=1 lb=0:    428 shell pairs
          la=1 lb=1:    105 shell pairs
          la=2 lb=0:    314 shell pairs
          la=2 lb=1:    140 shell pairs
          la=2 lb=2:     55 shell pairs
          la=3 lb=0:    192 shell pairs
          la=3 lb=1:     84 shell pairs
          la=3 lb=2:     60 shell pairs
          la=3 lb=3:     21 shell pairs
          la=4 lb=0:     64 shell pairs
          la=4 lb=1:     28 shell pairs
          la=4 lb=2:     20 shell pairs
          la=4 lb=3:     12 shell pairs
          la=4 lb=4:      3 shell pairs

Checking whether 4 symmetric matrices of dimension 184 fit in memory
:Max Core in MB      =   4096.00
 MB in use           =      5.48
 MB left             =   4090.52
 MB needed           =      0.52
 Data fit in memory  = YES
Calculating Nuclear repulsion               ... done (  0.0 sec) ENN=     36.753926669986 Eh

Diagonalization of the overlap matrix:
Smallest eigenvalue                        ... 4.980e-04
Time for diagonalization                   ...    0.002 sec
Threshold for overlap eigenvalues          ... 1.000e-07
Number of eigenvalues below threshold      ... 0
Time for construction of square roots      ...    0.002 sec
Total time needed                          ...    0.006 sec

-------------------
DFT GRID GENERATION
-------------------

General Integration Accuracy     IntAcc      ... 4.388
Radial Grid Type                 RadialGrid  ... OptM3 with GC (2021)
Angular Grid (max. ang.)         AngularGrid ... 4 (Lebedev-302)
Angular grid pruning method      GridPruning ... 4 (adaptive)
Weight generation scheme         WeightScheme... mBecke (2022)
Basis function cutoff            BFCut       ... 1.0000e-11
Integration weight cutoff        WCut        ... 1.0000e-14
Partially contracted basis set               ... off
Rotationally invariant grid construction     ... off
Angular grids for H and He will be reduced by one unit

Total number of grid points                  ...    18864
Total number of batches                      ...      298
Average number of points per batch           ...       63
Average number of grid points per atom       ...     4716

---------------------
SHARK GRID GENERATION
---------------------

General Integration Accuracy     IntAcc      ... 4.388
Radial Grid Type                 RadialGrid  ... OptM3 with GC (2021)
Angular Grid (max. ang.)         AngularGrid ... 4 (Lebedev-302)
Angular grid pruning method      GridPruning ... 4 (adaptive)
Weight generation scheme         WeightScheme... mBecke (2022)
Basis function cutoff            BFCut       ... 1.0000e-11
Integration weight cutoff        WCut        ... 1.0000e-14
Partially contracted basis set               ... off
Rotationally invariant grid construction     ... off
Angular grids for H and He will be reduced by one unit
Steep s-basis detected: some atoms will have their radial
                        grid points doubled.

Total number of grid points                  ...    31318
Total number of batches                      ...      492
Average number of points per batch           ...       63
Average number of grid points per atom       ...     7830
Grids setup in   0.2 sec
Initializing property integral containers    ... done (  0.0 sec)

SHARK setup successfully completed in   0.3 seconds

Maximum memory used throughout the entire STARTUP-calculation: 31.4 MB


           ************************************************************
           *        Program running with 8 parallel MPI-processes     *
           *              working on a common directory               *
           ************************************************************
-------------------------------------------------------------------------------
                                 ORCA GUESS
                   Start orbitals & Density for SCF / CASSCF
-------------------------------------------------------------------------------

------------
SCF SETTINGS
------------
Hamiltonian:
 Density Functional     Method          .... DFT(GTOs)
  Functional kind                       .... Exchange
  Functional name                       .... Minnesota N12 exchange functional
  Functional family                     .... GGA
  Functional refs                              
    [ 0] R. Peverati and D. G. Truhlar.,  J. Chem. Theory Comput. 8, 2310 (2012), doi: 10.1021/ct3002656
  Functional external parameters        .... 16
    Parameter  0 _CC00      =  1.000000e+00 : _CC00               
    Parameter  1 _CC01      =  5.078800e-01 : _CC01               
    Parameter  2 _CC02      =  1.682330e-01 : _CC02               
    Parameter  3 _CC03      =  1.288870e-01 : _CC03               
    Parameter  4 _CC10      =  8.602110e-02 : _CC10               
    Parameter  5 _CC11      = -1.710080e+01 : _CC11               
    Parameter  6 _CC12      =  6.508140e+01 : _CC12               
    Parameter  7 _CC13      = -7.017260e+01 : _CC13               
    Parameter  8 _CC20      = -3.907550e-01 : _CC20               
    Parameter  9 _CC21      =  5.133920e+01 : _CC21               
    Parameter 10 _CC22      = -1.662200e+02 : _CC22               
    Parameter 11 _CC23      =  1.427380e+02 : _CC23               
    Parameter 12 _CC30      =  4.036110e-01 : _CC30               
    Parameter 13 _CC31      = -3.446310e+01 : _CC31               
    Parameter 14 _CC32      =  7.616610e+01 : _CC32               
    Parameter 15 _CC33      = -2.418340e+00 : _CC33               
  Functional kind                       .... Correlation
  Functional name                       .... Minnesota N12 correlation functional
  Functional family                     .... GGA
  Functional refs                              
    [ 0] R. Peverati and D. G. Truhlar.,  J. Chem. Theory Comput. 8, 2310 (2012), doi: 10.1021/ct3002656
  Functional external parameters        .... 10
    Parameter  0 _css0      =  1.000000e+00 : u^0 coefficient for same-spin correlation
    Parameter  1 _css1      = -5.531700e+00 : u^1 coefficient for same-spin correlation
    Parameter  2 _css2      =  3.079580e+01 : u^2 coefficient for same-spin correlation
    Parameter  3 _css3      = -5.641960e+01 : u^3 coefficient for same-spin correlation
    Parameter  4 _css4      =  3.212500e+01 : u^4 coefficient for same-spin correlation
    Parameter  5 _cos0      =  1.000000e+00 : u^0 coefficient for opposite-spin correlation
    Parameter  6 _cos1      =  3.245110e+00 : u^1 coefficient for opposite-spin correlation
    Parameter  7 _cos2      = -2.528930e+01 : u^2 coefficient for opposite-spin correlation
    Parameter  8 _cos3      =  1.444070e+01 : u^3 coefficient for opposite-spin correlation
    Parameter  9 _cos4      =  1.968700e+01 : u^4 coefficient for opposite-spin correlation
 Gradients option       PostSCFGGA      .... off


General Settings:
 Integral files         IntName         .... /cluster/projects/nn14654k/ylvaos/basis_set_n_funcs/functionals/N12/H2O2/inp/H2O2_N12_ccpvqz
 Hartree-Fock type      HFTyp           .... RHF
 Total Charge           Charge          ....    0
 Multiplicity           Mult            ....    1
 Number of Electrons    NEL             ....   18
 Basis Dimension        Dim             ....  170
 Nuclear Repulsion      ENuc            ....     36.7539266700 Eh

Convergence Acceleration:
 AO-DIIS                CNVDIIS         .... on
   Start iteration      DIISMaxIt       ....    12
   Startup error        DIISStart       ....  0.200000
   # of expansion vecs  DIISMaxEq       ....     5
   Bias factor          DIISBfac        ....   1.050
   Max. coefficient     DIISMaxC        ....  10.000
 MO-DIIS                CNVKDIIS        .... off
 Trust-Rad. Augm. Hess. CNVTRAH         .... auto
   Auto Start mean grad. ratio tolernc. ....  1.125000
   Auto Start start iteration           ....    50
   Auto Start num. interpolation iter.  ....    10
   Max. Number of Micro iterations      ....    24
   Max. Number of Macro iterations      .... Maxiter - #DIIS iter
   Number of Davidson start vectors     ....     2
   Converg. threshold    (grad. norm)   ....   1.000e-05
   Grad. Scal. Fac. for Micro threshold ....   0.100
   Minimum threshold for Micro iter.    ....   1.000e-02
   NR start threshold (gradient norm)   ....   1.000e-04
   Initial trust radius                 ....   0.400
   Minimum AH scaling param. (alpha)    ....   1.000
   Maximum AH scaling param. (alpha)    .... 1000.000
   Quad. conv. algorithm                .... NR
   White noise on init. David. guess    .... on
   Maximum white noise                  ....   0.010
   Pseudo random numbers                .... off
   Inactive MOs                         .... canonical
   Orbital update algorithm             .... Taylor
   Preconditioner                       .... Diag
   Full preconditioner red. dimension   ....   250
 SOSCF                 CNVSOSCF           .... on
   Start iteration     SOSCFMaxIt         ....   150
   Startup grad/error  SOSCFStart         ....  0.003300
   Hessian update      SOSCFHessUp        .... L-BFGS
   Autom. constraints  SOSCFAutoConstrain .... off
 Level Shifting         CNVShift        .... on
   Level shift para.    LevelShift      ....    0.2500
   Turn off err/grad.   ShiftErr        ....    0.0010
 Zerner damping         CNVZerner       .... off
 Static damping         CNVDamp         .... on
   Fraction old density DampFac         ....    0.7000
   Max. Damping (<1)    DampMax         ....    0.9800
   Min. Damping (>=0)   DampMin         ....    0.0000
   Turn off err/grad.   DampErr         ....    0.1000

SCF Procedure:
 Maximum # iterations   MaxIter         ....   125
 SCF integral mode      SCFMode         .... Direct
   Integral package                     .... SHARK and LIBINT hybrid scheme
 Reset frequency        DirectResetFreq ....    20
 Integral Threshold     Thresh          ....  2.500e-11 Eh
 Primitive CutOff       TCut            ....  2.500e-12 Eh

Convergence Tolerance:
 Convergence Check Mode ConvCheckMode   .... Total+1el-Energy
 Convergence forced     ConvForced      .... 0
 Energy Change          TolE            ....  1.000e-08 Eh
 1-El. energy change                    ....  1.000e-05 Eh
 Orbital Gradient       TolG            ....  1.000e-05
 Orbital Rotation angle TolX            ....  1.000e-05
 DIIS Error             TolErr          ....  5.000e-07

------------------------------
INITIAL GUESS: MODEL POTENTIAL
------------------------------
Loading Hartree-Fock densities                     ... done
Calculating cut-offs                               ... done
Initializing the effective Hamiltonian             ... done
Setting up the integral package (SHARK)            ... done
Starting the Coulomb interaction                   ... done (   0.0 sec)
Making the grid                                    ... done (   0.0 sec)
Mapping shells                                     ... done
Starting the XC term evaluation                    ... done (   0.0 sec)
  promolecular density results
     # of electrons  =     17.998989308
     EX              =    -16.501944716
     EC              =     -0.987415324
     EX+EC           =    -17.489360041
Transforming the Hamiltonian                       ... done (   0.0 sec)
Diagonalizing the Hamiltonian                      ... done (   0.0 sec)
Back transforming the eigenvectors                 ... done (   0.0 sec)
Now organizing SCF variables                       ... done
                      ------------------
                      INITIAL GUESS DONE (   0.1 sec)
                      ------------------
             **** ENERGY FILE WAS UPDATED (/cluster/projects/nn14654k/ylvaos/basis_set_n_funcs/functionals/N12/H2O2/inp/H2O2_N12_ccpvqz.en.tmp) ****
Finished Guess after   0.1 sec
Maximum memory used throughout the entire GUESS-calculation: 11.7 MB


           ************************************************************
           *        Program running with 8 parallel MPI-processes     *
           *              working on a common directory               *
           ************************************************************

-------------------------------------------------------------------------------------------
                                      ORCA LEAN-SCF
                              memory conserving SCF solver
-------------------------------------------------------------------------------------------

----------------------------------------D-I-I-S--------------------------------------------
Iteration    Energy (Eh)           Delta-E    RMSDP     MaxDP     DIISErr   Damp  Time(sec)
-------------------------------------------------------------------------------------------
               ***  Starting incremental Fock matrix formation  ***
    1    -151.4657702203863323     0.00e+00  3.34e-03  3.36e-02  1.99e-01  0.700   0.3
    2    -151.5071304820354499    -4.14e-02  2.09e-03  2.08e-02  8.52e-02  0.700   0.3
                               ***Turning on AO-DIIS***
    3    -151.5207473148100235    -1.36e-02  6.39e-04  4.76e-03  1.97e-02  0.700   0.3
    4    -151.5294680624343755    -8.72e-03  7.31e-04  5.23e-03  1.08e-02  0.000   0.3
    5    -151.5496075813208563    -2.01e-02  2.39e-04  1.59e-03  3.71e-03  0.000   0.3
                              *** Initializing SOSCF ***
---------------------------------------S-O-S-C-F--------------------------------------
Iteration    Energy (Eh)           Delta-E    RMSDP     MaxDP     MaxGrad    Time(sec)
--------------------------------------------------------------------------------------
    6    -151.5496729979578276    -6.54e-05  6.47e-05  4.86e-04  5.75e-04     0.3
               *** Restarting incremental Fock matrix formation ***
    7    -151.5496753817351987    -2.38e-06  3.80e-05  2.39e-04  1.20e-04     0.3
    8    -151.5496755736281216    -1.92e-07  3.50e-06  2.90e-05  2.26e-05     0.3
    9    -151.5496755793281523    -5.70e-09  2.31e-06  1.91e-05  1.65e-05     0.3
                 **** Energy Check signals convergence ****

               *****************************************************
               *                     SUCCESS                       *
               *           SCF CONVERGED AFTER   9 CYCLES          *
               *****************************************************

             **** ENERGY FILE WAS UPDATED (/cluster/projects/nn14654k/ylvaos/basis_set_n_funcs/functionals/N12/H2O2/inp/H2O2_N12_ccpvqz.en.tmp) ****

----------------
TOTAL SCF ENERGY
----------------

Total Energy       :       -151.54967558360931 Eh           -4123.87633 eV

Components:
Nuclear Repulsion  :         36.75392666998557 Eh            1000.12519 eV
Electronic Energy  :       -188.30360225359487 Eh           -5124.00152 eV
One Electron Energy:       -281.83340739057559 Eh           -7669.07690 eV
Two Electron Energy:         93.52980513698070 Eh            2545.07539 eV

Virial components:
Potential Energy   :       -302.15595596438516 Eh           -8222.08156 eV
Kinetic Energy     :        150.60628038077581 Eh            4098.20524 eV
Virial Ratio       :          2.00626398315162

DFT components:
N(Alpha)           :        9.000001346475 electrons
N(Beta)            :        9.000001346475 electrons
N(Total)           :       18.000002692950 electrons
E(X)               :      -16.829891581568 Eh       
E(C)               :       -1.005227673413 Eh       
E(XC)              :      -17.835119254981 Eh       

---------------
SCF CONVERGENCE
---------------

  Last Energy change         ...    5.7000e-09  Tolerance :   1.0000e-08
  Last MAX-Density change    ...    1.9145e-05  Tolerance :   1.0000e-07
  Last RMS-Density change    ...    2.3062e-06  Tolerance :   5.0000e-09
  Last DIIS Error            ...    5.7503e-04  Tolerance :   5.0000e-07
  Last Orbital Gradient      ...    1.6479e-05  Tolerance :   1.0000e-05
  Last Orbital Rotation      ...    1.3665e-05  Tolerance :   1.0000e-05


----------------
ORBITAL ENERGIES
----------------

  NO   OCC          E(Eh)            E(eV) 
   0   2.0000     -18.802517      -511.6425 
   1   2.0000     -18.802510      -511.6423 
   2   2.0000      -1.020856       -27.7789 
   3   2.0000      -0.820555       -22.3284 
   4   2.0000      -0.470716       -12.8088 
   5   2.0000      -0.446867       -12.1599 
   6   2.0000      -0.375333       -10.2133 
   7   2.0000      -0.285487        -7.7685 
   8   2.0000      -0.235542        -6.4094 
   9   0.0000      -0.049917        -1.3583 
  10   0.0000      -0.005299        -0.1442 
  11   0.0000       0.036064         0.9813 
  12   0.0000       0.276765         7.5311 
  13   0.0000       0.279883         7.6160 
  14   0.0000       0.297699         8.1008 
  15   0.0000       0.307615         8.3706 
  16   0.0000       0.388201        10.5635 
  17   0.0000       0.428388        11.6570 
  18   0.0000       0.435651        11.8547 
  19   0.0000       0.447931        12.1888 
*Only the first 10 virtual orbitals were printed.

                    ********************************
                    * MULLIKEN POPULATION ANALYSIS *
                    ********************************

-----------------------
MULLIKEN ATOMIC CHARGES
-----------------------
   0 O :   -0.264929
   1 O :   -0.264929
   2 H :    0.264929
   3 H :    0.264929
Sum of atomic charges:    0.0000000

--------------------------------
MULLIKEN REDUCED ORBITAL CHARGES
--------------------------------
  0 O s       :     3.792841  s :     3.792841
      pz      :     1.832859  p :     4.429494
      px      :     1.575411
      py      :     1.021224
      dz2     :     0.004804  d :     0.038351
      dxz     :     0.006406
      dyz     :     0.007798
      dx2y2   :     0.014222
      dxy     :     0.005122
      f0      :     0.000654  f :     0.004047
      f+1     :     0.000166
      f-1     :     0.000861
      f+2     :     0.000642
      f-2     :     0.000012
      f+3     :     0.000675
      f-3     :     0.001036
      g0      :     0.000019  g :     0.000197
      g+1     :     0.000008
      g-1     :     0.000021
      g+2     :     0.000033
      g-2     :     0.000006
      g+3     :     0.000012
      g-3     :     0.000018
      g+4     :     0.000047
      g-4     :     0.000034

  1 O s       :     3.792841  s :     3.792841
      pz      :     1.832859  p :     4.429494
      px      :     1.575411
      py      :     1.021224
      dz2     :     0.004804  d :     0.038351
      dxz     :     0.006406
      dyz     :     0.007798
      dx2y2   :     0.014222
      dxy     :     0.005122
      f0      :     0.000654  f :     0.004047
      f+1     :     0.000166
      f-1     :     0.000861
      f+2     :     0.000642
      f-2     :     0.000012
      f+3     :     0.000675
      f-3     :     0.001036
      g0      :     0.000019  g :     0.000197
      g+1     :     0.000008
      g-1     :     0.000021
      g+2     :     0.000033
      g-2     :     0.000006
      g+3     :     0.000012
      g-3     :     0.000018
      g+4     :     0.000047
      g-4     :     0.000034

  2 H s       :     0.623967  s :     0.623967
      pz      :     0.044692  p :     0.099222
      px      :     0.037294
      py      :     0.017236
      dz2     :     0.002587  d :     0.010714
      dxz     :     0.003517
      dyz     :     0.000578
      dx2y2   :     0.003299
      dxy     :     0.000734
      f0      :     0.000040  f :     0.001168
      f+1     :     0.000570
      f-1     :     0.000011
      f+2     :     0.000146
      f-2     :     0.000097
      f+3     :     0.000169
      f-3     :     0.000134

  3 H s       :     0.623967  s :     0.623967
      pz      :     0.044692  p :     0.099222
      px      :     0.037294
      py      :     0.017236
      dz2     :     0.002587  d :     0.010714
      dxz     :     0.003517
      dyz     :     0.000578
      dx2y2   :     0.003299
      dxy     :     0.000734
      f0      :     0.000040  f :     0.001168
      f+1     :     0.000570
      f-1     :     0.000011
      f+2     :     0.000146
      f-2     :     0.000097
      f+3     :     0.000169
      f-3     :     0.000134



                     *******************************
                     * LOEWDIN POPULATION ANALYSIS *
                     *******************************

----------------------
LOEWDIN ATOMIC CHARGES
----------------------
   0 O :    0.513381
   1 O :    0.513381
   2 H :   -0.513381
   3 H :   -0.513381

-------------------------------
LOEWDIN REDUCED ORBITAL CHARGES
-------------------------------
  0 O s       :     3.224766  s :     3.224766
      pz      :     1.614657  p :     4.077133
      px      :     1.491541
      py      :     0.970934
      dz2     :     0.014974  d :     0.149923
      dxz     :     0.010943
      dyz     :     0.036174
      dx2y2   :     0.053961
      dxy     :     0.033872
      f0      :     0.003176  f :     0.033453
      f+1     :     0.001658
      f-1     :     0.004300
      f+2     :     0.006636
      f-2     :     0.000340
      f+3     :     0.008244
      f-3     :     0.009098
      g0      :     0.000103  g :     0.001345
      g+1     :     0.000061
      g-1     :     0.000204
      g+2     :     0.000208
      g-2     :     0.000040
      g+3     :     0.000035
      g-3     :     0.000185
      g+4     :     0.000218
      g-4     :     0.000291

  1 O s       :     3.224766  s :     3.224766
      pz      :     1.614657  p :     4.077133
      px      :     1.491541
      py      :     0.970934
      dz2     :     0.014974  d :     0.149923
      dxz     :     0.010943
      dyz     :     0.036174
      dx2y2   :     0.053961
      dxy     :     0.033872
      f0      :     0.003176  f :     0.033453
      f+1     :     0.001658
      f-1     :     0.004300
      f+2     :     0.006636
      f-2     :     0.000340
      f+3     :     0.008244
      f-3     :     0.009098
      g0      :     0.000103  g :     0.001345
      g+1     :     0.000061
      g-1     :     0.000204
      g+2     :     0.000208
      g-2     :     0.000040
      g+3     :     0.000035
      g-3     :     0.000185
      g+4     :     0.000218
      g-4     :     0.000291

  2 H s       :     0.741115  s :     0.741115
      pz      :     0.183435  p :     0.507291
      px      :     0.223215
      py      :     0.100640
      dz2     :     0.052050  d :     0.221342
      dxz     :     0.061887
      dyz     :     0.014238
      dx2y2   :     0.052366
      dxy     :     0.040801
      f0      :     0.002358  f :     0.043633
      f+1     :     0.017397
      f-1     :     0.000279
      f+2     :     0.006329
      f-2     :     0.005347
      f+3     :     0.006296
      f-3     :     0.005626

  3 H s       :     0.741115  s :     0.741115
      pz      :     0.183435  p :     0.507291
      px      :     0.223215
      py      :     0.100640
      dz2     :     0.052050  d :     0.221342
      dxz     :     0.061887
      dyz     :     0.014238
      dx2y2   :     0.052366
      dxy     :     0.040801
      f0      :     0.002358  f :     0.043633
      f+1     :     0.017397
      f-1     :     0.000279
      f+2     :     0.006329
      f-2     :     0.005347
      f+3     :     0.006296
      f-3     :     0.005626



                      *****************************
                      * MAYER POPULATION ANALYSIS *
                      *****************************

  NA   - Mulliken gross atomic population
  ZA   - Total nuclear charge
  QA   - Mulliken gross atomic charge
  VA   - Mayer's total valence
  BVA  - Mayer's bonded valence
  FA   - Mayer's free valence

  ATOM       NA         ZA         QA         VA         BVA        FA
  0 O      8.2649     8.0000    -0.2649     2.0104     2.0104     0.0000
  1 O      8.2649     8.0000    -0.2649     2.0104     2.0104     0.0000
  2 H      0.7351     1.0000     0.2649     1.0412     1.0412     0.0000
  3 H      0.7351     1.0000     0.2649     1.0412     1.0412     0.0000

  Mayer bond orders larger than 0.100000
B(  0-O ,  1-O ) :   0.9711 B(  0-O ,  2-H ) :   1.0111 B(  1-O ,  3-H ) :   1.0111 


-------
TIMINGS
-------

Total SCF time: 0 days 0 hours 0 min 3 sec 

Total time                  ....       3.292 sec
Sum of individual times     ....       2.751 sec  ( 83.6%)

SCF preparation             ....       0.066 sec  (  2.0%)
Fock matrix formation       ....       2.362 sec  ( 71.7%)
  Startup                   ....       0.008 sec  (  0.4% of F)
  Coulomb formation         ....       2.086 sec  ( 88.3% of F)
  XC integration            ....       0.340 sec  ( 14.4% of F)
    XC Preparation          ....       0.000 sec  (  0.0% of XC)
    Basis function eval.    ....       0.036 sec  ( 10.5% of XC)
    Density eval.           ....       0.028 sec  (  8.2% of XC)
    XC-Functional eval.     ....       0.022 sec  (  6.5% of XC)
    XC-Potential eval.      ....       0.075 sec  ( 22.2% of XC)
Diagonalization             ....       0.000 sec  (  0.0%)
Density matrix formation    ....       0.043 sec  (  1.3%)
Total Energy calculation    ....       0.014 sec  (  0.4%)
Population analysis         ....       0.012 sec  (  0.4%)
Orbital Transformation      ....       0.018 sec  (  0.5%)
Orbital Orthonormalization  ....       0.000 sec  (  0.0%)
DIIS solution               ....       0.172 sec  (  5.2%)
SOSCF solution              ....       0.064 sec  (  1.9%)
Finished LeanSCF after   3.3 sec

Maximum memory used throughout the entire LEANSCF-calculation: 21.5 MB


           ************************************************************
           *        Program running with 8 parallel MPI-processes     *
           *              working on a common directory               *
           ************************************************************

------------------------------------------------------------------------------
                         ORCA PROPERTY INTEGRAL CALCULATIONS
------------------------------------------------------------------------------

GBWName                                   ... /cluster/projects/nn14654k/ylvaos/basis_set_n_funcs/functionals/N12/H2O2/inp/H2O2_N12_ccpvqz.gbw
Number of atoms                           ...      4
Number of basis functions                 ...    184
Max core memory                           ...   4096 MB

Dipole integrals                          ... YES
Quadrupole integrals                      ... YES
Linear momentum integrals                 ...  NO
Angular momentum integrals                ...  NO
Higher moments length integrals           ...  NO
Higher moments velocity integrals         ...  NO
Kinetic energy integrals                  ...  NO
GIAO right hand sides                     ...  NO
GIAO dipole derivative integrals          ...  NO
SOC integrals                             ...  NO
EPR diamagnetic integrals (GIAO)          ...  NO
EPR gauge integrals                       ...  NO
Field gradient integrals                  ...  NO (   0 nuclei)
Spin-dipole/Fermi contact integrals       ...  NO (   0 nuclei)
Contact density integrals                 ...  NO (   0 nuclei)
Nucleus-orbit integrals                   ...  NO (   0 nuclei)
Geometric perturbations                   ...  NO (   4 nuclei)

Choice of electric origin   ... Center of mass
Position of electric origin ... (  0.0000,  0.0000, -0.0466) 
Choice of magnetic origin   ... GIAO
Position of magnetic origin ... (  0.0000,  0.0000,  0.0000) 

Calculating integrals                     ... Electric Dipole (Length)     done (  0.0 sec)
Calculating integrals                     ... Electric Quadrupole (Length) done (  0.0 sec)

Property integrals calculated in   0.0 sec

Maximum memory used throughout the entire PROPINT-calculation: 12.4 MB
------------------------------------------------------------------------------
                           ORCA ORBITAL LOCALIZATION
------------------------------------------------------------------------------

Input orbitals are from                  ... /cluster/projects/nn14654k/ylvaos/basis_set_n_funcs/functionals/N12/H2O2/inp/H2O2_N12_ccpvqz.gbw
Output orbitals are to                   ... /cluster/projects/nn14654k/ylvaos/basis_set_n_funcs/functionals/N12/H2O2/inp/H2O2_N12_ccpvqz.loc
Max. number of iterations                ... 128
Localizations seeded randomly            ... on
Convergence tolerance                    ... 1.000e-06
Threshold for strong local MOs           ... 9.500e-01
Threshold for bond MOs                   ... 8.500e-01
Operator                                 ... 0
Orbital range for localization           ... 2 to 8
Localization criterion                   ... NEW-BOYS
Doing the dipole integrals               ... o.k.
Initial value of the localization sum :    12.839050
ITERATION   0 : L=   16.6880341609 DL=  3.85e+00 (AVERGE_DL)=    0.4281179005 
ITERATION   1 : L=   17.0384351324 DL=  3.50e-01 (AVERGE_DL)=    0.1291733740 
ITERATION   2 : L=   17.0664863821 DL=  2.81e-02 (AVERGE_DL)=    0.0365482393 
ITERATION   3 : L=   17.0689263259 DL=  2.44e-03 (AVERGE_DL)=    0.0107790445 
ITERATION   4 : L=   17.0691337085 DL=  2.07e-04 (AVERGE_DL)=    0.0031425086 
ITERATION   5 : L=   17.0691514555 DL=  1.77e-05 (AVERGE_DL)=    0.0009192905 
ITERATION   6 : L=   17.0691529858 DL=  1.53e-06 (AVERGE_DL)=    0.0002699513 
ITERATION   7 : L=   17.0691531181 DL=  1.32e-07 (AVERGE_DL)=    0.0000793792 
LOCALIZATION SUM CONVERGED


--------------------------------------------------------------------------------
                    LOCALIZED MOLECULAR ORBITAL COMPOSITIONS
--------------------------------------------------------------------------------

The Mulliken populations for each LMO on each atom are computed
The LMO`s will be ordered according to atom index and type
  (A) Strongly localized MO`s have populations of >=0.950 on one atom
  (B) Two center bond orbitals have populations of >=0.850 on two atoms
  (C) Other MO`s are considered to be `delocalized`

FOUND  -   4 strongly local MO`s
       -   3 two center bond MO`s
       -   0 significantly delocalized MO`s

Rather strongly localized orbitals:
MO   5:   1O  -   0.986852
MO   4:   1O  -   0.985948
MO   3:   0O  -   0.986852
MO   2:   0O  -   0.985948
Bond-like localized orbitals:
MO   8:   3H  -   0.341462  and   1O  -   0.670110
MO   7:   2H  -   0.341462  and   0O  -   0.670110
MO   6:   1O  -   0.508554  and   0O  -   0.508554
Localized MO's were stored in: /cluster/projects/nn14654k/ylvaos/basis_set_n_funcs/functionals/N12/H2O2/inp/H2O2_N12_ccpvqz.loc

-------------------------   --------------------
FINAL SINGLE POINT ENERGY      -151.549675583609
-------------------------   --------------------



           ************************************************************
           *        Program running with 8 parallel MPI-processes     *
           *              working on a common directory               *
           ************************************************************

------------------------------------------------------------------------------
                              ORCA PROPERTY CALCULATIONS
------------------------------------------------------------------------------

GBWName                                 ... /cluster/projects/nn14654k/ylvaos/basis_set_n_funcs/functionals/N12/H2O2/inp/H2O2_N12_ccpvqz.gbw
Number of atoms                         ...      4
Number of basis functions               ...    184
Max core memory                         ...   4096 MB

Electric properties:
Dipole moment                           ... YES
Quadrupole moment                       ... YES
Static polarizability (Dipole/Dipole)   ...  NO
Static polarizability (Dipole/Quad.)    ...  NO
Static polarizability (Quad./Quad.)     ...  NO
Static polarizability (Velocity)        ...  NO
Static hyperpolarizability              ...  NO

Atomic electric properties:
Dipole moment                           ...  NO
Quadrupole moment                       ...  NO
Static polarizability                   ...  NO

Choice of electric origin               ... Center of mass
Position of electric origin             ...     0.000000     0.000000    -0.046598

General magnetic properties:
Magnetizability                         ...  NO

EPR properties:
g-Tensor (aka g-matrix)                 ...  NO
Zero-Field splitting spin-orbit         ...  NO
Zero-field splitting spin-spin          ...  NO
Hyperfine couplings                     ...  NO (   0 nuclei)
Quadrupole couplings                    ...  NO (   0 nuclei)
Contact density                         ...  NO (   0 nuclei)

NMR properties:
Chemical shifts                         ...  NO (   0 nuclei)
Spin-rotation constants                 ...  NO (   0 nuclei)
Spin-spin couplings                     ...  NO (   0 nuclei,    0 pairs)

Choice of magnetic origin               ... GIAO
Position of magnetic origin             ...     0.000000     0.000000     0.000000

Properties with geometric perturbations:
SCF Hessian                             ...  NO
IR spectrum                             ...  NO
VCD spectrum                            ...  NO
X-ray spectroscopy properties:
SCF XES/XAS/RIXS spectra                ...  NO

SCF SOC stabilization energy            ...  NO
Diagonal Born-Oppenheimer correction    ...  NO

-------------
DIPOLE MOMENT
-------------

Method             : SCF
Type of density    : Electron Density
Multiplicity       :   1
Irrep              :   0
Energy             :  -151.5496755836093143 Eh
Basis              : AO
                                X                 Y                 Z
Electronic contribution:      0.000000000       0.000000000      -0.202782491
Nuclear contribution   :      0.000000000       0.000000000       0.837257014
                        -----------------------------------------
Total Dipole Moment    :      0.000000000       0.000000000       0.634474523
                        -----------------------------------------
Magnitude (a.u.)       :      0.634474523
Magnitude (Debye)      :      1.612706074



--------------------
Rotational spectrum 
--------------------
 
Rotational constants in cm-1:            10.059327             0.874309             0.838612 
Rotational constants in MHz :        301571.027575         26211.132260         25140.954138 

Dipole components along the rotational axes: 
x,y,z [a.u.] :    -0.000000    -0.000000     0.634475 
x,y,z [Debye]:    -0.000000    -0.000000     1.612706 

 

Dipole moment calculation done in   0.0 sec 

-----------------
QUADRUPOLE MOMENT
-----------------

Method             : SCF
Type of density    : Electron Density
Multiplicity       :   1
Irrep              :   0
Energy             :  -151.5496755836093143 Eh
Basis              : AO

                XX              YY              ZZ              XY              XZ              YZ
  NUC        4.790662075    35.844484981     1.470132228     4.778963266     0.000000000     0.000000000
  EL       -11.653402755   -44.509538325   -10.114794444    -2.768318562    -0.000000000     0.000000000
  TOT       -6.862740680    -8.665053344    -8.644662216     2.010644705    -0.000000000     0.000000000 (a.u.)
            -9.230620921   -11.654793093   -11.627366328     2.704385892    -0.000000000     0.000000000 (Buckingham)

diagonalized tensor:
            -9.967252377    -8.644662216    -5.560541648 (a.u.)
           -13.406295327   -11.627366328    -7.479118687 (Buckingham)
            -7.706105640    -2.369318641    10.075424281 (traceless form in Buckingham)

            -0.543602459    -0.000000000    -0.839342818
             0.839342818     0.000000000    -0.543602459
            -0.000000000     1.000000000     0.000000000
        
Isotropic quadrupole :    -8.057485413

Quadrupole moment calculation done in   0.0 sec (  0.0 sec for integrals)

Maximum memory used throughout the entire PROP-calculation: 7.2 MB

--------------------------------
SUGGESTED CITATIONS FOR THIS RUN
--------------------------------

Below you find a list of papers that are relevant to this ORCA run
We neither can nor want to force you to cite these papers, but we appreciate if you do
You receive ORCA, which is the product of decades of hard work by many enthusiastic individuals, for free
The only thing we kindly ask in return is that you cite our papers,
We deeply appreciate it, if you show your appreciation for ORCA by not just citing the generic ORCA reference.

Please note that relegating all ORCA citations to the supporting information does *not* help us.
SI sections are not indexed - citations you put there will not count into any citation statistics
But we need these citations in order to attract the funding resources that allow us to do what we are doing

Therefore, if you are a happy ORCA user, please consider citing a few of the papers listed below in the main body of your paper

In addition to the list printed below, the program has created the file /cluster/projects/nn14654k/ylvaos/basis_set_n_funcs/functionals/N12/H2O2/inp/H2O2_N12_ccpvqz.bibtex that contains the list in bibtex format
You can import this file easily into all common literature databanks and citation aid programs

It goes without saying that in many instances, there are alternative algorithms to achieve similar
results as the ones you have gotten from ORCA. It is, of course, also the case that in some instances
ORCA just re-implements algorithms worked out by others. We are fully aware of that and we are also
fully appreciative of our colleagues work. Hence this citation list should not be read as indicating
that the listed papers, which are focused on our own work, are the only ones worth citing. It simply
meant to make it easier for users to cite ORCA specific papers. It is not a substitute for doing your
own literature research and citing the relevant literature in a scientifically appropriate manner.

List of essential papers. We consider these as the minimum necessary citations

  1. Neese, F.
     Software update: the ORCA program system, version 6.0
     WIRES Comput. Molec. Sci. 2025 15(1), e70019
     doi.org/10.1002/wcms.70019

List of papers to cite with high priority. The work reported in these papers was absolutely
necessary for this run to complete.
Our perspective: the developers of density functionals and basis sets usually get cited in chemistry papers
Good! But without the algorithms to do something with them, the functionals or basis sets would not do anything.
Hence, in our opinion, the algorithm design and method developments papers are equally worthy of getting cited

  1. Lehtola, S.; Steigemann, C.; Oliveira, M.; Marques, M.
     Recent developments in Libxc - A comprehensive library of functionals for density functional theory
     Software X 2018 7 , 
     doi.org/10.1016/j.softx.2017.11.002
  2. Neese, F.
     The SHARK Integral Generation and Digestion System
     J. Comp. Chem. 2022 44(3), 381
     doi.org/10.1002/jcc.26942

List of suggested additional citations. These are papers that are important in the 'surrounding' of 
of this run, or papers that preceded the highly important papers. If you like your results we are grateful for a citation.

  1. Neese, F.
     The ORCA program system
     WIRES Comput. Molec. Sci. 2012 2(1), 73-78
     doi.org/10.1002/wcms.81
  2. Neese, F.
     Software update: the ORCA program system, version 4.0
     WIRES Comput. Molec. Sci. 2018 8(1), 1-6
     doi.org/10.1002/wcms.1327
  3. Neese, F.; Wennmohs, F.; Becker, U.; Riplinger, C.
     The ORCA quantum chemistry program package
     J. Chem. Phys. 2020 152(22), 224108
     doi.org/10.1063/5.0004608
  4. Neese, F.
     Software update: The ORCA program system—Version 5.0
     WIRES Comput. Molec. Sci. 2022 12(1), e1606
     doi.org/10.1002/wcms.1606

List of optional additional citations

  1. Neese, F.
     Approximate second-order SCF convergence for spin unrestricted wavefunctions
     Chem. Phys. Lett. 2000 325(1-3), 93-98
     doi.org/10.1016/s0009-2614(00)00662-x

Timings for individual modules:

Sum of individual times          ...        4.934 sec (=   0.082 min)
Startup calculation              ...        0.560 sec (=   0.009 min)  11.4 %
SCF iterations                   ...        3.820 sec (=   0.064 min)  77.4 %
Property integrals               ...        0.295 sec (=   0.005 min)   6.0 %
Property calculations            ...        0.253 sec (=   0.004 min)   5.1 %
Orbital localization             ...        0.005 sec (=   0.000 min)   0.1 %
                             ****ORCA TERMINATED NORMALLY****
TOTAL RUN TIME: 0 days 0 hours 0 minutes 5 seconds 689 msec
