
                                 *****************
                                 * O   R   C   A *
                                 *****************

                                            #,                                       
                                            ###                                      
                                            ####                                     
                                            #####                                    
                                            ######                                   
                                           ########,                                 
                                     ,,################,,,,,                         
                               ,,#################################,,                 
                          ,,##########################################,,             
                       ,#########################################, ''#####,          
                    ,#############################################,,   '####,        
                  ,##################################################,,,,####,       
                ,###########''''           ''''###############################       
              ,#####''   ,,,,##########,,,,          '''####'''          '####       
            ,##' ,,,,###########################,,,                        '##       
           ' ,,###''''                  '''############,,,                           
         ,,##''                                '''############,,,,        ,,,,,,###''
      ,#''                                            '''#######################'''  
     '                                                          ''''####''''         
             ,#######,   #######,   ,#######,      ##                                
            ,#'     '#,  ##    ##  ,#'     '#,    #''#        ,####,    ,#,          
            ##       ##  ##   ,#'  ##            #'  '#       #'       ,# #          
            ##       ##  #######   ##           ,######,      #####,      #          
            '#,     ,#'  ##    ##  '#,     ,#' ,#      #,     #,   #      #          
             '#######'   ##     ##  '#######'  #'      '#     '####' #    #          



                #########################################################
                #                        -***-                          #
                #          Department of theory and spectroscopy        #
                #                                                       #
                #                      Frank Neese                      #
                #                                                       #
                #     Directorship, Architecture, Infrastructure        #
                #                    SHARK, DRIVERS                     #
                #        Core code/Algorithms in most modules           #
                #                                                       #
                #        Max Planck Institute fuer Kohlenforschung      #
                #                Kaiser Wilhelm Platz 1                 #
                #                 D-45470 Muelheim/Ruhr                 #
                #                      Germany                          #
                #                                                       #
                #                  All rights reserved                  #
                #                        -***-                          #
                #########################################################


                         Program Version 6.1.1  -  RELEASE   -
                                (GIT: $487d211c$)
                          ($2025-11-21 10:33:24 +0100$)


 With contributions from (in alphabetic order):
[Max-Planck-Institut fuer Kohlenforschung]                               
  Daniel Aravena         : Magnetic Suceptibility                        
  Michael Atanasov       : Ab Initio Ligand Field Theory (pilot matlab implementation)
  Alexander A. Auer      : GIAO ZORA, VPT2 properties, NMR spectrum      
  Ute Becker             : All parallelization in ORCA, NUMFREQ, NUMCALC 
  Giovanni Bistoni       : ED, misc. LED, open-shell LED, HFLD           
  Dmytro Bykov           : pre 5.0 version of the SCF Hessian            
  Marcos Casanova-Páez   : Triplet and SCS-CIS(D). UHF-(DLPNO)-IP/EA/STEOM-CCSD. UHF-CVS-IP/STEOM-CCSD   
  Vijay G. Chilkuri      : MRCI spin determinant printing, contributions to CSF-ICE 
  Pauline Colinet        : FMM embedding                                 
  Dipayan Datta          : RHF DLPNO-CCSD density                        
  Achintya Kumar Dutta   : EOM-CC, STEOM-CC                              
  Nicolas Foglia         : Exact transition moments, OPA infrastructure, MCD improvements    
  Dmitry Ganyushin       : Spin-Orbit,Spin-Spin,Magnetic field MRCI      
  Miquel Garcia-Rates    : C-PCM and meta-GGA Hessian, CCSD/C-PCM, Gaussian charge scheme 
  Tiago L. C. Gouveia    : GS-ROHF, GS-ROCIS                             
  Yang Guo               : DLPNO-NEVPT2, F12-NEVPT2, CIM, IAO-localization        
  Andreas Hansen         : Spin unrestricted coupled pair/coupled cluster methods 
  Ingolf Harden          : AUTO-CI MPn and infrastructure                
  Benjamin Helmich-Paris : MC-RPA, TRAH-(SCF,CASSCF), AVAS, COSX integrals, SCF dyn. polar., MC-PDFT, srDFT 
  Lee Huntington         : MR-EOM, pCC                                   
  Robert Izsak           : Overlap fitted RIJCOSX, COSX-SCS-MP3, EOM     
  Riya Kayal             : Wick's Theorem for AUTO-CI, AUTO-CI UHF-CCSDT 
  Emily Kempfer          : AUTO-CI RHF CISDT and CCSDT, approximate NEVPT4
  Christian Kollmar      : KDIIS, OOCD, Brueckner-CCSD(T), CCSD density, CASPT2, CASPT2-K, improved NEVPT2 
  Axel Koslowski         : Symmetry handling                             
  Simone Kossmann        : meta-GGA functionals, TD-DFT gradient, OOMP2, (MP2 Hessian; deprecated post 5.0) 
  Lucas Lang             : DCDCAS, Hyperfine gauge corrections, ICE-SOC+SSC
  Marvin Lechner         : AUTO-CI (C++ implementation), FIC-MRCC        
  Spencer Leger          : CASSCF response                               
  Dagmar Lenk            : GEPOL surface, SMD, ORCA-2-JSON               
  Dimitrios Liakos       : Extrapolation schemes; Compound Job, Property file
  Dimitrios Manganas     : Further ROCIS development; embedding schemes. LFT, Crystal Embedding 
  Dimitrios Pantazis     : SARC Basis sets                               
  Anastasios Papadopoulos: AUTO-CI, single reference methods and gradients 
  Taras Petrenko         : pre 6.0 DFT Hessian and TD-DFT gradient,  ECA, NRVS 
  Petra Pikulova         : Analytic Raman intensities                    
  Peter Pinski           : DLPNO-MP2, DLPNO-MP2 Gradient                 
  Shashank Vittal Rao    : ES-AILFT, MagRelax                            
  Christoph Reimann      : Effective Core Potentials                     
  Marius Retegan         : Local ZFS, SOC                                
  Christoph Riplinger    : Optimizer, TS searches, QM/MM, DLPNO-CCSD(T), (RO)-DLPNO pert. Triples 
  Michael Roemelt        : Original ROCIS implementation, recursive CI coupling coefficients
  Masaaki Saitow         : Open-shell DLPNO-CCSD energy and density      
  Barbara Sandhoefer     : DKH picture change effects                    
  Yorick L. A. Schmerwitz: GMF and freeze-and-release deltaSCF, NEB S-IDPP initial path                    
  Kantharuban Sivalingam : CASSCF convergence/infrastructure, NEVPT2, NEVPT3, NEVPT4(SD), FIC-MRCI and CEPA variants
  Bernardo de Souza      : ESD, SOC TD-DFT                               
  Georgi L. Stoychev     : AutoAux, RI-MP2 NMR, DLPNO-MP2 response, X2C  
  Van Anh Tran           : RI-MP2 g-tensors                              
  Willem Van den Heuvel  : Paramagnetic NMR                              
  Zikuan Wang            : NOTCH, Electric field optimization            
  Frank Wennmohs         : Technical directorship and infrastructure     
  Hang Xu                : AUTO-CI-Response properties                   
                                                                         
[FACCTs GmbH]                                                            
  Markus Bursch, Nicolas Foglia, Miquel Garcia-Rates, Ingolf Harden, Hagen Neugebauer, Anastasios Papadopoulos, 
  Christoph Riplinger, Bernardo de Souza, Georgi L. Stoychev                                                    
                                                                 
  APM, various basis sets, CI-OPT, improved COSX, DLPNO-Multilevel,           
  DOCKER, DRACO, updates on ESD, Fragmentator, GOAT, IRC, LR-CPCM, L-BFGS, MBIS, meta-GGA TD-DFT gradient, ML-optimized integration grids, 
  MM, NACMEs, nearIR, NEB, NEB-TS, NL-DFT gradient (VV10), 2- and 3-layer-ONIOM, interface openCOSMO-RS, QMMM,   
  Crystal-QMMM, RESP, rigid body optimization, SF, symmetry and pop. for TD-DFT, various functionals, SOLVATOR                                   
                                                                         
[Other institutions]                                                     
  V. Asgeirsson          : NEB                                           
  Christoph Bannwarth    : sTDA-DFT, sTD-DFT, PBEh-3c, B97-3c, D3        
  Giovanni Bistoni       : ETS/NOCV, ADLD/ADEX, COVALED                  
  Martin Brehm           : Molecular dynamics                            
  Ronald Cardenas        : ETS/NOCV                                      
  Martina Colucci        : COVALED                                       
  Sebastian Ehlert       : rSCAN, r2SCAN, r2SCAN-3c, D4, dhf basis sets  
  Marvin Friede          : D4 for Fr, Ra, Ac-Lr                          
  Lars Goerigk           : TD-DFT with DH, B97 family of functionals     
  Stefan Grimme          : VdW corrections, initial TS optimization, DFT functionals, gCP, sTDA/sTD-DF 
  Waldemar Hujo          : DFT-NL                                        
  H. Jonsson             : NEB                                           
  Holger Kruse           : gCP                                           
  Marcel Mueller         : wB97X-3c, vDZP basis set                      
  Hagen Neugebauer       : wr2SCAN, Native XTB                           
  Gianluca Regni         : ADLD/ADEX                                     
  Tobias Risthaus        : pre 6.0 range-separated hybrid DFT and stability analysis
  Lukas Wittmann         : regularized MP2, r2SCAN double-hybrids, wr2SCAN        
                                                                         
We gratefully acknowledge several colleagues who have allowed us to      
interface, adapt or use parts of their codes:                            
  Ed Valeev, F. Pavosevic, A. Kumar             : LibInt (2-el integral package), F12 methods 
  Garnet Chan, S. Sharma, J. Yang, R. Olivares  : DMRG                   
  Ulf Ekstrom                                   : XCFun DFT Library      
  Mihaly Kallay                                 : mrcc  (arbitrary order and MRCC methods)
  Frank Weinhold                                : gennbo (NPA and NBO analysis)           
  Simon Mueller                                 : openCOSMO-RS                            
  Christopher J. Cramer and Donald G. Truhlar   : smd solvation model                     
  S Lehtola, MJT Oliveira, MAL Marques          : LibXC Library                           
  Liviu Ungur et al                             : ANISO software                          


 Your calculation uses the libint2 library for the computation of 2-el integrals
 For citations please refer to: http://libint.valeyev.net

 Your ORCA version has been built with support for libXC version: 7.0.0
 For citations please refer to: https://libxc.gitlab.io

 This ORCA versions uses:
   CBLAS   interface :  Fast vector & matrix operations
   LAPACKE interface :  Fast linear algebra routines
   SCALAPACK package :  Parallel linear algebra routines
   Shared memory     :  Shared parallel matrices
   BLAS/LAPACK       :  OpenBLAS 0.3.29  USE64BITINT DYNAMIC_ARCH NO_AFFINITY Cooperlake SINGLE_THREADED
        Core in use  :  Cooperlake
   Copyright (c) 2011-2014, The OpenBLAS Project


  ***********************************
  * Starting time: Wed May 20 12:33:02 2026
  * Host name:     c1-43
  * Process ID:    3362497
  * Working dir.:  /cluster/projects/nn14654k/ylvaos/basis_set_n_funcs/functionals/gga_x_b88/CH3COOH/out
  ***********************************

Using LibXC functional ID 106 : Becke 88
[ 1]  A. D. Becke.,  Phys. Rev. A 38, 3098 (1988)
Using LibXC functional ID 106 : Becke 88
[ 1]  A. D. Becke.,  Phys. Rev. A 38, 3098 (1988)
Your calculation utilizes LibXC
by S. Lehtola, C. Steigemann, M. J. T. Oliveira & M. A. L. Marques
Please cite in your paper:
Lehtola, S.; Steigemann, C.; Oliveira, M.J.T.; Marques, M. A. L. Software X, 7, (2018), 1.
   

================================================================================

----- Orbital basis set information -----
Your calculation utilizes the basis: pc-2
   H, C-F              : F. Jensen, J. Chem. Phys. 115, 9113 (2001).
                         F. Jensen, J. Chem. Phys. 116, 7372 (2002).
                         F. Jensen, J. Chem. Phys. 117, 9234 (2002).
   Si-Cl               : F. Jensen, T. Helgaker, J. Chem. Phys. 121, 3463 (2004).
   He-B, Ne-Mg, Al, Ar : F. Jensen, J. Phys. Chem. A 111, 11198 (2007).
   K, Ca, Ga-Kr        : F. Jensen, J. Chem. Phys. 136, 094110 (2012).
   Sc-Zn               : F. Jensen, J. Chem. Phys. 138, 014107 (2013).

================================================================================
                                        WARNINGS
                       Please study these warnings very carefully!
================================================================================


================================================================================
                                       INPUT FILE
================================================================================
NAME = /cluster/projects/nn14654k/ylvaos/basis_set_n_funcs/functionals/gga_x_b88/CH3COOH/inp/CH3COOH_gga_x_b88_pc2.inp
|  1> ! dft pc-2 TightSCF
|  2> %pal nprocs 8 end
|  3> 
|  4> %loc
|  5>   LocMet NewBoys
|  6>   Occ true
|  7> end
|  8> 
|  9> %method
| 10>   exchange gga_x_b88
| 11>   correlation None
| 12> end
| 13> 
| 14> %elprop
| 15>   Dipole true
| 16>   Quadrupole true
| 17> end
| 18> 
| 19> * xyz 0 1
| 20> C    0.000000000000   0.154560000000   0.000000000000
| 21> C    1.073776000000  -0.892748000000   0.000000000000
| 22> O    0.166384000000   1.360084000000   0.000000000000
| 23> O   -1.236449000000  -0.415036000000   0.000000000000
| 24> H   -1.867646000000   0.333582000000   0.000000000000
| 25> H    2.048189000000  -0.408135000000   0.000000000000
| 26> H    0.968661000000  -1.528353000000   0.881747000000
| 27> H    0.968661000000  -1.528353000000  -0.881747000000
| 28> *
| 29> 
| 30> 
| 31>                          ****END OF INPUT****
================================================================================

                       ****************************
                       * Single Point Calculation *
                       ****************************

---------------------------------
CARTESIAN COORDINATES (ANGSTROEM)
---------------------------------
  C      0.000000    0.154560    0.000000
  C      1.073776   -0.892748    0.000000
  O      0.166384    1.360084    0.000000
  O     -1.236449   -0.415036    0.000000
  H     -1.867646    0.333582    0.000000
  H      2.048189   -0.408135    0.000000
  H      0.968661   -1.528353    0.881747
  H      0.968661   -1.528353   -0.881747

----------------------------
CARTESIAN COORDINATES (A.U.)
----------------------------
  NO LB      ZA    FRAG     MASS         X           Y           Z
   0 C     6.0000    0    12.011    0.000000    0.292076    0.000000
   1 C     6.0000    0    12.011    2.029143   -1.687049    0.000000
   2 O     8.0000    0    15.999    0.314420    2.570186    0.000000
   3 O     8.0000    0    15.999   -2.336550   -0.784304    0.000000
   4 H     1.0000    0     1.008   -3.529339    0.630379    0.000000
   5 H     1.0000    0     1.008    3.870516   -0.771263    0.000000
   6 H     1.0000    0     1.008    1.830504   -2.888169    1.666260
   7 H     1.0000    0     1.008    1.830504   -2.888169   -1.666260

--------------------------------
INTERNAL COORDINATES (ANGSTROEM)
--------------------------------
 C      0   0   0     0.000000000000     0.00000000     0.00000000
 C      1   0   0     1.499949647502     0.00000000     0.00000000
 O      1   2   0     1.216951827326   126.42686784     0.00000000
 O      1   2   3     1.361339683113   110.98078396   180.00000000
 H      4   1   2     0.979203024267   105.40175469   180.00000085
 H      2   1   3     1.088269476893   109.27200725     0.00000000
 H      2   1   3     1.092025938913   109.72406365   120.93315147
 H      2   1   3     1.092025938913   109.72406365   239.06684853

---------------------------
INTERNAL COORDINATES (A.U.)
---------------------------
 C      0   0   0     0.000000000000     0.00000000     0.00000000
 C      1   0   0     2.834494048450     0.00000000     0.00000000
 O      1   2   0     2.299705671821   126.42686784     0.00000000
 O      1   2   3     2.572559176322   110.98078396   180.00000000
 H      4   1   2     1.850425545371   105.40175469   180.00000085
 H      2   1   3     2.056531271234   109.27200725     0.00000000
 H      2   1   3     2.063629955684   109.72406365   120.93315147
 H      2   1   3     2.063629955684   109.72406365   239.06684853

---------------------
BASIS SET INFORMATION
---------------------
There are 3 groups of distinct atoms

 Group   1 Type C   : 16s6p2d1f contracted to 4s3p2d1f pattern {7711/411/11/1}
 Group   2 Type O   : 16s6p2d1f contracted to 4s3p2d1f pattern {7711/411/11/1}
 Group   3 Type H   : 6s2p1d contracted to 3s2p1d pattern {411/11/1}

Atom   0C    basis set group =>   1
Atom   1C    basis set group =>   1
Atom   2O    basis set group =>   2
Atom   3O    basis set group =>   2
Atom   4H    basis set group =>   3
Atom   5H    basis set group =>   3
Atom   6H    basis set group =>   3
Atom   7H    basis set group =>   3


           ************************************************************
           *        Program running with 8 parallel MPI-processes     *
           *              working on a common directory               *
           ************************************************************
------------------------------------------------------------------------------
                             ORCA STARTUP CALCULATIONS
------------------------------------------------------------------------------
------------------------------------------------------------------------------
                   ___                                                        
                  /   \      - P O W E R E D   B Y -                         
                 /     \                                                     
                 |  |  |   _    _      __       _____    __    __             
                 |  |  |  | |  | |    /  \     |  _  \  |  |  /  |          
                  \  \/   | |  | |   /    \    | | | |  |  | /  /          
                 / \  \   | |__| |  /  /\  \   | |_| |  |  |/  /          
                |  |  |   |  __  | /  /__\  \  |    /   |      \           
                |  |  |   | |  | | |   __   |  |    \   |  |\   \          
                \     /   | |  | | |  |  |  |  | |\  \  |  | \   \       
                 \___/    |_|  |_| |__|  |__|  |_| \__\ |__|  \__/        
                                                                              
                      - O R C A' S   B I G   F R I E N D -                    
                                      &                                       
                       - I N T E G R A L  F E E D E R -                       
                                                                              
 v1 FN, 2020, v2 2021, v3 2022-2024                                           
------------------------------------------------------------------------------


----------------------
SHARK INTEGRAL PACKAGE
----------------------

Number of atoms                             ...      8
Number of basis functions                   ...    176
Number of shells                            ...     64
Maximum angular momentum                    ...      3
Integral batch strategy                     ... SHARK/LIBINT Hybrid
RI-J (if used) integral strategy            ... SPLIT-RIJ (Revised 2003 algorithm where possible)
Printlevel                                  ...      1
Contraction scheme used                     ... SEGMENTED contraction
Prescreening option                         ... SCHWARTZ
   Thresh                                   ... 2.500e-11
   Tcut                                     ... 2.500e-12
   Tpresel                                  ... 2.500e-12 
Coulomb Range Separation                    ... NOT USED
Exchange Range Separation                   ... NOT USED
Multipole approximations                    ... NOT USED
Finite Nucleus Model                        ... NOT USED
CABS basis                                  ... NOT available
Auxiliary Coulomb fitting basis             ... NOT available
Auxiliary J/K fitting basis                 ... NOT available
Auxiliary Correlation fitting basis         ... NOT available
Auxiliary 'external' fitting basis          ... NOT available

Checking pre-screening integrals            ... done (  0.0 sec) Dimension = 64
   => SHARK Basis and OBASIS are compatible. Storing Pre-screening
Shell pair information
Shell pair cut-off parameter TPreSel        ...   2.5e-12
Total number of shell pairs                 ...      2080
Shell pairs after pre-screening             ...      2053
Total number of primitive shell pairs       ...      9532
Primitive shell pairs kept                  ...      7093
          la=0 lb=0:    402 shell pairs
          la=1 lb=0:    550 shell pairs
          la=1 lb=1:    207 shell pairs
          la=2 lb=0:    332 shell pairs
          la=2 lb=1:    235 shell pairs
          la=2 lb=2:     77 shell pairs
          la=3 lb=0:    112 shell pairs
          la=3 lb=1:     80 shell pairs
          la=3 lb=2:     48 shell pairs
          la=3 lb=3:     10 shell pairs

Checking whether 4 symmetric matrices of dimension 176 fit in memory
:Max Core in MB      =   4096.00
 MB in use           =      4.86
 MB left             =   4091.14
 MB needed           =      0.48
 Data fit in memory  = YES
Calculating Nuclear repulsion               ... done (  0.0 sec) ENN=    120.693288504615 Eh

Diagonalization of the overlap matrix:
Smallest eigenvalue                        ... 8.488e-04
Time for diagonalization                   ...    0.002 sec
Threshold for overlap eigenvalues          ... 1.000e-07
Number of eigenvalues below threshold      ... 0
Time for construction of square roots      ...    0.003 sec
Total time needed                          ...    0.007 sec

-------------------
DFT GRID GENERATION
-------------------

General Integration Accuracy     IntAcc      ... 4.388
Radial Grid Type                 RadialGrid  ... OptM3 with GC (2021)
Angular Grid (max. ang.)         AngularGrid ... 4 (Lebedev-302)
Angular grid pruning method      GridPruning ... 4 (adaptive)
Weight generation scheme         WeightScheme... mBecke (2022)
Basis function cutoff            BFCut       ... 1.0000e-11
Integration weight cutoff        WCut        ... 1.0000e-14
Partially contracted basis set               ... off
Rotationally invariant grid construction     ... off
Angular grids for H and He will be reduced by one unit
Diffuse basis detected: some atoms will have their outermost
                        angular grid increased by 1.

Total number of grid points                  ...    38011
Total number of batches                      ...      598
Average number of points per batch           ...       63
Average number of grid points per atom       ...     4751
Grids setup in   0.1 sec
Initializing property integral containers    ... done (  0.0 sec)

SHARK setup successfully completed in   0.2 seconds

Maximum memory used throughout the entire STARTUP-calculation: 14.0 MB


           ************************************************************
           *        Program running with 8 parallel MPI-processes     *
           *              working on a common directory               *
           ************************************************************
-------------------------------------------------------------------------------
                                 ORCA GUESS
                   Start orbitals & Density for SCF / CASSCF
-------------------------------------------------------------------------------

------------
SCF SETTINGS
------------
Hamiltonian:
 Density Functional     Method          .... DFT(GTOs)
  Functional kind                       .... Exchange
  Functional name                       .... Becke 88
  Functional family                     .... GGA
  Functional refs                              
    [ 0] A. D. Becke.,  Phys. Rev. A 38, 3098 (1988), doi: 10.1103/PhysRevA.38.3098
  Functional external parameters        .... 2
    Parameter  0 _beta      =  4.200000e-03 : beta/X_FACTOR_C is the coefficient of the gradient expansion
    Parameter  1 _gamma     =  6.000000e+00 : gamma should be 6 to get the right asymptotics of Ex
 Correlation Functional Correlation     .... No Correlation
 Gradients option       PostSCFGGA      .... off


General Settings:
 Integral files         IntName         .... /cluster/projects/nn14654k/ylvaos/basis_set_n_funcs/functionals/gga_x_b88/CH3COOH/inp/CH3COOH_gga_x_b88_pc2
 Hartree-Fock type      HFTyp           .... RHF
 Total Charge           Charge          ....    0
 Multiplicity           Mult            ....    1
 Number of Electrons    NEL             ....   32
 Basis Dimension        Dim             ....  176
 Nuclear Repulsion      ENuc            ....    120.6932885046 Eh

Convergence Acceleration:
 AO-DIIS                CNVDIIS         .... on
   Start iteration      DIISMaxIt       ....    12
   Startup error        DIISStart       ....  0.200000
   # of expansion vecs  DIISMaxEq       ....     5
   Bias factor          DIISBfac        ....   1.050
   Max. coefficient     DIISMaxC        ....  10.000
 MO-DIIS                CNVKDIIS        .... off
 Trust-Rad. Augm. Hess. CNVTRAH         .... auto
   Auto Start mean grad. ratio tolernc. ....  1.125000
   Auto Start start iteration           ....    50
   Auto Start num. interpolation iter.  ....    10
   Max. Number of Micro iterations      ....    24
   Max. Number of Macro iterations      .... Maxiter - #DIIS iter
   Number of Davidson start vectors     ....     2
   Converg. threshold    (grad. norm)   ....   1.000e-05
   Grad. Scal. Fac. for Micro threshold ....   0.100
   Minimum threshold for Micro iter.    ....   1.000e-02
   NR start threshold (gradient norm)   ....   1.000e-04
   Initial trust radius                 ....   0.400
   Minimum AH scaling param. (alpha)    ....   1.000
   Maximum AH scaling param. (alpha)    .... 1000.000
   Quad. conv. algorithm                .... NR
   White noise on init. David. guess    .... on
   Maximum white noise                  ....   0.010
   Pseudo random numbers                .... off
   Inactive MOs                         .... canonical
   Orbital update algorithm             .... Taylor
   Preconditioner                       .... Diag
   Full preconditioner red. dimension   ....   250
 SOSCF                 CNVSOSCF           .... on
   Start iteration     SOSCFMaxIt         ....   150
   Startup grad/error  SOSCFStart         ....  0.003300
   Hessian update      SOSCFHessUp        .... L-BFGS
   Autom. constraints  SOSCFAutoConstrain .... off
 Level Shifting         CNVShift        .... on
   Level shift para.    LevelShift      ....    0.2500
   Turn off err/grad.   ShiftErr        ....    0.0010
 Zerner damping         CNVZerner       .... off
 Static damping         CNVDamp         .... on
   Fraction old density DampFac         ....    0.7000
   Max. Damping (<1)    DampMax         ....    0.9800
   Min. Damping (>=0)   DampMin         ....    0.0000
   Turn off err/grad.   DampErr         ....    0.1000

SCF Procedure:
 Maximum # iterations   MaxIter         ....   125
 SCF integral mode      SCFMode         .... Direct
   Integral package                     .... SHARK and LIBINT hybrid scheme
 Reset frequency        DirectResetFreq ....    20
 Integral Threshold     Thresh          ....  2.500e-11 Eh
 Primitive CutOff       TCut            ....  2.500e-12 Eh

Convergence Tolerance:
 Convergence Check Mode ConvCheckMode   .... Total+1el-Energy
 Convergence forced     ConvForced      .... 0
 Energy Change          TolE            ....  1.000e-08 Eh
 1-El. energy change                    ....  1.000e-05 Eh
 Orbital Gradient       TolG            ....  1.000e-05
 Orbital Rotation angle TolX            ....  1.000e-05
 DIIS Error             TolErr          ....  5.000e-07

------------------------------
INITIAL GUESS: MODEL POTENTIAL
------------------------------
Loading Hartree-Fock densities                     ... done
Calculating cut-offs                               ... done
Initializing the effective Hamiltonian             ... done
Setting up the integral package (SHARK)            ... done
Starting the Coulomb interaction                   ... done (   0.0 sec)
Making the grid                                    ... done (   0.0 sec)
Mapping shells                                     ... done
Starting the XC term evaluation                    ... done (   0.0 sec)
  promolecular density results
     # of electrons  =     31.996961635
     EX              =    -27.849924368
     EC              =      0.000000000
     EX+EC           =    -27.849924368
Transforming the Hamiltonian                       ... done (   0.0 sec)
Diagonalizing the Hamiltonian                      ... done (   0.0 sec)
Back transforming the eigenvectors                 ... done (   0.0 sec)
Now organizing SCF variables                       ... done
                      ------------------
                      INITIAL GUESS DONE (   0.1 sec)
                      ------------------
             **** ENERGY FILE WAS UPDATED (/cluster/projects/nn14654k/ylvaos/basis_set_n_funcs/functionals/gga_x_b88/CH3COOH/inp/CH3COOH_gga_x_b88_pc2.en.tmp) ****
Finished Guess after   0.2 sec
Maximum memory used throughout the entire GUESS-calculation: 9.3 MB


           ************************************************************
           *        Program running with 8 parallel MPI-processes     *
           *              working on a common directory               *
           ************************************************************

-------------------------------------------------------------------------------------------
                                      ORCA LEAN-SCF
                              memory conserving SCF solver
-------------------------------------------------------------------------------------------

----------------------------------------D-I-I-S--------------------------------------------
Iteration    Energy (Eh)           Delta-E    RMSDP     MaxDP     DIISErr   Damp  Time(sec)
-------------------------------------------------------------------------------------------
               ***  Starting incremental Fock matrix formation  ***
    1    -227.8541458968020947     0.00e+00  6.80e-03  7.05e-02  2.77e-01  0.700   0.4
    2    -227.9491484840374937    -9.50e-02  3.76e-03  3.99e-02  8.11e-02  0.700   0.4
                               ***Turning on AO-DIIS***
    3    -227.9733242392504167    -2.42e-02  1.29e-03  1.35e-02  3.08e-02  0.700   0.4
    4    -227.9913128437005412    -1.80e-02  1.64e-03  1.95e-02  2.49e-02  0.000   0.4
    5    -228.0345794363312280    -4.33e-02  7.15e-04  5.40e-03  1.40e-02  0.000   0.4
    6    -228.0351328833153843    -5.53e-04  2.85e-04  2.39e-03  4.20e-03  0.000   0.5
                              *** Initializing SOSCF ***
---------------------------------------S-O-S-C-F--------------------------------------
Iteration    Energy (Eh)           Delta-E    RMSDP     MaxDP     MaxGrad    Time(sec)
--------------------------------------------------------------------------------------
    7    -228.0351773074135053    -4.44e-05  1.26e-04  1.39e-03  1.76e-03     0.5
               *** Restarting incremental Fock matrix formation ***
    8    -228.0351875848060104    -1.03e-05  1.03e-04  1.57e-03  1.56e-04     0.8
    9    -228.0351868713924546     7.13e-07  5.05e-05  6.43e-04  4.73e-04     0.4
   10    -228.0351883877547152    -1.52e-06  5.20e-05  8.32e-04  1.81e-04     0.3
   11    -228.0351883527496284     3.50e-08  1.49e-05  1.97e-04  1.43e-04     0.3
   12    -228.0351886266089991    -2.74e-07  2.11e-05  3.36e-04  4.60e-05     0.3
   13    -228.0351886331006881    -6.49e-09  7.57e-06  9.30e-05  3.61e-05     0.3
                 **** Energy Check signals convergence ****

               *****************************************************
               *                     SUCCESS                       *
               *           SCF CONVERGED AFTER  13 CYCLES          *
               *****************************************************

             **** ENERGY FILE WAS UPDATED (/cluster/projects/nn14654k/ylvaos/basis_set_n_funcs/functionals/gga_x_b88/CH3COOH/inp/CH3COOH_gga_x_b88_pc2.en.tmp) ****

----------------
TOTAL SCF ENERGY
----------------

Total Energy       :       -228.03518866312123 Eh           -6205.15295 eV

Components:
Nuclear Repulsion  :        120.69328850461517 Eh            3284.23135 eV
Electronic Energy  :       -348.72847716773640 Eh           -9489.38429 eV
One Electron Energy:       -550.91688954837343 Eh          -14991.21070 eV
Two Electron Energy:        202.18841238063703 Eh            5501.82641 eV

Virial components:
Potential Energy   :       -456.37421374565747 Eh          -12418.57370 eV
Kinetic Energy     :        228.33902508253624 Eh            6213.42076 eV
Virial Ratio       :          1.99866936271929

DFT components:
N(Alpha)           :       15.999984373960 electrons
N(Beta)            :       15.999984373960 electrons
N(Total)           :       31.999968747920 electrons
E(X)               :      -28.334434666890 Eh       
E(C)               :        0.000000000000 Eh       
E(XC)              :      -28.334434666890 Eh       

---------------
SCF CONVERGENCE
---------------

  Last Energy change         ...    6.4917e-09  Tolerance :   1.0000e-08
  Last MAX-Density change    ...    9.3042e-05  Tolerance :   1.0000e-07
  Last RMS-Density change    ...    7.5660e-06  Tolerance :   5.0000e-09
  Last DIIS Error            ...    1.7555e-03  Tolerance :   5.0000e-07
  Last Orbital Gradient      ...    3.6079e-05  Tolerance :   1.0000e-05
  Last Orbital Rotation      ...    5.7802e-05  Tolerance :   1.0000e-05


----------------
ORBITAL ENERGIES
----------------

  NO   OCC          E(Eh)            E(eV) 
   0   2.0000     -18.790907      -511.3266 
   1   2.0000     -18.732678      -509.7421 
   2   2.0000     -10.007637      -272.3216 
   3   2.0000      -9.893568      -269.2177 
   4   2.0000      -0.979682       -26.6585 
   5   2.0000      -0.893582       -24.3156 
   6   2.0000      -0.658650       -17.9228 
   7   2.0000      -0.520752       -14.1704 
   8   2.0000      -0.406467       -11.0605 
   9   2.0000      -0.391990       -10.6666 
  10   2.0000      -0.391319       -10.6483 
  11   2.0000      -0.338128        -9.2009 
  12   2.0000      -0.319235        -8.6868 
  13   2.0000      -0.318013        -8.6536 
  14   2.0000      -0.251848        -6.8531 
  15   2.0000      -0.204473        -5.5640 
  16   0.0000      -0.007585        -0.2064 
  17   0.0000       0.011512         0.3133 
  18   0.0000       0.038170         1.0386 
  19   0.0000       0.078408         2.1336 
  20   0.0000       0.080124         2.1803 
  21   0.0000       0.115311         3.1378 
  22   0.0000       0.161579         4.3968 
  23   0.0000       0.181311         4.9337 
  24   0.0000       0.184500         5.0205 
  25   0.0000       0.197928         5.3859 
  26   0.0000       0.201840         5.4923 
*Only the first 10 virtual orbitals were printed.

                    ********************************
                    * MULLIKEN POPULATION ANALYSIS *
                    ********************************

-----------------------
MULLIKEN ATOMIC CHARGES
-----------------------
   0 C :    0.473838
   1 C :   -0.081623
   2 O :   -0.399399
   3 O :   -0.337588
   4 H :    0.200249
   5 H :    0.057919
   6 H :    0.043302
   7 H :    0.043302
Sum of atomic charges:   -0.0000000

--------------------------------
MULLIKEN REDUCED ORBITAL CHARGES
--------------------------------
  0 C s       :     3.019368  s :     3.019368
      pz      :     0.775732  p :     2.307214
      px      :     0.737081
      py      :     0.794402
      dz2     :     0.008428  d :     0.185221
      dxz     :     0.023985
      dyz     :     0.038839
      dx2y2   :     0.041295
      dxy     :     0.072673
      f0      :     0.001384  f :     0.014359
      f+1     :     0.000846
      f-1     :     0.001369
      f+2     :     0.001973
      f-2     :     0.000847
      f+3     :     0.004496
      f-3     :     0.003444

  1 C s       :     3.170281  s :     3.170281
      pz      :     0.986303  p :     2.882323
      px      :     0.939767
      py      :     0.956253
      dz2     :     0.004167  d :     0.027533
      dxz     :     0.002843
      dyz     :     0.005111
      dx2y2   :     0.006180
      dxy     :     0.009233
      f0      :     0.000133  f :     0.001487
      f+1     :     0.000126
      f-1     :     0.000192
      f+2     :    -0.000069
      f-2     :     0.000179
      f+3     :     0.000454
      f-3     :     0.000471

  2 O s       :     3.835492  s :     3.835492
      pz      :     1.403245  p :     4.527764
      px      :     1.791426
      py      :     1.333093
      dz2     :     0.002992  d :     0.032927
      dxz     :     0.000360
      dyz     :     0.010893
      dx2y2   :     0.009324
      dxy     :     0.009358
      f0      :     0.000360  f :     0.003216
      f+1     :     0.000064
      f-1     :     0.000279
      f+2     :     0.000708
      f-2     :     0.000074
      f+3     :     0.000970
      f-3     :     0.000762

  3 O s       :     3.773885  s :     3.773885
      pz      :     1.751702  p :     4.534608
      px      :     1.247255
      py      :     1.535650
      dz2     :     0.003709  d :     0.026986
      dxz     :     0.003337
      dyz     :     0.002870
      dx2y2   :     0.006433
      dxy     :     0.010637
      f0      :     0.000357  f :     0.002109
      f+1     :     0.000413
      f-1     :     0.000185
      f+2     :     0.000122
      f-2     :     0.000185
      f+3     :     0.000396
      f-3     :     0.000451

  4 H s       :     0.713799  s :     0.713799
      pz      :     0.025585  p :     0.078569
      px      :     0.023251
      py      :     0.029732
      dz2     :     0.000893  d :     0.007383
      dxz     :     0.000840
      dyz     :     0.001067
      dx2y2   :     0.001709
      dxy     :     0.002874

  5 H s       :     0.904666  s :     0.904666
      pz      :     0.009012  p :     0.035214
      px      :     0.016404
      py      :     0.009797
      dz2     :     0.000239  d :     0.002201
      dxz     :     0.000394
      dyz     :     0.000180
      dx2y2   :     0.000662
      dxy     :     0.000727

  6 H s       :     0.914243  s :     0.914243
      pz      :     0.016251  p :     0.040166
      px      :     0.009301
      py      :     0.014614
      dz2     :     0.000678  d :     0.002289
      dxz     :     0.000360
      dyz     :     0.000776
      dx2y2   :     0.000210
      dxy     :     0.000264

  7 H s       :     0.914243  s :     0.914243
      pz      :     0.016251  p :     0.040166
      px      :     0.009301
      py      :     0.014614
      dz2     :     0.000678  d :     0.002289
      dxz     :     0.000360
      dyz     :     0.000776
      dx2y2   :     0.000210
      dxy     :     0.000264



                     *******************************
                     * LOEWDIN POPULATION ANALYSIS *
                     *******************************

----------------------
LOEWDIN ATOMIC CHARGES
----------------------
   0 C :   -0.163425
   1 C :    0.056403
   2 O :   -0.043092
   3 O :    0.192560
   4 H :   -0.067828
   5 H :    0.005458
   6 H :    0.009962
   7 H :    0.009962

-------------------------------
LOEWDIN REDUCED ORBITAL CHARGES
-------------------------------
  0 C s       :     2.770895  s :     2.770895
      pz      :     0.745115  p :     2.663960
      px      :     0.895015
      py      :     1.023831
      dz2     :     0.039530  d :     0.645688
      dxz     :     0.066022
      dyz     :     0.105322
      dx2y2   :     0.168114
      dxy     :     0.266701
      f0      :     0.004346  f :     0.082881
      f+1     :     0.004442
      f-1     :     0.007374
      f+2     :     0.013382
      f-2     :     0.005255
      f+3     :     0.030440
      f-3     :     0.017642

  1 C s       :     2.718662  s :     2.718662
      pz      :     1.030373  p :     3.030538
      px      :     0.999057
      py      :     1.001108
      dz2     :     0.035114  d :     0.176680
      dxz     :     0.008858
      dyz     :     0.048323
      dx2y2   :     0.029889
      dxy     :     0.054495
      f0      :     0.000748  f :     0.017716
      f+1     :     0.003074
      f-1     :     0.003641
      f+2     :     0.002690
      f-2     :     0.001229
      f+3     :     0.002495
      f-3     :     0.003840

  2 O s       :     3.437127  s :     3.437127
      pz      :     1.356988  p :     4.517285
      px      :     1.666677
      py      :     1.493619
      dz2     :     0.009302  d :     0.073120
      dxz     :     0.000514
      dyz     :     0.014588
      dx2y2   :     0.027660
      dxy     :     0.021056
      f0      :     0.001078  f :     0.015560
      f+1     :     0.000361
      f-1     :     0.002706
      f+2     :     0.001686
      f-2     :     0.000205
      f+3     :     0.004658
      f-3     :     0.004866

  3 O s       :     3.275819  s :     3.275819
      pz      :     1.625548  p :     4.447212
      px      :     1.276541
      py      :     1.545123
      dz2     :     0.010239  d :     0.072216
      dxz     :     0.008567
      dyz     :     0.002523
      dx2y2   :     0.018241
      dxy     :     0.032646
      f0      :     0.000850  f :     0.012193
      f+1     :     0.001473
      f-1     :     0.000684
      f+2     :     0.000455
      f-2     :     0.001073
      f+3     :     0.004332
      f-3     :     0.003326

  4 H s       :     0.707019  s :     0.707019
      pz      :     0.081325  p :     0.291613
      px      :     0.083602
      py      :     0.126686
      dz2     :     0.006228  d :     0.069195
      dxz     :     0.009741
      dyz     :     0.012935
      dx2y2   :     0.020493
      dxy     :     0.019799

  5 H s       :     0.848679  s :     0.848679
      pz      :     0.031461  p :     0.123441
      px      :     0.056571
      py      :     0.035409
      dz2     :     0.002251  d :     0.022422
      dxz     :     0.005200
      dyz     :     0.001520
      dx2y2   :     0.006948
      dxy     :     0.006502

  6 H s       :     0.840643  s :     0.840643
      pz      :     0.051420  p :     0.127298
      px      :     0.031410
      py      :     0.044468
      dz2     :     0.006644  d :     0.022097
      dxz     :     0.004051
      dyz     :     0.006646
      dx2y2   :     0.002259
      dxy     :     0.002496

  7 H s       :     0.840643  s :     0.840643
      pz      :     0.051420  p :     0.127298
      px      :     0.031410
      py      :     0.044468
      dz2     :     0.006644  d :     0.022097
      dxz     :     0.004051
      dyz     :     0.006646
      dx2y2   :     0.002259
      dxy     :     0.002496



                      *****************************
                      * MAYER POPULATION ANALYSIS *
                      *****************************

  NA   - Mulliken gross atomic population
  ZA   - Total nuclear charge
  QA   - Mulliken gross atomic charge
  VA   - Mayer's total valence
  BVA  - Mayer's bonded valence
  FA   - Mayer's free valence

  ATOM       NA         ZA         QA         VA         BVA        FA
  0 C      5.5262     6.0000     0.4738     3.9747     3.9747    -0.0000
  1 C      6.0816     6.0000    -0.0816     3.9098     3.9098    -0.0000
  2 O      8.3994     8.0000    -0.3994     2.1078     2.1078    -0.0000
  3 O      8.3376     8.0000    -0.3376     2.1502     2.1502     0.0000
  4 H      0.7998     1.0000     0.2002     1.0579     1.0579    -0.0000
  5 H      0.9421     1.0000     0.0579     1.0156     1.0156    -0.0000
  6 H      0.9567     1.0000     0.0433     1.0170     1.0170    -0.0000
  7 H      0.9567     1.0000     0.0433     1.0170     1.0170    -0.0000

  Mayer bond orders larger than 0.100000
B(  0-C ,  1-C ) :   0.9179 B(  0-C ,  2-O ) :   1.9450 B(  0-C ,  3-O ) :   1.1067 
B(  1-C ,  5-H ) :   1.0032 B(  1-C ,  6-H ) :   0.9793 B(  1-C ,  7-H ) :   0.9793 
B(  3-O ,  4-H ) :   0.9728 

-------
TIMINGS
-------

Total SCF time: 0 days 0 hours 0 min 6 sec 

Total time                  ....       6.003 sec
Sum of individual times     ....       5.655 sec  ( 94.2%)

SCF preparation             ....       0.059 sec  (  1.0%)
Fock matrix formation       ....       4.892 sec  ( 81.5%)
  Startup                   ....       0.012 sec  (  0.2% of F)
  Coulomb formation         ....       4.356 sec  ( 89.1% of F)
  XC integration            ....       0.647 sec  ( 13.2% of F)
    XC Preparation          ....       0.000 sec  (  0.0% of XC)
    Basis function eval.    ....       0.125 sec  ( 19.3% of XC)
    Density eval.           ....       0.096 sec  ( 14.8% of XC)
    XC-Functional eval.     ....       0.025 sec  (  3.8% of XC)
    XC-Potential eval.      ....       0.186 sec  ( 28.8% of XC)
Diagonalization             ....       0.000 sec  (  0.0%)
Density matrix formation    ....       0.057 sec  (  0.9%)
Total Energy calculation    ....       0.017 sec  (  0.3%)
Population analysis         ....       0.013 sec  (  0.2%)
Orbital Transformation      ....       0.018 sec  (  0.3%)
Orbital Orthonormalization  ....       0.000 sec  (  0.0%)
DIIS solution               ....       0.183 sec  (  3.0%)
SOSCF solution              ....       0.417 sec  (  7.0%)
Finished LeanSCF after   6.1 sec

Maximum memory used throughout the entire LEANSCF-calculation: 16.3 MB


           ************************************************************
           *        Program running with 8 parallel MPI-processes     *
           *              working on a common directory               *
           ************************************************************

------------------------------------------------------------------------------
                         ORCA PROPERTY INTEGRAL CALCULATIONS
------------------------------------------------------------------------------

GBWName                                   ... /cluster/projects/nn14654k/ylvaos/basis_set_n_funcs/functionals/gga_x_b88/CH3COOH/inp/CH3COOH_gga_x_b88_pc2.gbw
Number of atoms                           ...      8
Number of basis functions                 ...    176
Max core memory                           ...   4096 MB

Dipole integrals                          ... YES
Quadrupole integrals                      ... YES
Linear momentum integrals                 ...  NO
Angular momentum integrals                ...  NO
Higher moments length integrals           ...  NO
Higher moments velocity integrals         ...  NO
Kinetic energy integrals                  ...  NO
GIAO right hand sides                     ...  NO
GIAO dipole derivative integrals          ...  NO
SOC integrals                             ...  NO
EPR diamagnetic integrals (GIAO)          ...  NO
EPR gauge integrals                       ...  NO
Field gradient integrals                  ...  NO (   0 nuclei)
Spin-dipole/Fermi contact integrals       ...  NO (   0 nuclei)
Contact density integrals                 ...  NO (   0 nuclei)
Nucleus-orbit integrals                   ...  NO (   0 nuclei)
Geometric perturbations                   ...  NO (   8 nuclei)

Choice of electric origin   ... Center of mass
Position of electric origin ... ( -0.0657,  0.0975,  0.0000) 
Choice of magnetic origin   ... GIAO
Position of magnetic origin ... (  0.0000,  0.0000,  0.0000) 

Calculating integrals                     ... Electric Dipole (Length)     done (  0.0 sec)
Calculating integrals                     ... Electric Quadrupole (Length) done (  0.0 sec)

Property integrals calculated in   0.0 sec

Maximum memory used throughout the entire PROPINT-calculation: 9.9 MB
------------------------------------------------------------------------------
                           ORCA ORBITAL LOCALIZATION
------------------------------------------------------------------------------

Input orbitals are from                  ... /cluster/projects/nn14654k/ylvaos/basis_set_n_funcs/functionals/gga_x_b88/CH3COOH/inp/CH3COOH_gga_x_b88_pc2.gbw
Output orbitals are to                   ... /cluster/projects/nn14654k/ylvaos/basis_set_n_funcs/functionals/gga_x_b88/CH3COOH/inp/CH3COOH_gga_x_b88_pc2.loc
Max. number of iterations                ... 128
Localizations seeded randomly            ... on
Convergence tolerance                    ... 1.000e-06
Threshold for strong local MOs           ... 9.500e-01
Threshold for bond MOs                   ... 8.500e-01
Operator                                 ... 0
Orbital range for localization           ... 4 to 15
Localization criterion                   ... NEW-BOYS
Doing the dipole integrals               ... o.k.
Initial value of the localization sum :    58.960642
ITERATION   0 : L=   78.4280025358 DL=  1.95e+01 (AVERGE_DL)=    0.5431022067 
ITERATION   1 : L=   81.3977496264 DL=  2.97e+00 (AVERGE_DL)=    0.2121230021 
ITERATION   2 : L=   81.4560240394 DL=  5.83e-02 (AVERGE_DL)=    0.0297144014 
ITERATION   3 : L=   81.4604636177 DL=  4.44e-03 (AVERGE_DL)=    0.0082016058 
ITERATION   4 : L=   81.4618556225 DL=  1.39e-03 (AVERGE_DL)=    0.0045924918 
ITERATION   5 : L=   81.4625325856 DL=  6.77e-04 (AVERGE_DL)=    0.0032026579 
ITERATION   6 : L=   81.4631289118 DL=  5.96e-04 (AVERGE_DL)=    0.0030058683 
ITERATION   7 : L=   81.4636851377 DL=  5.56e-04 (AVERGE_DL)=    0.0029030442 
ITERATION   8 : L=   81.4641876856 DL=  5.03e-04 (AVERGE_DL)=    0.0027594134 
ITERATION   9 : L=   81.4646207473 DL=  4.33e-04 (AVERGE_DL)=    0.0025615506 
ITERATION  10 : L=   81.4649774803 DL=  3.57e-04 (AVERGE_DL)=    0.0023248754 
ITERATION  11 : L=   81.4652598802 DL=  2.82e-04 (AVERGE_DL)=    0.0020685226 
ITERATION  12 : L=   81.4654759876 DL=  2.16e-04 (AVERGE_DL)=    0.0018095177 
ITERATION  13 : L=   81.4656367560 DL=  1.61e-04 (AVERGE_DL)=    0.0015607324 
ITERATION  14 : L=   81.4657536170 DL=  1.17e-04 (AVERGE_DL)=    0.0013306464 
ITERATION  15 : L=   81.4658369806 DL=  8.34e-05 (AVERGE_DL)=    0.0011238706 
ITERATION  16 : L=   81.4658955541 DL=  5.86e-05 (AVERGE_DL)=    0.0009420605 
ITERATION  17 : L=   81.4659362132 DL=  4.07e-05 (AVERGE_DL)=    0.0007848863 
ITERATION  18 : L=   81.4659641636 DL=  2.80e-05 (AVERGE_DL)=    0.0006507614 
ITERATION  19 : L=   81.4659832295 DL=  1.91e-05 (AVERGE_DL)=    0.0005374730 
ITERATION  20 : L=   81.4659961543 DL=  1.29e-05 (AVERGE_DL)=    0.0004425286 
ITERATION  21 : L=   81.4660048726 DL=  8.72e-06 (AVERGE_DL)=    0.0003634495 
ITERATION  22 : L=   81.4660107302 DL=  5.86e-06 (AVERGE_DL)=    0.0002979111 
ITERATION  23 : L=   81.4660146534 DL=  3.92e-06 (AVERGE_DL)=    0.0002438077 
ITERATION  24 : L=   81.4660172739 DL=  2.62e-06 (AVERGE_DL)=    0.0001992582 
ITERATION  25 : L=   81.4660190206 DL=  1.75e-06 (AVERGE_DL)=    0.0001626828 
ITERATION  26 : L=   81.4660201826 DL=  1.16e-06 (AVERGE_DL)=    0.0001326878 
ITERATION  27 : L=   81.4660209557 DL=  7.73e-07 (AVERGE_DL)=    0.0001082318 
LOCALIZATION SUM CONVERGED


--------------------------------------------------------------------------------
                    LOCALIZED MOLECULAR ORBITAL COMPOSITIONS
--------------------------------------------------------------------------------

The Mulliken populations for each LMO on each atom are computed
The LMO`s will be ordered according to atom index and type
  (A) Strongly localized MO`s have populations of >=0.950 on one atom
  (B) Two center bond orbitals have populations of >=0.850 on two atoms
  (C) Other MO`s are considered to be `delocalized`

FOUND  -   2 strongly local MO`s
       -  10 two center bond MO`s
       -   0 significantly delocalized MO`s

Rather strongly localized orbitals:
MO   5:   3O  -   0.968188
MO   4:   2O  -   0.955640
Bond-like localized orbitals:
MO  15:   7H  -   0.486503  and   1C  -   0.519917
MO  14:   6H  -   0.486518  and   1C  -   0.519890
MO  13:   5H  -   0.479472  and   1C  -   0.551160
MO  12:   4H  -   0.378460  and   3O  -   0.632751
MO  11:   3O  -   0.702762  and   0C  -   0.317180
MO  10:   3O  -   0.898900  and   0C  -   0.094740
MO   9:   2O  -   0.656563  and   0C  -   0.354778
MO   8:   2O  -   0.657107  and   0C  -   0.353952
MO   7:   2O  -   0.945531  and   0C  -   0.049003
MO   6:   1C  -   0.474243  and   0C  -   0.553014
Localized MO's were stored in: /cluster/projects/nn14654k/ylvaos/basis_set_n_funcs/functionals/gga_x_b88/CH3COOH/inp/CH3COOH_gga_x_b88_pc2.loc

-------------------------   --------------------
FINAL SINGLE POINT ENERGY      -228.035188663121
-------------------------   --------------------



           ************************************************************
           *        Program running with 8 parallel MPI-processes     *
           *              working on a common directory               *
           ************************************************************

------------------------------------------------------------------------------
                              ORCA PROPERTY CALCULATIONS
------------------------------------------------------------------------------

GBWName                                 ... /cluster/projects/nn14654k/ylvaos/basis_set_n_funcs/functionals/gga_x_b88/CH3COOH/inp/CH3COOH_gga_x_b88_pc2.gbw
Number of atoms                         ...      8
Number of basis functions               ...    176
Max core memory                         ...   4096 MB

Electric properties:
Dipole moment                           ... YES
Quadrupole moment                       ... YES
Static polarizability (Dipole/Dipole)   ...  NO
Static polarizability (Dipole/Quad.)    ...  NO
Static polarizability (Quad./Quad.)     ...  NO
Static polarizability (Velocity)        ...  NO
Static hyperpolarizability              ...  NO

Atomic electric properties:
Dipole moment                           ...  NO
Quadrupole moment                       ...  NO
Static polarizability                   ...  NO

Choice of electric origin               ... Center of mass
Position of electric origin             ...    -0.065707     0.097461     0.000000

General magnetic properties:
Magnetizability                         ...  NO

EPR properties:
g-Tensor (aka g-matrix)                 ...  NO
Zero-Field splitting spin-orbit         ...  NO
Zero-field splitting spin-spin          ...  NO
Hyperfine couplings                     ...  NO (   0 nuclei)
Quadrupole couplings                    ...  NO (   0 nuclei)
Contact density                         ...  NO (   0 nuclei)

NMR properties:
Chemical shifts                         ...  NO (   0 nuclei)
Spin-rotation constants                 ...  NO (   0 nuclei)
Spin-spin couplings                     ...  NO (   0 nuclei,    0 pairs)

Choice of magnetic origin               ... GIAO
Position of magnetic origin             ...     0.000000     0.000000     0.000000

Properties with geometric perturbations:
SCF Hessian                             ...  NO
IR spectrum                             ...  NO
VCD spectrum                            ...  NO
X-ray spectroscopy properties:
SCF XES/XAS/RIXS spectra                ...  NO

SCF SOC stabilization energy            ...  NO
Diagonal Born-Oppenheimer correction    ...  NO

-------------
DIPOLE MOMENT
-------------

Method             : SCF
Type of density    : Electron Density
Multiplicity       :   1
Irrep              :   0
Energy             :  -228.0351886631212324 Eh
Basis              : AO
                                X                 Y                 Z
Electronic contribution:     -2.217256335       2.447430474       0.000000001
Nuclear contribution   :      2.102617427      -3.118765285       0.000000000
                        -----------------------------------------
Total Dipole Moment    :     -0.114638908      -0.671334811       0.000000001
                        -----------------------------------------
Magnitude (a.u.)       :      0.681052500
Magnitude (Debye)      :      1.731097882



--------------------
Rotational spectrum 
--------------------
 
Rotational constants in cm-1:             0.373252             0.316126             0.176788 
Rotational constants in MHz :         11189.819630          9477.229268          5299.974115 

Dipole components along the rotational axes: 
x,y,z [a.u.] :    -0.348919    -0.584883     0.000000 
x,y,z [Debye]:    -0.886882    -1.486654     0.000000 

 

Dipole moment calculation done in   0.0 sec 

-----------------
QUADRUPOLE MOMENT
-----------------

Method             : SCF
Type of density    : Electron Density
Multiplicity       :   1
Irrep              :   0
Energy             :  -228.0351886631212324 Eh
Basis              : AO

                XX              YY              ZZ              XY              XZ              YZ
  NUC      103.447904006    93.335807526     5.552847104   -15.402641721     0.000000000     0.000000000
  EL      -119.155506880  -114.298661469   -23.213249108    12.785294025     0.000000002    -0.000000007
  TOT      -15.707602874   -20.962853943   -17.660402004    -2.617347696     0.000000002    -0.000000007 (a.u.)
           -21.127263066   -28.195755483   -23.753844681    -3.520422164     0.000000003    -0.000000009 (Buckingham)

diagonalized tensor:
           -22.043991667   -17.660402004   -14.626465150 (a.u.)
           -29.649922697   -23.753844681   -19.673095852 (Buckingham)
           -15.872904861     1.815329186    14.057575674 (traceless form in Buckingham)

             0.381778051     0.000000002     0.924254034
             0.924254034     0.000000001    -0.381778051
             0.000000001    -1.000000000     0.000000001
        
Isotropic quadrupole :   -18.110286274

Quadrupole moment calculation done in   0.0 sec (  0.0 sec for integrals)

Maximum memory used throughout the entire PROP-calculation: 6.7 MB

--------------------------------
SUGGESTED CITATIONS FOR THIS RUN
--------------------------------

Below you find a list of papers that are relevant to this ORCA run
We neither can nor want to force you to cite these papers, but we appreciate if you do
You receive ORCA, which is the product of decades of hard work by many enthusiastic individuals, for free
The only thing we kindly ask in return is that you cite our papers,
We deeply appreciate it, if you show your appreciation for ORCA by not just citing the generic ORCA reference.

Please note that relegating all ORCA citations to the supporting information does *not* help us.
SI sections are not indexed - citations you put there will not count into any citation statistics
But we need these citations in order to attract the funding resources that allow us to do what we are doing

Therefore, if you are a happy ORCA user, please consider citing a few of the papers listed below in the main body of your paper

In addition to the list printed below, the program has created the file /cluster/projects/nn14654k/ylvaos/basis_set_n_funcs/functionals/gga_x_b88/CH3COOH/inp/CH3COOH_gga_x_b88_pc2.bibtex that contains the list in bibtex format
You can import this file easily into all common literature databanks and citation aid programs

It goes without saying that in many instances, there are alternative algorithms to achieve similar
results as the ones you have gotten from ORCA. It is, of course, also the case that in some instances
ORCA just re-implements algorithms worked out by others. We are fully aware of that and we are also
fully appreciative of our colleagues work. Hence this citation list should not be read as indicating
that the listed papers, which are focused on our own work, are the only ones worth citing. It simply
meant to make it easier for users to cite ORCA specific papers. It is not a substitute for doing your
own literature research and citing the relevant literature in a scientifically appropriate manner.

List of essential papers. We consider these as the minimum necessary citations

  1. Neese, F.
     Software update: the ORCA program system, version 6.0
     WIRES Comput. Molec. Sci. 2025 15(1), e70019
     doi.org/10.1002/wcms.70019

List of papers to cite with high priority. The work reported in these papers was absolutely
necessary for this run to complete.
Our perspective: the developers of density functionals and basis sets usually get cited in chemistry papers
Good! But without the algorithms to do something with them, the functionals or basis sets would not do anything.
Hence, in our opinion, the algorithm design and method developments papers are equally worthy of getting cited

  1. Lehtola, S.; Steigemann, C.; Oliveira, M.; Marques, M.
     Recent developments in Libxc - A comprehensive library of functionals for density functional theory
     Software X 2018 7 , 
     doi.org/10.1016/j.softx.2017.11.002
  2. Neese, F.
     The SHARK Integral Generation and Digestion System
     J. Comp. Chem. 2022 44(3), 381
     doi.org/10.1002/jcc.26942

List of suggested additional citations. These are papers that are important in the 'surrounding' of 
of this run, or papers that preceded the highly important papers. If you like your results we are grateful for a citation.

  1. Neese, F.
     The ORCA program system
     WIRES Comput. Molec. Sci. 2012 2(1), 73-78
     doi.org/10.1002/wcms.81
  2. Neese, F.
     Software update: the ORCA program system, version 4.0
     WIRES Comput. Molec. Sci. 2018 8(1), 1-6
     doi.org/10.1002/wcms.1327
  3. Neese, F.; Wennmohs, F.; Becker, U.; Riplinger, C.
     The ORCA quantum chemistry program package
     J. Chem. Phys. 2020 152(22), 224108
     doi.org/10.1063/5.0004608
  4. Neese, F.
     Software update: The ORCA program system—Version 5.0
     WIRES Comput. Molec. Sci. 2022 12(1), e1606
     doi.org/10.1002/wcms.1606

List of optional additional citations

  1. Neese, F.
     Approximate second-order SCF convergence for spin unrestricted wavefunctions
     Chem. Phys. Lett. 2000 325(1-3), 93-98
     doi.org/10.1016/s0009-2614(00)00662-x

Timings for individual modules:

Sum of individual times          ...        7.577 sec (=   0.126 min)
Startup calculation              ...        0.430 sec (=   0.007 min)   5.7 %
SCF iterations                   ...        6.609 sec (=   0.110 min)  87.2 %
Property integrals               ...        0.243 sec (=   0.004 min)   3.2 %
Property calculations            ...        0.289 sec (=   0.005 min)   3.8 %
Orbital localization             ...        0.006 sec (=   0.000 min)   0.1 %
                             ****ORCA TERMINATED NORMALLY****
TOTAL RUN TIME: 0 days 0 hours 0 minutes 8 seconds 230 msec
