
                                 *****************
                                 * O   R   C   A *
                                 *****************

                                            #,                                       
                                            ###                                      
                                            ####                                     
                                            #####                                    
                                            ######                                   
                                           ########,                                 
                                     ,,################,,,,,                         
                               ,,#################################,,                 
                          ,,##########################################,,             
                       ,#########################################, ''#####,          
                    ,#############################################,,   '####,        
                  ,##################################################,,,,####,       
                ,###########''''           ''''###############################       
              ,#####''   ,,,,##########,,,,          '''####'''          '####       
            ,##' ,,,,###########################,,,                        '##       
           ' ,,###''''                  '''############,,,                           
         ,,##''                                '''############,,,,        ,,,,,,###''
      ,#''                                            '''#######################'''  
     '                                                          ''''####''''         
             ,#######,   #######,   ,#######,      ##                                
            ,#'     '#,  ##    ##  ,#'     '#,    #''#        ,####,    ,#,          
            ##       ##  ##   ,#'  ##            #'  '#       #'       ,# #          
            ##       ##  #######   ##           ,######,      #####,      #          
            '#,     ,#'  ##    ##  '#,     ,#' ,#      #,     #,   #      #          
             '#######'   ##     ##  '#######'  #'      '#     '####' #    #          



                #########################################################
                #                        -***-                          #
                #          Department of theory and spectroscopy        #
                #                                                       #
                #                      Frank Neese                      #
                #                                                       #
                #     Directorship, Architecture, Infrastructure        #
                #                    SHARK, DRIVERS                     #
                #        Core code/Algorithms in most modules           #
                #                                                       #
                #        Max Planck Institute fuer Kohlenforschung      #
                #                Kaiser Wilhelm Platz 1                 #
                #                 D-45470 Muelheim/Ruhr                 #
                #                      Germany                          #
                #                                                       #
                #                  All rights reserved                  #
                #                        -***-                          #
                #########################################################


                         Program Version 6.1.1  -  RELEASE   -
                                (GIT: $487d211c$)
                          ($2025-11-21 10:33:24 +0100$)


 With contributions from (in alphabetic order):
[Max-Planck-Institut fuer Kohlenforschung]                               
  Daniel Aravena         : Magnetic Suceptibility                        
  Michael Atanasov       : Ab Initio Ligand Field Theory (pilot matlab implementation)
  Alexander A. Auer      : GIAO ZORA, VPT2 properties, NMR spectrum      
  Ute Becker             : All parallelization in ORCA, NUMFREQ, NUMCALC 
  Giovanni Bistoni       : ED, misc. LED, open-shell LED, HFLD           
  Dmytro Bykov           : pre 5.0 version of the SCF Hessian            
  Marcos Casanova-Páez   : Triplet and SCS-CIS(D). UHF-(DLPNO)-IP/EA/STEOM-CCSD. UHF-CVS-IP/STEOM-CCSD   
  Vijay G. Chilkuri      : MRCI spin determinant printing, contributions to CSF-ICE 
  Pauline Colinet        : FMM embedding                                 
  Dipayan Datta          : RHF DLPNO-CCSD density                        
  Achintya Kumar Dutta   : EOM-CC, STEOM-CC                              
  Nicolas Foglia         : Exact transition moments, OPA infrastructure, MCD improvements    
  Dmitry Ganyushin       : Spin-Orbit,Spin-Spin,Magnetic field MRCI      
  Miquel Garcia-Rates    : C-PCM and meta-GGA Hessian, CCSD/C-PCM, Gaussian charge scheme 
  Tiago L. C. Gouveia    : GS-ROHF, GS-ROCIS                             
  Yang Guo               : DLPNO-NEVPT2, F12-NEVPT2, CIM, IAO-localization        
  Andreas Hansen         : Spin unrestricted coupled pair/coupled cluster methods 
  Ingolf Harden          : AUTO-CI MPn and infrastructure                
  Benjamin Helmich-Paris : MC-RPA, TRAH-(SCF,CASSCF), AVAS, COSX integrals, SCF dyn. polar., MC-PDFT, srDFT 
  Lee Huntington         : MR-EOM, pCC                                   
  Robert Izsak           : Overlap fitted RIJCOSX, COSX-SCS-MP3, EOM     
  Riya Kayal             : Wick's Theorem for AUTO-CI, AUTO-CI UHF-CCSDT 
  Emily Kempfer          : AUTO-CI RHF CISDT and CCSDT, approximate NEVPT4
  Christian Kollmar      : KDIIS, OOCD, Brueckner-CCSD(T), CCSD density, CASPT2, CASPT2-K, improved NEVPT2 
  Axel Koslowski         : Symmetry handling                             
  Simone Kossmann        : meta-GGA functionals, TD-DFT gradient, OOMP2, (MP2 Hessian; deprecated post 5.0) 
  Lucas Lang             : DCDCAS, Hyperfine gauge corrections, ICE-SOC+SSC
  Marvin Lechner         : AUTO-CI (C++ implementation), FIC-MRCC        
  Spencer Leger          : CASSCF response                               
  Dagmar Lenk            : GEPOL surface, SMD, ORCA-2-JSON               
  Dimitrios Liakos       : Extrapolation schemes; Compound Job, Property file
  Dimitrios Manganas     : Further ROCIS development; embedding schemes. LFT, Crystal Embedding 
  Dimitrios Pantazis     : SARC Basis sets                               
  Anastasios Papadopoulos: AUTO-CI, single reference methods and gradients 
  Taras Petrenko         : pre 6.0 DFT Hessian and TD-DFT gradient,  ECA, NRVS 
  Petra Pikulova         : Analytic Raman intensities                    
  Peter Pinski           : DLPNO-MP2, DLPNO-MP2 Gradient                 
  Shashank Vittal Rao    : ES-AILFT, MagRelax                            
  Christoph Reimann      : Effective Core Potentials                     
  Marius Retegan         : Local ZFS, SOC                                
  Christoph Riplinger    : Optimizer, TS searches, QM/MM, DLPNO-CCSD(T), (RO)-DLPNO pert. Triples 
  Michael Roemelt        : Original ROCIS implementation, recursive CI coupling coefficients
  Masaaki Saitow         : Open-shell DLPNO-CCSD energy and density      
  Barbara Sandhoefer     : DKH picture change effects                    
  Yorick L. A. Schmerwitz: GMF and freeze-and-release deltaSCF, NEB S-IDPP initial path                    
  Kantharuban Sivalingam : CASSCF convergence/infrastructure, NEVPT2, NEVPT3, NEVPT4(SD), FIC-MRCI and CEPA variants
  Bernardo de Souza      : ESD, SOC TD-DFT                               
  Georgi L. Stoychev     : AutoAux, RI-MP2 NMR, DLPNO-MP2 response, X2C  
  Van Anh Tran           : RI-MP2 g-tensors                              
  Willem Van den Heuvel  : Paramagnetic NMR                              
  Zikuan Wang            : NOTCH, Electric field optimization            
  Frank Wennmohs         : Technical directorship and infrastructure     
  Hang Xu                : AUTO-CI-Response properties                   
                                                                         
[FACCTs GmbH]                                                            
  Markus Bursch, Nicolas Foglia, Miquel Garcia-Rates, Ingolf Harden, Hagen Neugebauer, Anastasios Papadopoulos, 
  Christoph Riplinger, Bernardo de Souza, Georgi L. Stoychev                                                    
                                                                 
  APM, various basis sets, CI-OPT, improved COSX, DLPNO-Multilevel,           
  DOCKER, DRACO, updates on ESD, Fragmentator, GOAT, IRC, LR-CPCM, L-BFGS, MBIS, meta-GGA TD-DFT gradient, ML-optimized integration grids, 
  MM, NACMEs, nearIR, NEB, NEB-TS, NL-DFT gradient (VV10), 2- and 3-layer-ONIOM, interface openCOSMO-RS, QMMM,   
  Crystal-QMMM, RESP, rigid body optimization, SF, symmetry and pop. for TD-DFT, various functionals, SOLVATOR                                   
                                                                         
[Other institutions]                                                     
  V. Asgeirsson          : NEB                                           
  Christoph Bannwarth    : sTDA-DFT, sTD-DFT, PBEh-3c, B97-3c, D3        
  Giovanni Bistoni       : ETS/NOCV, ADLD/ADEX, COVALED                  
  Martin Brehm           : Molecular dynamics                            
  Ronald Cardenas        : ETS/NOCV                                      
  Martina Colucci        : COVALED                                       
  Sebastian Ehlert       : rSCAN, r2SCAN, r2SCAN-3c, D4, dhf basis sets  
  Marvin Friede          : D4 for Fr, Ra, Ac-Lr                          
  Lars Goerigk           : TD-DFT with DH, B97 family of functionals     
  Stefan Grimme          : VdW corrections, initial TS optimization, DFT functionals, gCP, sTDA/sTD-DF 
  Waldemar Hujo          : DFT-NL                                        
  H. Jonsson             : NEB                                           
  Holger Kruse           : gCP                                           
  Marcel Mueller         : wB97X-3c, vDZP basis set                      
  Hagen Neugebauer       : wr2SCAN, Native XTB                           
  Gianluca Regni         : ADLD/ADEX                                     
  Tobias Risthaus        : pre 6.0 range-separated hybrid DFT and stability analysis
  Lukas Wittmann         : regularized MP2, r2SCAN double-hybrids, wr2SCAN        
                                                                         
We gratefully acknowledge several colleagues who have allowed us to      
interface, adapt or use parts of their codes:                            
  Ed Valeev, F. Pavosevic, A. Kumar             : LibInt (2-el integral package), F12 methods 
  Garnet Chan, S. Sharma, J. Yang, R. Olivares  : DMRG                   
  Ulf Ekstrom                                   : XCFun DFT Library      
  Mihaly Kallay                                 : mrcc  (arbitrary order and MRCC methods)
  Frank Weinhold                                : gennbo (NPA and NBO analysis)           
  Simon Mueller                                 : openCOSMO-RS                            
  Christopher J. Cramer and Donald G. Truhlar   : smd solvation model                     
  S Lehtola, MJT Oliveira, MAL Marques          : LibXC Library                           
  Liviu Ungur et al                             : ANISO software                          


 Your calculation uses the libint2 library for the computation of 2-el integrals
 For citations please refer to: http://libint.valeyev.net

 Your ORCA version has been built with support for libXC version: 7.0.0
 For citations please refer to: https://libxc.gitlab.io

 This ORCA versions uses:
   CBLAS   interface :  Fast vector & matrix operations
   LAPACKE interface :  Fast linear algebra routines
   SCALAPACK package :  Parallel linear algebra routines
   Shared memory     :  Shared parallel matrices
   BLAS/LAPACK       :  OpenBLAS 0.3.29  USE64BITINT DYNAMIC_ARCH NO_AFFINITY Cooperlake SINGLE_THREADED
        Core in use  :  Cooperlake
   Copyright (c) 2011-2014, The OpenBLAS Project


  ***********************************
  * Starting time: Wed May 20 11:53:37 2026
  * Host name:     c1-16
  * Process ID:    4028642
  * Working dir.:  /cluster/projects/nn14654k/ylvaos/basis_set_n_funcs/functionals/gga_c_pbe/C4H6/out
  ***********************************

Using LibXC functional ID 130 : Perdew, Burke & Ernzerhof
[ 1]  J. P. Perdew, K. Burke, and M. Ernzerhof.,  Phys. Rev. Lett. 77, 3865 (1996)
[ 2]  J. P. Perdew, K. Burke, and M. Ernzerhof.,  Phys. Rev. Lett. 78, 1396 (1997)
Using LibXC functional ID 130 : Perdew, Burke & Ernzerhof
[ 1]  J. P. Perdew, K. Burke, and M. Ernzerhof.,  Phys. Rev. Lett. 77, 3865 (1996)
[ 2]  J. P. Perdew, K. Burke, and M. Ernzerhof.,  Phys. Rev. Lett. 78, 1396 (1997)
Your calculation utilizes LibXC
by S. Lehtola, C. Steigemann, M. J. T. Oliveira & M. A. L. Marques
Please cite in your paper:
Lehtola, S.; Steigemann, C.; Oliveira, M.J.T.; Marques, M. A. L. Software X, 7, (2018), 1.
   

================================================================================

----- Orbital basis set information -----
Your calculation utilizes the basis: cc-pVTZ 
       H, B-Ne : Obtained from the ccRepo (grant-hill.group.shef.ac.uk/ccrepo) Feb. 2017
                 T. H. Dunning, Jr., J. Chem. Phys. 90, 1007 (1989)
            He : Obtained from the ccRepo (grant-hill.group.shef.ac.uk/ccrepo) Feb. 2017
                 D. E. Woon, T. H. Dunning, Jr., J. Chem. Phys. 100, 2975 (1994)
  Li-Be, Na-Mg : Obtained from the ccRepo (grant-hill.group.shef.ac.uk/ccrepo) Feb. 2017
                 B. P. Prascher, D. E. Woon, K. A. Peterson, T. H. Dunning, Jr., A. K. Wilson, Theor. Chem. Acc. 128, 69 (2011)
         Al-Ar : Obtained from the ccRepo (grant-hill.group.shef.ac.uk/ccrepo) Feb. 2017
                 D. E. Woon, T. H. Dunning, Jr., J. Chem. Phys. 98, 1358 (1993)
            Ca : Obtained from the Peterson Research Group Website (tyr0.chem.wsu.edu/~kipeters) Feb. 2017
                 J. Koput, K. A. Peterson, J. Phys. Chem. 106, 9595 (2002)
         Sc-Zn : Obtained from the ccRepo (grant-hill.group.shef.ac.uk/ccrepo) Feb. 2017
                 N. B. Balabanov, K. A. Peterson, J. Chem. Phys. 123, 064107 (2005)
                 N. B. Balabanov, K. A. Peterson, J. Chem. Phys. 125, 074110 (2006)
         Ga-Kr : Obtained from the ccRepo (grant-hill.group.shef.ac.uk/ccrepo) Feb. 2017
                 A. K. Wilson, D. E. Woon, K. A. Peterson, T. H. Dunning, Jr., J. Chem. Phys. 110, 7667 (1999)
             Y : Obtained from the ccRepo (grant-hill.group.shef.ac.uk/ccrepo) Feb. 2017
                 K. A. Peterson, D. Figgen, M. Dolg, H. Stoll, J. Chem. Phys. 126, 124101 (2007)
        Ag, Au : Obtained from the Peterson Research Group Website (tyr0.chem.wsu.edu/~kipeters) Feb. 2017
                 K. A. Peterson, C. Puzzarini, Theor. Chem. Acc. 114, 283 (2005)

================================================================================
                                        WARNINGS
                       Please study these warnings very carefully!
================================================================================


================================================================================
                                       INPUT FILE
================================================================================
NAME = /cluster/projects/nn14654k/ylvaos/basis_set_n_funcs/functionals/gga_c_pbe/C4H6/inp/C4H6_gga_c_pbe_ccpvtz.inp
|  1> ! dft cc-pVTZ TightSCF
|  2> %pal nprocs 8 end
|  3> 
|  4> %loc
|  5>   LocMet NewBoys
|  6>   Occ true
|  7> end
|  8> 
|  9> %method
| 10>   exchange None
| 11>   correlation gga_c_pbe
| 12> end
| 13> 
| 14> %elprop
| 15>   Dipole true
| 16>   Quadrupole true
| 17> end
| 18> 
| 19> * xyz 0 1
| 20> C    0.000000000000   0.000000000000   1.632000000000
| 21> C    0.000000000000   0.000000000000   0.300000000000
| 22> C    0.000000000000   0.771000000000  -0.936300000000
| 23> C    0.000000000000  -0.771000000000  -0.936300000000
| 24> H    0.000000000000   0.914000000000   2.222200000000
| 25> H    0.000000000000  -0.914000000000   2.222200000000
| 26> H    0.912300000000   1.305900000000  -1.200300000000
| 27> H   -0.912300000000   1.305900000000  -1.200300000000
| 28> H   -0.912300000000  -1.305900000000  -1.200300000000
| 29> H    0.912300000000  -1.305900000000  -1.200300000000
| 30> *
| 31> 
| 32> 
| 33>                          ****END OF INPUT****
================================================================================

                       ****************************
                       * Single Point Calculation *
                       ****************************

---------------------------------
CARTESIAN COORDINATES (ANGSTROEM)
---------------------------------
  C      0.000000    0.000000    1.632000
  C      0.000000    0.000000    0.300000
  C      0.000000    0.771000   -0.936300
  C      0.000000   -0.771000   -0.936300
  H      0.000000    0.914000    2.222200
  H      0.000000   -0.914000    2.222200
  H      0.912300    1.305900   -1.200300
  H     -0.912300    1.305900   -1.200300
  H     -0.912300   -1.305900   -1.200300
  H      0.912300   -1.305900   -1.200300

----------------------------
CARTESIAN COORDINATES (A.U.)
----------------------------
  NO LB      ZA    FRAG     MASS         X           Y           Z
   0 C     6.0000    0    12.011    0.000000    0.000000    3.084033
   1 C     6.0000    0    12.011    0.000000    0.000000    0.566918
   2 C     6.0000    0    12.011    0.000000    1.456979   -1.769351
   3 C     6.0000    0    12.011    0.000000   -1.456979   -1.769351
   4 H     1.0000    0     1.008    0.000000    1.727210    4.199349
   5 H     1.0000    0     1.008    0.000000   -1.727210    4.199349
   6 H     1.0000    0     1.008    1.723997    2.467793   -2.268238
   7 H     1.0000    0     1.008   -1.723997    2.467793   -2.268238
   8 H     1.0000    0     1.008   -1.723997   -2.467793   -2.268238
   9 H     1.0000    0     1.008    1.723997   -2.467793   -2.268238

--------------------------------
INTERNAL COORDINATES (ANGSTROEM)
--------------------------------
 C      0   0   0     0.000000000000     0.00000000     0.00000000
 C      1   0   0     1.332000000000     0.00000000     0.00000000
 C      2   1   0     1.457010188708   148.05088964     0.00000000
 C      2   1   3     1.457010188708   148.05088964   180.00000000
 H      1   2   3     1.087994503663   122.85166680     0.00000000
 H      1   2   3     1.087994503663   122.85166680   180.00000000
 H      3   2   1     1.090002431190   117.72260444    70.99760541
 H      3   2   1     1.090002431190   117.72260444   289.00239459
 H      4   2   1     1.090002431190   117.72260444    70.99760541
 H      4   2   1     1.090002431190   117.72260444   289.00239459

---------------------------
INTERNAL COORDINATES (A.U.)
---------------------------
 C      0   0   0     0.000000000000     0.00000000     0.00000000
 C      1   0   0     2.517115210383     0.00000000     0.00000000
 C      2   1   0     2.753350230992   148.05088964     0.00000000
 C      2   1   3     2.753350230992   148.05088964   180.00000000
 H      1   2   3     2.056011647134   122.85166680     0.00000000
 H      1   2   3     2.056011647134   122.85166680   180.00000000
 H      3   2   1     2.059806080257   117.72260444    70.99760541
 H      3   2   1     2.059806080257   117.72260444   289.00239459
 H      4   2   1     2.059806080257   117.72260444    70.99760541
 H      4   2   1     2.059806080257   117.72260444   289.00239459

---------------------
BASIS SET INFORMATION
---------------------
There are 2 groups of distinct atoms

 Group   1 Type C   : 18s5p2d1f contracted to 4s3p2d1f pattern {8811/311/11/1}
 Group   2 Type H   : 5s2p1d contracted to 3s2p1d pattern {311/11/1}

Atom   0C    basis set group =>   1
Atom   1C    basis set group =>   1
Atom   2C    basis set group =>   1
Atom   3C    basis set group =>   1
Atom   4H    basis set group =>   2
Atom   5H    basis set group =>   2
Atom   6H    basis set group =>   2
Atom   7H    basis set group =>   2
Atom   8H    basis set group =>   2
Atom   9H    basis set group =>   2


           ************************************************************
           *        Program running with 8 parallel MPI-processes     *
           *              working on a common directory               *
           ************************************************************
------------------------------------------------------------------------------
                             ORCA STARTUP CALCULATIONS
------------------------------------------------------------------------------
------------------------------------------------------------------------------
                   ___                                                        
                  /   \      - P O W E R E D   B Y -                         
                 /     \                                                     
                 |  |  |   _    _      __       _____    __    __             
                 |  |  |  | |  | |    /  \     |  _  \  |  |  /  |          
                  \  \/   | |  | |   /    \    | | | |  |  | /  /          
                 / \  \   | |__| |  /  /\  \   | |_| |  |  |/  /          
                |  |  |   |  __  | /  /__\  \  |    /   |      \           
                |  |  |   | |  | | |   __   |  |    \   |  |\   \          
                \     /   | |  | | |  |  |  |  | |\  \  |  | \   \       
                 \___/    |_|  |_| |__|  |__|  |_| \__\ |__|  \__/        
                                                                              
                      - O R C A' S   B I G   F R I E N D -                    
                                      &                                       
                       - I N T E G R A L  F E E D E R -                       
                                                                              
 v1 FN, 2020, v2 2021, v3 2022-2024                                           
------------------------------------------------------------------------------


----------------------
SHARK INTEGRAL PACKAGE
----------------------

Number of atoms                             ...     10
Number of basis functions                   ...    228
Number of shells                            ...    100
Maximum angular momentum                    ...      3
Integral batch strategy                     ... SHARK/LIBINT Hybrid
RI-J (if used) integral strategy            ... SPLIT-RIJ (Revised 2003 algorithm where possible)
Printlevel                                  ...      1
Contraction scheme used                     ... PARTIAL GENERAL contraction
Prescreening option                         ... SCHWARTZ
   Thresh                                   ... 2.500e-11
   Tcut                                     ... 2.500e-12
   Tpresel                                  ... 2.500e-12 
Coulomb Range Separation                    ... NOT USED
Exchange Range Separation                   ... NOT USED
Multipole approximations                    ... NOT USED
Finite Nucleus Model                        ... NOT USED
CABS basis                                  ... NOT available
Auxiliary Coulomb fitting basis             ... NOT available
Auxiliary J/K fitting basis                 ... NOT available
Auxiliary Correlation fitting basis         ... NOT available
Auxiliary 'external' fitting basis          ... NOT available

Checking pre-screening integrals            ... done (  0.0 sec) Dimension = 100
Save PGC pre-screening integrals            ... done (  0.0 sec) Dimension = 100
Calculate PGC overlap integrals             ... done (  0.0 sec) Dimension = 76
Calculating pre-screening integrals (ORCA)  ... done (  0.0 sec) Dimension = 76
Shell pair information
Shell pair cut-off parameter TPreSel        ...   2.5e-12
Total number of shell pairs                 ...      5050
Shell pairs after pre-screening             ...      4554
Total number of primitive shell pairs       ...      7290
Primitive shell pairs kept                  ...      6022
          la=0 lb=0:   1389 shell pairs
          la=1 lb=0:   1296 shell pairs
          la=1 lb=1:    292 shell pairs
          la=2 lb=0:    750 shell pairs
          la=2 lb=1:    328 shell pairs
          la=2 lb=2:    105 shell pairs
          la=3 lb=0:    232 shell pairs
          la=3 lb=1:     96 shell pairs
          la=3 lb=2:     56 shell pairs
          la=3 lb=3:     10 shell pairs

Checking whether 4 symmetric matrices of dimension 228 fit in memory
:Max Core in MB      =   4096.00
 MB in use           =      7.05
 MB left             =   4088.95
 MB needed           =      0.80
 Data fit in memory  = YES
Calculating Nuclear repulsion               ... done (  0.0 sec) ENN=    109.249345578353 Eh

Diagonalization of the overlap matrix:
Smallest eigenvalue                        ... 2.923e-04
Time for diagonalization                   ...    0.003 sec
Threshold for overlap eigenvalues          ... 1.000e-07
Number of eigenvalues below threshold      ... 0
Time for construction of square roots      ...    0.005 sec
Total time needed                          ...    0.009 sec

-------------------
DFT GRID GENERATION
-------------------

General Integration Accuracy     IntAcc      ... 4.388
Radial Grid Type                 RadialGrid  ... OptM3 with GC (2021)
Angular Grid (max. ang.)         AngularGrid ... 4 (Lebedev-302)
Angular grid pruning method      GridPruning ... 4 (adaptive)
Weight generation scheme         WeightScheme... mBecke (2022)
Basis function cutoff            BFCut       ... 1.0000e-11
Integration weight cutoff        WCut        ... 1.0000e-14
Partially contracted basis set               ... off
Rotationally invariant grid construction     ... off
Angular grids for H and He will be reduced by one unit

Total number of grid points                  ...    43682
Total number of batches                      ...      687
Average number of points per batch           ...       63
Average number of grid points per atom       ...     4368

---------------------
SHARK GRID GENERATION
---------------------

General Integration Accuracy     IntAcc      ... 4.388
Radial Grid Type                 RadialGrid  ... OptM3 with GC (2021)
Angular Grid (max. ang.)         AngularGrid ... 4 (Lebedev-302)
Angular grid pruning method      GridPruning ... 4 (adaptive)
Weight generation scheme         WeightScheme... mBecke (2022)
Basis function cutoff            BFCut       ... 1.0000e-11
Integration weight cutoff        WCut        ... 1.0000e-14
Partially contracted basis set               ... off
Rotationally invariant grid construction     ... off
Angular grids for H and He will be reduced by one unit
Steep s-basis detected: some atoms will have their radial
                        grid points doubled.

Total number of grid points                  ...    68153
Total number of batches                      ...     1069
Average number of points per batch           ...       63
Average number of grid points per atom       ...     6815
Grids setup in   0.4 sec
Initializing property integral containers    ... done (  0.0 sec)

SHARK setup successfully completed in   0.5 seconds

Maximum memory used throughout the entire STARTUP-calculation: 21.9 MB


           ************************************************************
           *        Program running with 8 parallel MPI-processes     *
           *              working on a common directory               *
           ************************************************************
-------------------------------------------------------------------------------
                                 ORCA GUESS
                   Start orbitals & Density for SCF / CASSCF
-------------------------------------------------------------------------------

------------
SCF SETTINGS
------------
Hamiltonian:
 Density Functional     Method          .... DFT(GTOs)
 Exchange Functional    Exchange        .... no Exchange
  Functional kind                       .... Correlation
  Functional name                       .... Perdew, Burke & Ernzerhof
  Functional family                     .... GGA
  Functional refs                              
    [ 0] J. P. Perdew, K. Burke, and M. Ernzerhof.,  Phys. Rev. Lett. 77, 3865 (1996), doi: 10.1103/PhysRevLett.77.3865
    [ 1] J. P. Perdew, K. Burke, and M. Ernzerhof.,  Phys. Rev. Lett. 78, 1396 (1997), doi: 10.1103/PhysRevLett.78.1396
  Functional external parameters        .... 3
    Parameter  0 _beta      =  6.672455e-02 : beta constant       
    Parameter  1 _gamma     =  3.109069e-02 : (1 - ln(2))/Pi^2 in the PBE
    Parameter  2 _B         =  1.000000e+00 : Multiplies the A t^2 term. Used in the SPBE functional
 Gradients option       PostSCFGGA      .... off


General Settings:
 Integral files         IntName         .... /cluster/projects/nn14654k/ylvaos/basis_set_n_funcs/functionals/gga_c_pbe/C4H6/inp/C4H6_gga_c_pbe_ccpvtz
 Hartree-Fock type      HFTyp           .... RHF
 Total Charge           Charge          ....    0
 Multiplicity           Mult            ....    1
 Number of Electrons    NEL             ....   30
 Basis Dimension        Dim             ....  204
 Nuclear Repulsion      ENuc            ....    109.2493455784 Eh

Convergence Acceleration:
 AO-DIIS                CNVDIIS         .... on
   Start iteration      DIISMaxIt       ....    12
   Startup error        DIISStart       ....  0.200000
   # of expansion vecs  DIISMaxEq       ....     5
   Bias factor          DIISBfac        ....   1.050
   Max. coefficient     DIISMaxC        ....  10.000
 MO-DIIS                CNVKDIIS        .... off
 Trust-Rad. Augm. Hess. CNVTRAH         .... auto
   Auto Start mean grad. ratio tolernc. ....  1.125000
   Auto Start start iteration           ....    50
   Auto Start num. interpolation iter.  ....    10
   Max. Number of Micro iterations      ....    24
   Max. Number of Macro iterations      .... Maxiter - #DIIS iter
   Number of Davidson start vectors     ....     2
   Converg. threshold    (grad. norm)   ....   1.000e-05
   Grad. Scal. Fac. for Micro threshold ....   0.100
   Minimum threshold for Micro iter.    ....   1.000e-02
   NR start threshold (gradient norm)   ....   1.000e-04
   Initial trust radius                 ....   0.400
   Minimum AH scaling param. (alpha)    ....   1.000
   Maximum AH scaling param. (alpha)    .... 1000.000
   Quad. conv. algorithm                .... NR
   White noise on init. David. guess    .... on
   Maximum white noise                  ....   0.010
   Pseudo random numbers                .... off
   Inactive MOs                         .... canonical
   Orbital update algorithm             .... Taylor
   Preconditioner                       .... Diag
   Full preconditioner red. dimension   ....   250
 SOSCF                 CNVSOSCF           .... on
   Start iteration     SOSCFMaxIt         ....   150
   Startup grad/error  SOSCFStart         ....  0.003300
   Hessian update      SOSCFHessUp        .... L-BFGS
   Autom. constraints  SOSCFAutoConstrain .... off
 Level Shifting         CNVShift        .... on
   Level shift para.    LevelShift      ....    0.2500
   Turn off err/grad.   ShiftErr        ....    0.0010
 Zerner damping         CNVZerner       .... off
 Static damping         CNVDamp         .... on
   Fraction old density DampFac         ....    0.7000
   Max. Damping (<1)    DampMax         ....    0.9800
   Min. Damping (>=0)   DampMin         ....    0.0000
   Turn off err/grad.   DampErr         ....    0.1000

SCF Procedure:
 Maximum # iterations   MaxIter         ....   125
 SCF integral mode      SCFMode         .... Direct
   Integral package                     .... SHARK and LIBINT hybrid scheme
 Reset frequency        DirectResetFreq ....    20
 Integral Threshold     Thresh          ....  2.500e-11 Eh
 Primitive CutOff       TCut            ....  2.500e-12 Eh

Convergence Tolerance:
 Convergence Check Mode ConvCheckMode   .... Total+1el-Energy
 Convergence forced     ConvForced      .... 0
 Energy Change          TolE            ....  1.000e-08 Eh
 1-El. energy change                    ....  1.000e-05 Eh
 Orbital Gradient       TolG            ....  1.000e-05
 Orbital Rotation angle TolX            ....  1.000e-05
 DIIS Error             TolErr          ....  5.000e-07

------------------------------
INITIAL GUESS: MODEL POTENTIAL
------------------------------
Loading Hartree-Fock densities                     ... done
Calculating cut-offs                               ... done
Initializing the effective Hamiltonian             ... done
Setting up the integral package (SHARK)            ... done
Starting the Coulomb interaction                   ... done (   0.0 sec)
Making the grid                                    ... done (   0.0 sec)
Mapping shells                                     ... done
Starting the XC term evaluation                    ... done (   0.0 sec)
  promolecular density results
     # of electrons  =     29.996209296
     EX              =      0.000000000
     EC              =     -0.956112638
     EX+EC           =     -0.956112638
Transforming the Hamiltonian                       ... done (   0.0 sec)
Diagonalizing the Hamiltonian                      ... done (   0.0 sec)
Back transforming the eigenvectors                 ... done (   0.0 sec)
Now organizing SCF variables                       ... done
                      ------------------
                      INITIAL GUESS DONE (   0.1 sec)
                      ------------------
             **** ENERGY FILE WAS UPDATED (/cluster/projects/nn14654k/ylvaos/basis_set_n_funcs/functionals/gga_c_pbe/C4H6/inp/C4H6_gga_c_pbe_ccpvtz.en.tmp) ****
Finished Guess after   0.1 sec
Maximum memory used throughout the entire GUESS-calculation: 11.6 MB


           ************************************************************
           *        Program running with 8 parallel MPI-processes     *
           *              working on a common directory               *
           ************************************************************

-------------------------------------------------------------------------------------------
                                      ORCA LEAN-SCF
                              memory conserving SCF solver
-------------------------------------------------------------------------------------------

----------------------------------------D-I-I-S--------------------------------------------
Iteration    Energy (Eh)           Delta-E    RMSDP     MaxDP     DIISErr   Damp  Time(sec)
-------------------------------------------------------------------------------------------
               ***  Starting incremental Fock matrix formation  ***
    1    -133.5105498928259067     0.00e+00  2.53e-02  3.69e-01  2.76e-01  0.700   0.5
    2    -133.7087794059792145    -1.98e-01  2.04e-02  2.75e-01  9.71e-02  0.700   0.5
                               ***Turning on AO-DIIS***
    3    -133.7539072431992508    -4.51e-02  1.31e-02  1.77e-01  5.25e-02  0.700   0.5
    4    -133.7811356990072795    -2.72e-02  2.55e-02  3.68e-01  3.62e-02  0.000   0.5
    5    -133.8586197899057311    -7.75e-02  5.86e-03  6.68e-02  3.88e-02  0.000   0.5
    6    -133.8660731456981807    -7.45e-03  3.47e-03  4.32e-02  1.53e-02  0.000   0.5
    7    -133.8668995743663004    -8.26e-04  1.71e-03  2.52e-02  4.35e-03  0.000   0.5
                              *** Initializing SOSCF ***
---------------------------------------S-O-S-C-F--------------------------------------
Iteration    Energy (Eh)           Delta-E    RMSDP     MaxDP     MaxGrad    Time(sec)
--------------------------------------------------------------------------------------
    8    -133.8669614366903033    -6.19e-05  8.38e-04  1.37e-02  1.08e-03     0.5
               *** Restarting incremental Fock matrix formation ***
    9    -133.8669686918224215    -7.26e-06  7.62e-04  1.42e-02  2.47e-04     0.5
   10    -133.8669698475329142    -1.16e-06  4.01e-04  7.59e-03  1.96e-04     0.4
   11    -133.8669694544120716     3.93e-07  3.87e-04  7.24e-03  2.05e-04     0.4
   12    -133.8669703255790751    -8.71e-07  1.07e-04  1.84e-03  5.29e-05     0.4
   13    -133.8669701605548426     1.65e-07  1.14e-04  1.98e-03  1.17e-04     0.4
   14    -133.8669703839258887    -2.23e-07  5.46e-06  7.47e-05  3.59e-06     0.4
   15    -133.8669703845932872    -6.67e-10  1.31e-06  1.71e-05  3.16e-06     0.3
                 **** Energy Check signals convergence ****

               *****************************************************
               *                     SUCCESS                       *
               *           SCF CONVERGED AFTER  15 CYCLES          *
               *****************************************************

             **** ENERGY FILE WAS UPDATED (/cluster/projects/nn14654k/ylvaos/basis_set_n_funcs/functionals/gga_c_pbe/C4H6/inp/C4H6_gga_c_pbe_ccpvtz.en.tmp) ****

----------------
TOTAL SCF ENERGY
----------------

Total Energy       :       -133.86697038514814 Eh           -3642.70546 eV

Components:
Nuclear Repulsion  :        109.24934557835338 Eh            2972.82583 eV
Electronic Energy  :       -243.11631596350153 Eh           -6615.53128 eV
One Electron Energy:       -415.28006458499414 Eh          -11300.34506 eV
Two Electron Energy:        172.16374862149260 Eh            4684.81377 eV

Virial components:
Potential Energy   :       -272.12808950525687 Eh           -7404.98178 eV
Kinetic Energy     :        138.26111912010870 Eh            3762.27632 eV
Virial Ratio       :          1.96821847846361

DFT components:
N(Alpha)           :       14.999987518816 electrons
N(Beta)            :       14.999987518816 electrons
N(Total)           :       29.999975037633 electrons
E(X)               :        0.000000000000 Eh       
E(C)               :       -0.952502475107 Eh       
E(XC)              :       -0.952502475107 Eh       

---------------
SCF CONVERGENCE
---------------

  Last Energy change         ...    6.6740e-10  Tolerance :   1.0000e-08
  Last MAX-Density change    ...    1.7098e-05  Tolerance :   1.0000e-07
  Last RMS-Density change    ...    1.3129e-06  Tolerance :   5.0000e-09
  Last DIIS Error            ...    1.0761e-03  Tolerance :   5.0000e-07
  Last Orbital Gradient      ...    3.1648e-06  Tolerance :   1.0000e-05
  Last Orbital Rotation      ...    5.8583e-06  Tolerance :   1.0000e-05


----------------
ORBITAL ENERGIES
----------------

  NO   OCC          E(Eh)            E(eV) 
   0   2.0000      -8.336447      -226.8462 
   1   2.0000      -8.336030      -226.8349 
   2   2.0000      -8.330447      -226.6830 
   3   2.0000      -8.311718      -226.1734 
   4   2.0000      -0.511442       -13.9170 
   5   2.0000      -0.345812        -9.4100 
   6   2.0000      -0.265331        -7.2200 
   7   2.0000      -0.200736        -5.4623 
   8   2.0000      -0.187505        -5.1023 
   9   2.0000      -0.141980        -3.8635 
  10   2.0000      -0.114085        -3.1044 
  11   2.0000      -0.055793        -1.5182 
  12   2.0000      -0.032363        -0.8806 
  13   2.0000       0.002156         0.0587 
  14   2.0000       0.006086         0.1656 
  15   0.0000       0.152208         4.1418 
  16   0.0000       0.156843         4.2679 
  17   0.0000       0.183552         4.9947 
  18   0.0000       0.189761         5.1637 
  19   0.0000       0.221706         6.0329 
  20   0.0000       0.228639         6.2216 
  21   0.0000       0.242865         6.6087 
  22   0.0000       0.267521         7.2796 
  23   0.0000       0.301386         8.2011 
  24   0.0000       0.316634         8.6160 
  25   0.0000       0.349557         9.5119 
*Only the first 10 virtual orbitals were printed.

                    ********************************
                    * MULLIKEN POPULATION ANALYSIS *
                    ********************************

-----------------------
MULLIKEN ATOMIC CHARGES
-----------------------
   0 C :   -0.082098
   1 C :    0.347543
   2 C :   -0.275333
   3 C :   -0.275336
   4 H :   -0.003556
   5 H :   -0.003556
   6 H :    0.073084
   7 H :    0.073084
   8 H :    0.073085
   9 H :    0.073084
Sum of atomic charges:    0.0000000

--------------------------------
MULLIKEN REDUCED ORBITAL CHARGES
--------------------------------
  0 C s       :     3.190148  s :     3.190148
      pz      :     0.978694  p :     2.862697
      px      :     1.093069
      py      :     0.790934
      dz2     :     0.009675  d :     0.025631
      dxz     :     0.010797
      dyz     :    -0.000259
      dx2y2   :     0.005265
      dxy     :     0.000153
      f0      :     0.000848  f :     0.003622
      f+1     :     0.001312
      f-1     :     0.001026
      f+2     :     0.000267
      f-2     :     0.000009
      f+3     :     0.000041
      f-3     :     0.000119

  1 C s       :     2.894912  s :     2.894912
      pz      :     0.753731  p :     2.686187
      px      :     0.971050
      py      :     0.961406
      dz2     :     0.032500  d :     0.061440
      dxz     :    -0.006359
      dyz     :     0.024514
      dx2y2   :    -0.001493
      dxy     :     0.012278
      f0      :     0.003173  f :     0.009918
      f+1     :     0.002550
      f-1     :     0.003128
      f+2     :     0.000285
      f-2     :     0.000769
      f+3     :    -0.000019
      f-3     :     0.000033

  2 C s       :     3.178998  s :     3.178998
      pz      :     1.188420  p :     3.040222
      px      :     0.977272
      py      :     0.874530
      dz2     :     0.014108  d :     0.050563
      dxz     :    -0.000025
      dyz     :     0.011132
      dx2y2   :     0.012565
      dxy     :     0.012782
      f0      :     0.000701  f :     0.005551
      f+1     :     0.000152
      f-1     :     0.001749
      f+2     :     0.000734
      f-2     :     0.000636
      f+3     :     0.000663
      f-3     :     0.000915

  3 C s       :     3.179000  s :     3.179000
      pz      :     1.188420  p :     3.040223
      px      :     0.977272
      py      :     0.874530
      dz2     :     0.014108  d :     0.050563
      dxz     :    -0.000025
      dyz     :     0.011132
      dx2y2   :     0.012565
      dxy     :     0.012782
      f0      :     0.000701  f :     0.005551
      f+1     :     0.000152
      f-1     :     0.001749
      f+2     :     0.000734
      f-2     :     0.000636
      f+3     :     0.000663
      f-3     :     0.000915

  4 H s       :     0.982485  s :     0.982485
      pz      :     0.003060  p :     0.018550
      px      :     0.006397
      py      :     0.009094
      dz2     :     0.000452  d :     0.002521
      dxz     :     0.000160
      dyz     :     0.000882
      dx2y2   :     0.000738
      dxy     :     0.000290

  5 H s       :     0.982484  s :     0.982484
      pz      :     0.003060  p :     0.018550
      px      :     0.006397
      py      :     0.009094
      dz2     :     0.000452  d :     0.002521
      dxz     :     0.000160
      dyz     :     0.000882
      dx2y2   :     0.000738
      dxy     :     0.000290

  6 H s       :     0.896780  s :     0.896780
      pz      :     0.008134  p :     0.027282
      px      :     0.009277
      py      :     0.009871
      dz2     :     0.000470  d :     0.002854
      dxz     :     0.000542
      dyz     :     0.000295
      dx2y2   :     0.000727
      dxy     :     0.000819

  7 H s       :     0.896780  s :     0.896780
      pz      :     0.008134  p :     0.027282
      px      :     0.009277
      py      :     0.009871
      dz2     :     0.000470  d :     0.002854
      dxz     :     0.000542
      dyz     :     0.000295
      dx2y2   :     0.000727
      dxy     :     0.000819

  8 H s       :     0.896779  s :     0.896779
      pz      :     0.008134  p :     0.027282
      px      :     0.009277
      py      :     0.009871
      dz2     :     0.000470  d :     0.002854
      dxz     :     0.000542
      dyz     :     0.000295
      dx2y2   :     0.000727
      dxy     :     0.000819

  9 H s       :     0.896780  s :     0.896780
      pz      :     0.008134  p :     0.027282
      px      :     0.009277
      py      :     0.009871
      dz2     :     0.000470  d :     0.002854
      dxz     :     0.000542
      dyz     :     0.000295
      dx2y2   :     0.000727
      dxy     :     0.000819



                     *******************************
                     * LOEWDIN POPULATION ANALYSIS *
                     *******************************

----------------------
LOEWDIN ATOMIC CHARGES
----------------------
   0 C :    0.116460
   1 C :   -0.004613
   2 C :    0.157640
   3 C :    0.157640
   4 H :   -0.088350
   5 H :   -0.088350
   6 H :   -0.062607
   7 H :   -0.062607
   8 H :   -0.062607
   9 H :   -0.062607

-------------------------------
LOEWDIN REDUCED ORBITAL CHARGES
-------------------------------
  0 C s       :     2.686574  s :     2.686574
      pz      :     1.037138  p :     2.950238
      px      :     0.938960
      py      :     0.974140
      dz2     :     0.049433  d :     0.226061
      dxz     :     0.030112
      dyz     :     0.135966
      dx2y2   :     0.010305
      dxy     :     0.000246
      f0      :     0.006790  f :     0.020667
      f+1     :     0.003312
      f-1     :     0.008411
      f+2     :     0.001056
      f-2     :     0.000036
      f+3     :     0.000510
      f-3     :     0.000554

  1 C s       :     2.655550  s :     2.655550
      pz      :     1.021935  p :     2.782353
      px      :     0.819443
      py      :     0.940975
      dz2     :     0.153099  d :     0.522284
      dxz     :     0.133011
      dyz     :     0.165743
      dx2y2   :     0.027332
      dxy     :     0.043099
      f0      :     0.017543  f :     0.044426
      f+1     :     0.004001
      f-1     :     0.010183
      f+2     :     0.004750
      f-2     :     0.006919
      f+3     :     0.000875
      f-3     :     0.000155

  2 C s       :     2.605649  s :     2.605649
      pz      :     0.997491  p :     2.872985
      px      :     0.975928
      py      :     0.899567
      dz2     :     0.057154  d :     0.330652
      dxz     :     0.044907
      dyz     :     0.086518
      dx2y2   :     0.046881
      dxy     :     0.095192
      f0      :     0.008236  f :     0.033074
      f+1     :     0.002961
      f-1     :     0.003386
      f+2     :     0.007645
      f-2     :     0.002798
      f+3     :     0.004232
      f-3     :     0.003816

  3 C s       :     2.605649  s :     2.605649
      pz      :     0.997491  p :     2.872985
      px      :     0.975928
      py      :     0.899567
      dz2     :     0.057154  d :     0.330652
      dxz     :     0.044907
      dyz     :     0.086518
      dx2y2   :     0.046881
      dxy     :     0.095192
      f0      :     0.008236  f :     0.033074
      f+1     :     0.002961
      f-1     :     0.003386
      f+2     :     0.007645
      f-2     :     0.002798
      f+3     :     0.004232
      f-3     :     0.003816

  4 H s       :     0.901536  s :     0.901536
      pz      :     0.051359  p :     0.163053
      px      :     0.050167
      py      :     0.061526
      dz2     :     0.005338  d :     0.023760
      dxz     :     0.002344
      dyz     :     0.006845
      dx2y2   :     0.004677
      dxy     :     0.004556

  5 H s       :     0.901536  s :     0.901536
      pz      :     0.051359  p :     0.163053
      px      :     0.050167
      py      :     0.061526
      dz2     :     0.005338  d :     0.023760
      dxz     :     0.002344
      dyz     :     0.006845
      dx2y2   :     0.004677
      dxy     :     0.004556

  6 H s       :     0.872643  s :     0.872643
      pz      :     0.061020  p :     0.165262
      px      :     0.057344
      py      :     0.046898
      dz2     :     0.003309  d :     0.024702
      dxz     :     0.005751
      dyz     :     0.002587
      dx2y2   :     0.006733
      dxy     :     0.006323

  7 H s       :     0.872643  s :     0.872643
      pz      :     0.061020  p :     0.165262
      px      :     0.057344
      py      :     0.046898
      dz2     :     0.003309  d :     0.024702
      dxz     :     0.005751
      dyz     :     0.002587
      dx2y2   :     0.006733
      dxy     :     0.006323

  8 H s       :     0.872643  s :     0.872643
      pz      :     0.061020  p :     0.165262
      px      :     0.057344
      py      :     0.046898
      dz2     :     0.003309  d :     0.024702
      dxz     :     0.005751
      dyz     :     0.002587
      dx2y2   :     0.006733
      dxy     :     0.006323

  9 H s       :     0.872643  s :     0.872643
      pz      :     0.061020  p :     0.165262
      px      :     0.057344
      py      :     0.046898
      dz2     :     0.003309  d :     0.024702
      dxz     :     0.005751
      dyz     :     0.002587
      dx2y2   :     0.006733
      dxy     :     0.006323



                      *****************************
                      * MAYER POPULATION ANALYSIS *
                      *****************************

  NA   - Mulliken gross atomic population
  ZA   - Total nuclear charge
  QA   - Mulliken gross atomic charge
  VA   - Mayer's total valence
  BVA  - Mayer's bonded valence
  FA   - Mayer's free valence

  ATOM       NA         ZA         QA         VA         BVA        FA
  0 C      6.0821     6.0000    -0.0821     4.0223     4.0223     0.0000
  1 C      5.6525     6.0000     0.3475     4.1071     4.1071     0.0000
  2 C      6.2753     6.0000    -0.2753     3.9556     3.9556    -0.0000
  3 C      6.2753     6.0000    -0.2753     3.9556     3.9556     0.0000
  4 H      1.0036     1.0000    -0.0036     0.9886     0.9886     0.0000
  5 H      1.0036     1.0000    -0.0036     0.9886     0.9886     0.0000
  6 H      0.9269     1.0000     0.0731     1.0000     1.0000    -0.0000
  7 H      0.9269     1.0000     0.0731     1.0000     1.0000    -0.0000
  8 H      0.9269     1.0000     0.0731     1.0000     1.0000    -0.0000
  9 H      0.9269     1.0000     0.0731     1.0000     1.0000     0.0000

  Mayer bond orders larger than 0.100000
B(  0-C ,  1-C ) :   2.1801 B(  0-C ,  4-H ) :   0.8972 B(  0-C ,  5-H ) :   0.8972 
B(  1-C ,  2-C ) :   0.9655 B(  1-C ,  3-C ) :   0.9655 B(  2-C ,  3-C ) :   0.9845 
B(  2-C ,  6-H ) :   0.9647 B(  2-C ,  7-H ) :   0.9647 B(  3-C ,  8-H ) :   0.9647 
B(  3-C ,  9-H ) :   0.9647 

-------
TIMINGS
-------

Total SCF time: 0 days 0 hours 0 min 7 sec 

Total time                  ....       7.213 sec
Sum of individual times     ....       6.872 sec  ( 95.3%)

SCF preparation             ....       0.062 sec  (  0.9%)
Fock matrix formation       ....       6.380 sec  ( 88.5%)
  Startup                   ....       0.010 sec  (  0.2% of F)
  Coulomb formation         ....       5.686 sec  ( 89.1% of F)
  XC integration            ....       0.800 sec  ( 12.5% of F)
    XC Preparation          ....       0.000 sec  (  0.0% of XC)
    Basis function eval.    ....       0.163 sec  ( 20.3% of XC)
    Density eval.           ....       0.118 sec  ( 14.8% of XC)
    XC-Functional eval.     ....       0.031 sec  (  3.8% of XC)
    XC-Potential eval.      ....       0.218 sec  ( 27.3% of XC)
Diagonalization             ....       0.000 sec  (  0.0%)
Density matrix formation    ....       0.054 sec  (  0.7%)
Total Energy calculation    ....       0.018 sec  (  0.2%)
Population analysis         ....       0.011 sec  (  0.2%)
Orbital Transformation      ....       0.018 sec  (  0.2%)
Orbital Orthonormalization  ....       0.000 sec  (  0.0%)
DIIS solution               ....       0.221 sec  (  3.1%)
SOSCF solution              ....       0.109 sec  (  1.5%)
Finished LeanSCF after   7.2 sec

Maximum memory used throughout the entire LEANSCF-calculation: 15.8 MB


           ************************************************************
           *        Program running with 8 parallel MPI-processes     *
           *              working on a common directory               *
           ************************************************************

------------------------------------------------------------------------------
                         ORCA PROPERTY INTEGRAL CALCULATIONS
------------------------------------------------------------------------------

GBWName                                   ... /cluster/projects/nn14654k/ylvaos/basis_set_n_funcs/functionals/gga_c_pbe/C4H6/inp/C4H6_gga_c_pbe_ccpvtz.gbw
Number of atoms                           ...     10
Number of basis functions                 ...    228
Max core memory                           ...   4096 MB

Dipole integrals                          ... YES
Quadrupole integrals                      ... YES
Linear momentum integrals                 ...  NO
Angular momentum integrals                ...  NO
Higher moments length integrals           ...  NO
Higher moments velocity integrals         ...  NO
Kinetic energy integrals                  ...  NO
GIAO right hand sides                     ...  NO
GIAO dipole derivative integrals          ...  NO
SOC integrals                             ...  NO
EPR diamagnetic integrals (GIAO)          ...  NO
EPR gauge integrals                       ...  NO
Field gradient integrals                  ...  NO (   0 nuclei)
Spin-dipole/Fermi contact integrals       ...  NO (   0 nuclei)
Contact density integrals                 ...  NO (   0 nuclei)
Nucleus-orbit integrals                   ...  NO (   0 nuclei)
Geometric perturbations                   ...  NO (  10 nuclei)

Choice of electric origin   ... Center of mass
Position of electric origin ... (  0.0000,  0.0000,  0.0124) 
Choice of magnetic origin   ... GIAO
Position of magnetic origin ... (  0.0000,  0.0000,  0.0000) 

Calculating integrals                     ... Electric Dipole (Length)     done (  0.0 sec)
Calculating integrals                     ... Electric Quadrupole (Length) done (  0.0 sec)

Property integrals calculated in   0.0 sec

Maximum memory used throughout the entire PROPINT-calculation: 12.5 MB
------------------------------------------------------------------------------
                           ORCA ORBITAL LOCALIZATION
------------------------------------------------------------------------------

Input orbitals are from                  ... /cluster/projects/nn14654k/ylvaos/basis_set_n_funcs/functionals/gga_c_pbe/C4H6/inp/C4H6_gga_c_pbe_ccpvtz.gbw
Output orbitals are to                   ... /cluster/projects/nn14654k/ylvaos/basis_set_n_funcs/functionals/gga_c_pbe/C4H6/inp/C4H6_gga_c_pbe_ccpvtz.loc
Max. number of iterations                ... 128
Localizations seeded randomly            ... on
Convergence tolerance                    ... 1.000e-06
Threshold for strong local MOs           ... 9.500e-01
Threshold for bond MOs                   ... 8.500e-01
Operator                                 ... 0
Orbital range for localization           ... 4 to 14
Localization criterion                   ... NEW-BOYS
Doing the dipole integrals               ... o.k.
Initial value of the localization sum :    33.675620
ITERATION   0 : L=   79.2707684237 DL=  4.56e+01 (AVERGE_DL)=    0.9104958488 
ITERATION   1 : L=   89.4795350361 DL=  1.02e+01 (AVERGE_DL)=    0.4308293611 
ITERATION   2 : L=   89.7841699471 DL=  3.05e-01 (AVERGE_DL)=    0.0744232260 
ITERATION   3 : L=   89.7864186373 DL=  2.25e-03 (AVERGE_DL)=    0.0063941596 
ITERATION   4 : L=   89.7864469491 DL=  2.83e-05 (AVERGE_DL)=    0.0007174678 
ITERATION   5 : L=   89.7864473247 DL=  3.76e-07 (AVERGE_DL)=    0.0000826352 
LOCALIZATION SUM CONVERGED


--------------------------------------------------------------------------------
                    LOCALIZED MOLECULAR ORBITAL COMPOSITIONS
--------------------------------------------------------------------------------

The Mulliken populations for each LMO on each atom are computed
The LMO`s will be ordered according to atom index and type
  (A) Strongly localized MO`s have populations of >=0.950 on one atom
  (B) Two center bond orbitals have populations of >=0.850 on two atoms
  (C) Other MO`s are considered to be `delocalized`

FOUND  -   0 strongly local MO`s
       -  11 two center bond MO`s
       -   0 significantly delocalized MO`s

Bond-like localized orbitals:
MO  14:   9H  -   0.494594  and   3C  -   0.526643
MO  13:   8H  -   0.494594  and   3C  -   0.526642
MO  12:   7H  -   0.494595  and   2C  -   0.526642
MO  11:   6H  -   0.494594  and   2C  -   0.526642
MO  10:   5H  -   0.548875  and   0C  -   0.465401
MO   9:   4H  -   0.548876  and   0C  -   0.465399
MO   8:   3C  -   0.504807  and   2C  -   0.504807
MO   7:   3C  -   0.704606  and   1C  -   0.392386
MO   6:   2C  -   0.704605  and   1C  -   0.392383
MO   5:   1C  -   0.480507  and   0C  -   0.575423
MO   4:   1C  -   0.480507  and   0C  -   0.575422
Localized MO's were stored in: /cluster/projects/nn14654k/ylvaos/basis_set_n_funcs/functionals/gga_c_pbe/C4H6/inp/C4H6_gga_c_pbe_ccpvtz.loc

-------------------------   --------------------
FINAL SINGLE POINT ENERGY      -133.866970385148
-------------------------   --------------------



           ************************************************************
           *        Program running with 8 parallel MPI-processes     *
           *              working on a common directory               *
           ************************************************************

------------------------------------------------------------------------------
                              ORCA PROPERTY CALCULATIONS
------------------------------------------------------------------------------

GBWName                                 ... /cluster/projects/nn14654k/ylvaos/basis_set_n_funcs/functionals/gga_c_pbe/C4H6/inp/C4H6_gga_c_pbe_ccpvtz.gbw
Number of atoms                         ...     10
Number of basis functions               ...    228
Max core memory                         ...   4096 MB

Electric properties:
Dipole moment                           ... YES
Quadrupole moment                       ... YES
Static polarizability (Dipole/Dipole)   ...  NO
Static polarizability (Dipole/Quad.)    ...  NO
Static polarizability (Quad./Quad.)     ...  NO
Static polarizability (Velocity)        ...  NO
Static hyperpolarizability              ...  NO

Atomic electric properties:
Dipole moment                           ...  NO
Quadrupole moment                       ...  NO
Static polarizability                   ...  NO

Choice of electric origin               ... Center of mass
Position of electric origin             ...     0.000000     0.000000     0.012360

General magnetic properties:
Magnetizability                         ...  NO

EPR properties:
g-Tensor (aka g-matrix)                 ...  NO
Zero-Field splitting spin-orbit         ...  NO
Zero-field splitting spin-spin          ...  NO
Hyperfine couplings                     ...  NO (   0 nuclei)
Quadrupole couplings                    ...  NO (   0 nuclei)
Contact density                         ...  NO (   0 nuclei)

NMR properties:
Chemical shifts                         ...  NO (   0 nuclei)
Spin-rotation constants                 ...  NO (   0 nuclei)
Spin-spin couplings                     ...  NO (   0 nuclei,    0 pairs)

Choice of magnetic origin               ... GIAO
Position of magnetic origin             ...     0.000000     0.000000     0.000000

Properties with geometric perturbations:
SCF Hessian                             ...  NO
IR spectrum                             ...  NO
VCD spectrum                            ...  NO
X-ray spectroscopy properties:
SCF XES/XAS/RIXS spectra                ...  NO

SCF SOC stabilization energy            ...  NO
Diagonal Born-Oppenheimer correction    ...  NO

-------------
DIPOLE MOMENT
-------------

Method             : SCF
Type of density    : Electron Density
Multiplicity       :   1
Irrep              :   0
Energy             :  -133.8669703851481358 Eh
Basis              : AO
                                X                 Y                 Z
Electronic contribution:     -0.000000019       0.000000014       0.081348758
Nuclear contribution   :      0.000000000       0.000000000      -0.371559272
                        -----------------------------------------
Total Dipole Moment    :     -0.000000019       0.000000014      -0.290210513
                        -----------------------------------------
Magnitude (a.u.)       :      0.290210513
Magnitude (Debye)      :      0.737656502



--------------------
Rotational spectrum 
--------------------
 
Rotational constants in cm-1:             0.643527             0.230144             0.181788 
Rotational constants in MHz :         19292.450199          6899.535423          5449.866904 

Dipole components along the rotational axes: 
x,y,z [a.u.] :    -0.290211     0.000000    -0.000000 
x,y,z [Debye]:    -0.737657     0.000000    -0.000000 

 

Dipole moment calculation done in   0.0 sec 

-----------------
QUADRUPOLE MOMENT
-----------------

Method             : SCF
Type of density    : Electron Density
Multiplicity       :   1
Irrep              :   0
Energy             :  -133.8669703851481358 Eh
Basis              : AO

                XX              YY              ZZ              XY              XZ              YZ
  NUC       11.888664720    55.799971245   152.416444257     0.000000000     0.000000000     0.000000000
  EL       -38.958810933   -83.341821503  -181.278037868     0.000000575    -0.000000087    -0.000000231
  TOT      -27.070146213   -27.541850259   -28.861593611     0.000000575    -0.000000087    -0.000000231 (a.u.)
           -36.410272455   -37.044730530   -38.819830473     0.000000774    -0.000000117    -0.000000311 (Buckingham)

diagonalized tensor:
           -28.861593611   -27.541850259   -27.070146213 (a.u.)
           -38.819830473   -37.044730530   -36.410272455 (Buckingham)
            -4.184657961     1.140641869     3.044016092 (traceless form in Buckingham)

             0.000000049    -0.000001220     1.000000000
             0.000000175     1.000000000     0.000001220
             1.000000000    -0.000000175    -0.000000049
        
Isotropic quadrupole :   -27.824530027

Quadrupole moment calculation done in   0.0 sec (  0.0 sec for integrals)

Maximum memory used throughout the entire PROP-calculation: 9.1 MB

--------------------------------
SUGGESTED CITATIONS FOR THIS RUN
--------------------------------

Below you find a list of papers that are relevant to this ORCA run
We neither can nor want to force you to cite these papers, but we appreciate if you do
You receive ORCA, which is the product of decades of hard work by many enthusiastic individuals, for free
The only thing we kindly ask in return is that you cite our papers,
We deeply appreciate it, if you show your appreciation for ORCA by not just citing the generic ORCA reference.

Please note that relegating all ORCA citations to the supporting information does *not* help us.
SI sections are not indexed - citations you put there will not count into any citation statistics
But we need these citations in order to attract the funding resources that allow us to do what we are doing

Therefore, if you are a happy ORCA user, please consider citing a few of the papers listed below in the main body of your paper

In addition to the list printed below, the program has created the file /cluster/projects/nn14654k/ylvaos/basis_set_n_funcs/functionals/gga_c_pbe/C4H6/inp/C4H6_gga_c_pbe_ccpvtz.bibtex that contains the list in bibtex format
You can import this file easily into all common literature databanks and citation aid programs

It goes without saying that in many instances, there are alternative algorithms to achieve similar
results as the ones you have gotten from ORCA. It is, of course, also the case that in some instances
ORCA just re-implements algorithms worked out by others. We are fully aware of that and we are also
fully appreciative of our colleagues work. Hence this citation list should not be read as indicating
that the listed papers, which are focused on our own work, are the only ones worth citing. It simply
meant to make it easier for users to cite ORCA specific papers. It is not a substitute for doing your
own literature research and citing the relevant literature in a scientifically appropriate manner.

List of essential papers. We consider these as the minimum necessary citations

  1. Neese, F.
     Software update: the ORCA program system, version 6.0
     WIRES Comput. Molec. Sci. 2025 15(1), e70019
     doi.org/10.1002/wcms.70019

List of papers to cite with high priority. The work reported in these papers was absolutely
necessary for this run to complete.
Our perspective: the developers of density functionals and basis sets usually get cited in chemistry papers
Good! But without the algorithms to do something with them, the functionals or basis sets would not do anything.
Hence, in our opinion, the algorithm design and method developments papers are equally worthy of getting cited

  1. Lehtola, S.; Steigemann, C.; Oliveira, M.; Marques, M.
     Recent developments in Libxc - A comprehensive library of functionals for density functional theory
     Software X 2018 7 , 
     doi.org/10.1016/j.softx.2017.11.002
  2. Neese, F.
     The SHARK Integral Generation and Digestion System
     J. Comp. Chem. 2022 44(3), 381
     doi.org/10.1002/jcc.26942

List of suggested additional citations. These are papers that are important in the 'surrounding' of 
of this run, or papers that preceded the highly important papers. If you like your results we are grateful for a citation.

  1. Neese, F.
     The ORCA program system
     WIRES Comput. Molec. Sci. 2012 2(1), 73-78
     doi.org/10.1002/wcms.81
  2. Neese, F.
     Software update: the ORCA program system, version 4.0
     WIRES Comput. Molec. Sci. 2018 8(1), 1-6
     doi.org/10.1002/wcms.1327
  3. Neese, F.; Wennmohs, F.; Becker, U.; Riplinger, C.
     The ORCA quantum chemistry program package
     J. Chem. Phys. 2020 152(22), 224108
     doi.org/10.1063/5.0004608
  4. Neese, F.
     Software update: The ORCA program system—Version 5.0
     WIRES Comput. Molec. Sci. 2022 12(1), e1606
     doi.org/10.1002/wcms.1606

List of optional additional citations

  1. Neese, F.
     Approximate second-order SCF convergence for spin unrestricted wavefunctions
     Chem. Phys. Lett. 2000 325(1-3), 93-98
     doi.org/10.1016/s0009-2614(00)00662-x

Timings for individual modules:

Sum of individual times          ...        9.098 sec (=   0.152 min)
Startup calculation              ...        0.827 sec (=   0.014 min)   9.1 %
SCF iterations                   ...        7.784 sec (=   0.130 min)  85.6 %
Property integrals               ...        0.243 sec (=   0.004 min)   2.7 %
Property calculations            ...        0.239 sec (=   0.004 min)   2.6 %
Orbital localization             ...        0.005 sec (=   0.000 min)   0.1 %
                             ****ORCA TERMINATED NORMALLY****
TOTAL RUN TIME: 0 days 0 hours 0 minutes 9 seconds 754 msec
