
                                 *****************
                                 * O   R   C   A *
                                 *****************

                                            #,                                       
                                            ###                                      
                                            ####                                     
                                            #####                                    
                                            ######                                   
                                           ########,                                 
                                     ,,################,,,,,                         
                               ,,#################################,,                 
                          ,,##########################################,,             
                       ,#########################################, ''#####,          
                    ,#############################################,,   '####,        
                  ,##################################################,,,,####,       
                ,###########''''           ''''###############################       
              ,#####''   ,,,,##########,,,,          '''####'''          '####       
            ,##' ,,,,###########################,,,                        '##       
           ' ,,###''''                  '''############,,,                           
         ,,##''                                '''############,,,,        ,,,,,,###''
      ,#''                                            '''#######################'''  
     '                                                          ''''####''''         
             ,#######,   #######,   ,#######,      ##                                
            ,#'     '#,  ##    ##  ,#'     '#,    #''#        ,####,    ,#,          
            ##       ##  ##   ,#'  ##            #'  '#       #'       ,# #          
            ##       ##  #######   ##           ,######,      #####,      #          
            '#,     ,#'  ##    ##  '#,     ,#' ,#      #,     #,   #      #          
             '#######'   ##     ##  '#######'  #'      '#     '####' #    #          



                #########################################################
                #                        -***-                          #
                #          Department of theory and spectroscopy        #
                #                                                       #
                #                      Frank Neese                      #
                #                                                       #
                #     Directorship, Architecture, Infrastructure        #
                #                    SHARK, DRIVERS                     #
                #        Core code/Algorithms in most modules           #
                #                                                       #
                #        Max Planck Institute fuer Kohlenforschung      #
                #                Kaiser Wilhelm Platz 1                 #
                #                 D-45470 Muelheim/Ruhr                 #
                #                      Germany                          #
                #                                                       #
                #                  All rights reserved                  #
                #                        -***-                          #
                #########################################################


                         Program Version 6.1.1  -  RELEASE   -
                                (GIT: $487d211c$)
                          ($2025-11-21 10:33:24 +0100$)


 With contributions from (in alphabetic order):
[Max-Planck-Institut fuer Kohlenforschung]                               
  Daniel Aravena         : Magnetic Suceptibility                        
  Michael Atanasov       : Ab Initio Ligand Field Theory (pilot matlab implementation)
  Alexander A. Auer      : GIAO ZORA, VPT2 properties, NMR spectrum      
  Ute Becker             : All parallelization in ORCA, NUMFREQ, NUMCALC 
  Giovanni Bistoni       : ED, misc. LED, open-shell LED, HFLD           
  Dmytro Bykov           : pre 5.0 version of the SCF Hessian            
  Marcos Casanova-Páez   : Triplet and SCS-CIS(D). UHF-(DLPNO)-IP/EA/STEOM-CCSD. UHF-CVS-IP/STEOM-CCSD   
  Vijay G. Chilkuri      : MRCI spin determinant printing, contributions to CSF-ICE 
  Pauline Colinet        : FMM embedding                                 
  Dipayan Datta          : RHF DLPNO-CCSD density                        
  Achintya Kumar Dutta   : EOM-CC, STEOM-CC                              
  Nicolas Foglia         : Exact transition moments, OPA infrastructure, MCD improvements    
  Dmitry Ganyushin       : Spin-Orbit,Spin-Spin,Magnetic field MRCI      
  Miquel Garcia-Rates    : C-PCM and meta-GGA Hessian, CCSD/C-PCM, Gaussian charge scheme 
  Tiago L. C. Gouveia    : GS-ROHF, GS-ROCIS                             
  Yang Guo               : DLPNO-NEVPT2, F12-NEVPT2, CIM, IAO-localization        
  Andreas Hansen         : Spin unrestricted coupled pair/coupled cluster methods 
  Ingolf Harden          : AUTO-CI MPn and infrastructure                
  Benjamin Helmich-Paris : MC-RPA, TRAH-(SCF,CASSCF), AVAS, COSX integrals, SCF dyn. polar., MC-PDFT, srDFT 
  Lee Huntington         : MR-EOM, pCC                                   
  Robert Izsak           : Overlap fitted RIJCOSX, COSX-SCS-MP3, EOM     
  Riya Kayal             : Wick's Theorem for AUTO-CI, AUTO-CI UHF-CCSDT 
  Emily Kempfer          : AUTO-CI RHF CISDT and CCSDT, approximate NEVPT4
  Christian Kollmar      : KDIIS, OOCD, Brueckner-CCSD(T), CCSD density, CASPT2, CASPT2-K, improved NEVPT2 
  Axel Koslowski         : Symmetry handling                             
  Simone Kossmann        : meta-GGA functionals, TD-DFT gradient, OOMP2, (MP2 Hessian; deprecated post 5.0) 
  Lucas Lang             : DCDCAS, Hyperfine gauge corrections, ICE-SOC+SSC
  Marvin Lechner         : AUTO-CI (C++ implementation), FIC-MRCC        
  Spencer Leger          : CASSCF response                               
  Dagmar Lenk            : GEPOL surface, SMD, ORCA-2-JSON               
  Dimitrios Liakos       : Extrapolation schemes; Compound Job, Property file
  Dimitrios Manganas     : Further ROCIS development; embedding schemes. LFT, Crystal Embedding 
  Dimitrios Pantazis     : SARC Basis sets                               
  Anastasios Papadopoulos: AUTO-CI, single reference methods and gradients 
  Taras Petrenko         : pre 6.0 DFT Hessian and TD-DFT gradient,  ECA, NRVS 
  Petra Pikulova         : Analytic Raman intensities                    
  Peter Pinski           : DLPNO-MP2, DLPNO-MP2 Gradient                 
  Shashank Vittal Rao    : ES-AILFT, MagRelax                            
  Christoph Reimann      : Effective Core Potentials                     
  Marius Retegan         : Local ZFS, SOC                                
  Christoph Riplinger    : Optimizer, TS searches, QM/MM, DLPNO-CCSD(T), (RO)-DLPNO pert. Triples 
  Michael Roemelt        : Original ROCIS implementation, recursive CI coupling coefficients
  Masaaki Saitow         : Open-shell DLPNO-CCSD energy and density      
  Barbara Sandhoefer     : DKH picture change effects                    
  Yorick L. A. Schmerwitz: GMF and freeze-and-release deltaSCF, NEB S-IDPP initial path                    
  Kantharuban Sivalingam : CASSCF convergence/infrastructure, NEVPT2, NEVPT3, NEVPT4(SD), FIC-MRCI and CEPA variants
  Bernardo de Souza      : ESD, SOC TD-DFT                               
  Georgi L. Stoychev     : AutoAux, RI-MP2 NMR, DLPNO-MP2 response, X2C  
  Van Anh Tran           : RI-MP2 g-tensors                              
  Willem Van den Heuvel  : Paramagnetic NMR                              
  Zikuan Wang            : NOTCH, Electric field optimization            
  Frank Wennmohs         : Technical directorship and infrastructure     
  Hang Xu                : AUTO-CI-Response properties                   
                                                                         
[FACCTs GmbH]                                                            
  Markus Bursch, Nicolas Foglia, Miquel Garcia-Rates, Ingolf Harden, Hagen Neugebauer, Anastasios Papadopoulos, 
  Christoph Riplinger, Bernardo de Souza, Georgi L. Stoychev                                                    
                                                                 
  APM, various basis sets, CI-OPT, improved COSX, DLPNO-Multilevel,           
  DOCKER, DRACO, updates on ESD, Fragmentator, GOAT, IRC, LR-CPCM, L-BFGS, MBIS, meta-GGA TD-DFT gradient, ML-optimized integration grids, 
  MM, NACMEs, nearIR, NEB, NEB-TS, NL-DFT gradient (VV10), 2- and 3-layer-ONIOM, interface openCOSMO-RS, QMMM,   
  Crystal-QMMM, RESP, rigid body optimization, SF, symmetry and pop. for TD-DFT, various functionals, SOLVATOR                                   
                                                                         
[Other institutions]                                                     
  V. Asgeirsson          : NEB                                           
  Christoph Bannwarth    : sTDA-DFT, sTD-DFT, PBEh-3c, B97-3c, D3        
  Giovanni Bistoni       : ETS/NOCV, ADLD/ADEX, COVALED                  
  Martin Brehm           : Molecular dynamics                            
  Ronald Cardenas        : ETS/NOCV                                      
  Martina Colucci        : COVALED                                       
  Sebastian Ehlert       : rSCAN, r2SCAN, r2SCAN-3c, D4, dhf basis sets  
  Marvin Friede          : D4 for Fr, Ra, Ac-Lr                          
  Lars Goerigk           : TD-DFT with DH, B97 family of functionals     
  Stefan Grimme          : VdW corrections, initial TS optimization, DFT functionals, gCP, sTDA/sTD-DF 
  Waldemar Hujo          : DFT-NL                                        
  H. Jonsson             : NEB                                           
  Holger Kruse           : gCP                                           
  Marcel Mueller         : wB97X-3c, vDZP basis set                      
  Hagen Neugebauer       : wr2SCAN, Native XTB                           
  Gianluca Regni         : ADLD/ADEX                                     
  Tobias Risthaus        : pre 6.0 range-separated hybrid DFT and stability analysis
  Lukas Wittmann         : regularized MP2, r2SCAN double-hybrids, wr2SCAN        
                                                                         
We gratefully acknowledge several colleagues who have allowed us to      
interface, adapt or use parts of their codes:                            
  Ed Valeev, F. Pavosevic, A. Kumar             : LibInt (2-el integral package), F12 methods 
  Garnet Chan, S. Sharma, J. Yang, R. Olivares  : DMRG                   
  Ulf Ekstrom                                   : XCFun DFT Library      
  Mihaly Kallay                                 : mrcc  (arbitrary order and MRCC methods)
  Frank Weinhold                                : gennbo (NPA and NBO analysis)           
  Simon Mueller                                 : openCOSMO-RS                            
  Christopher J. Cramer and Donald G. Truhlar   : smd solvation model                     
  S Lehtola, MJT Oliveira, MAL Marques          : LibXC Library                           
  Liviu Ungur et al                             : ANISO software                          


 Your calculation uses the libint2 library for the computation of 2-el integrals
 For citations please refer to: http://libint.valeyev.net

 Your ORCA version has been built with support for libXC version: 7.0.0
 For citations please refer to: https://libxc.gitlab.io

 This ORCA versions uses:
   CBLAS   interface :  Fast vector & matrix operations
   LAPACKE interface :  Fast linear algebra routines
   SCALAPACK package :  Parallel linear algebra routines
   Shared memory     :  Shared parallel matrices
   BLAS/LAPACK       :  OpenBLAS 0.3.29  USE64BITINT DYNAMIC_ARCH NO_AFFINITY Cooperlake SINGLE_THREADED
        Core in use  :  Cooperlake
   Copyright (c) 2011-2014, The OpenBLAS Project


  ***********************************
  * Starting time: Wed May 20 11:53:37 2026
  * Host name:     c1-21
  * Process ID:    2170408
  * Working dir.:  /cluster/projects/nn14654k/ylvaos/basis_set_n_funcs/functionals/gga_c_pbe/C4H6/out
  ***********************************

Using LibXC functional ID 130 : Perdew, Burke & Ernzerhof
[ 1]  J. P. Perdew, K. Burke, and M. Ernzerhof.,  Phys. Rev. Lett. 77, 3865 (1996)
[ 2]  J. P. Perdew, K. Burke, and M. Ernzerhof.,  Phys. Rev. Lett. 78, 1396 (1997)
Using LibXC functional ID 130 : Perdew, Burke & Ernzerhof
[ 1]  J. P. Perdew, K. Burke, and M. Ernzerhof.,  Phys. Rev. Lett. 77, 3865 (1996)
[ 2]  J. P. Perdew, K. Burke, and M. Ernzerhof.,  Phys. Rev. Lett. 78, 1396 (1997)
Your calculation utilizes LibXC
by S. Lehtola, C. Steigemann, M. J. T. Oliveira & M. A. L. Marques
Please cite in your paper:
Lehtola, S.; Steigemann, C.; Oliveira, M.J.T.; Marques, M. A. L. Software X, 7, (2018), 1.
   

================================================================================

----- Orbital basis set information -----
Your calculation utilizes the basis: aug-cc-pVQZ 
    H, B-Ne : Obtained from the ccRepo (grant-hill.group.shef.ac.uk/ccrepo) Feb. 2017
              R. A. Kendall, T. H. Dunning, Jr., R. J. Harrison, J. Chem. Phys. 96, 6796 (1992)
         He : Obtained from the ccRepo (grant-hill.group.shef.ac.uk/ccrepo) Feb. 2017
              D. E. Woon, T. H. Dunning, Jr., J. Chem. Phys. 100, 2975 (1994)
  Li-Be, Na : Obtained from the ccRepo (grant-hill.group.shef.ac.uk/ccrepo) Feb. 2017
              B. P. Prascher, D. E. Woon, K. A. Peterson, T. H. Dunning, Jr., A. K. Wilson, Theor. Chem. Acc. 128, 69 (2011)
         Mg : Obtained from the Peterson Research Group Website (tyr0.chem.wsu.edu/~kipeters) Feb. 2017
              B. P. Prascher, D. E. Woon, K. A. Peterson, T. H. Dunning, Jr., A. K. Wilson, Theor. Chem. Acc. 128, 69 (2011)
      Al-Ar : Obtained from the ccRepo (grant-hill.group.shef.ac.uk/ccrepo) Feb. 2017
              D. E. Woon, T. H. Dunning, Jr., J. Chem. Phys. 98, 1358 (1993)
      Sc-Zn : Obtained from the ccRepo (grant-hill.group.shef.ac.uk/ccrepo) Feb. 2017
              N. B. Balabanov, K. A. Peterson, J. Chem. Phys. 123, 064107 (2005)
              N. B. Balabanov, K. A. Peterson, J. Chem. Phys. 125, 074110 (2006)
      Ga-Kr : Obtained from the ccRepo (grant-hill.group.shef.ac.uk/ccrepo) Feb. 2017
              A. K. Wilson, D. E. Woon, K. A. Peterson, T. H. Dunning, Jr., J. Chem. Phys. 110, 7667 (1999)

================================================================================
                                        WARNINGS
                       Please study these warnings very carefully!
================================================================================


================================================================================
                                       INPUT FILE
================================================================================
NAME = /cluster/projects/nn14654k/ylvaos/basis_set_n_funcs/functionals/gga_c_pbe/C4H6/inp/C4H6_gga_c_pbe_augccpvqz.inp
|  1> ! dft aug-cc-pVQZ TightSCF
|  2> %pal nprocs 8 end
|  3> 
|  4> %loc
|  5>   LocMet NewBoys
|  6>   Occ true
|  7> end
|  8> 
|  9> %method
| 10>   exchange None
| 11>   correlation gga_c_pbe
| 12> end
| 13> 
| 14> %elprop
| 15>   Dipole true
| 16>   Quadrupole true
| 17> end
| 18> 
| 19> * xyz 0 1
| 20> C    0.000000000000   0.000000000000   1.632000000000
| 21> C    0.000000000000   0.000000000000   0.300000000000
| 22> C    0.000000000000   0.771000000000  -0.936300000000
| 23> C    0.000000000000  -0.771000000000  -0.936300000000
| 24> H    0.000000000000   0.914000000000   2.222200000000
| 25> H    0.000000000000  -0.914000000000   2.222200000000
| 26> H    0.912300000000   1.305900000000  -1.200300000000
| 27> H   -0.912300000000   1.305900000000  -1.200300000000
| 28> H   -0.912300000000  -1.305900000000  -1.200300000000
| 29> H    0.912300000000  -1.305900000000  -1.200300000000
| 30> *
| 31> 
| 32> 
| 33>                          ****END OF INPUT****
================================================================================

                       ****************************
                       * Single Point Calculation *
                       ****************************

---------------------------------
CARTESIAN COORDINATES (ANGSTROEM)
---------------------------------
  C      0.000000    0.000000    1.632000
  C      0.000000    0.000000    0.300000
  C      0.000000    0.771000   -0.936300
  C      0.000000   -0.771000   -0.936300
  H      0.000000    0.914000    2.222200
  H      0.000000   -0.914000    2.222200
  H      0.912300    1.305900   -1.200300
  H     -0.912300    1.305900   -1.200300
  H     -0.912300   -1.305900   -1.200300
  H      0.912300   -1.305900   -1.200300

----------------------------
CARTESIAN COORDINATES (A.U.)
----------------------------
  NO LB      ZA    FRAG     MASS         X           Y           Z
   0 C     6.0000    0    12.011    0.000000    0.000000    3.084033
   1 C     6.0000    0    12.011    0.000000    0.000000    0.566918
   2 C     6.0000    0    12.011    0.000000    1.456979   -1.769351
   3 C     6.0000    0    12.011    0.000000   -1.456979   -1.769351
   4 H     1.0000    0     1.008    0.000000    1.727210    4.199349
   5 H     1.0000    0     1.008    0.000000   -1.727210    4.199349
   6 H     1.0000    0     1.008    1.723997    2.467793   -2.268238
   7 H     1.0000    0     1.008   -1.723997    2.467793   -2.268238
   8 H     1.0000    0     1.008   -1.723997   -2.467793   -2.268238
   9 H     1.0000    0     1.008    1.723997   -2.467793   -2.268238

--------------------------------
INTERNAL COORDINATES (ANGSTROEM)
--------------------------------
 C      0   0   0     0.000000000000     0.00000000     0.00000000
 C      1   0   0     1.332000000000     0.00000000     0.00000000
 C      2   1   0     1.457010188708   148.05088964     0.00000000
 C      2   1   3     1.457010188708   148.05088964   180.00000000
 H      1   2   3     1.087994503663   122.85166680     0.00000000
 H      1   2   3     1.087994503663   122.85166680   180.00000000
 H      3   2   1     1.090002431190   117.72260444    70.99760541
 H      3   2   1     1.090002431190   117.72260444   289.00239459
 H      4   2   1     1.090002431190   117.72260444    70.99760541
 H      4   2   1     1.090002431190   117.72260444   289.00239459

---------------------------
INTERNAL COORDINATES (A.U.)
---------------------------
 C      0   0   0     0.000000000000     0.00000000     0.00000000
 C      1   0   0     2.517115210383     0.00000000     0.00000000
 C      2   1   0     2.753350230992   148.05088964     0.00000000
 C      2   1   3     2.753350230992   148.05088964   180.00000000
 H      1   2   3     2.056011647134   122.85166680     0.00000000
 H      1   2   3     2.056011647134   122.85166680   180.00000000
 H      3   2   1     2.059806080257   117.72260444    70.99760541
 H      3   2   1     2.059806080257   117.72260444   289.00239459
 H      4   2   1     2.059806080257   117.72260444    70.99760541
 H      4   2   1     2.059806080257   117.72260444   289.00239459

---------------------
BASIS SET INFORMATION
---------------------
There are 2 groups of distinct atoms

 Group   1 Type C   : 22s7p4d3f2g contracted to 6s5p4d3f2g pattern {991111/31111/1111/111/11}
 Group   2 Type H   : 7s4p3d2f contracted to 5s4p3d2f pattern {31111/1111/111/11}

Atom   0C    basis set group =>   1
Atom   1C    basis set group =>   1
Atom   2C    basis set group =>   1
Atom   3C    basis set group =>   1
Atom   4H    basis set group =>   2
Atom   5H    basis set group =>   2
Atom   6H    basis set group =>   2
Atom   7H    basis set group =>   2
Atom   8H    basis set group =>   2
Atom   9H    basis set group =>   2


           ************************************************************
           *        Program running with 8 parallel MPI-processes     *
           *              working on a common directory               *
           ************************************************************
------------------------------------------------------------------------------
                             ORCA STARTUP CALCULATIONS
------------------------------------------------------------------------------
------------------------------------------------------------------------------
                   ___                                                        
                  /   \      - P O W E R E D   B Y -                         
                 /     \                                                     
                 |  |  |   _    _      __       _____    __    __             
                 |  |  |  | |  | |    /  \     |  _  \  |  |  /  |          
                  \  \/   | |  | |   /    \    | | | |  |  | /  /          
                 / \  \   | |__| |  /  /\  \   | |_| |  |  |/  /          
                |  |  |   |  __  | /  /__\  \  |    /   |      \           
                |  |  |   | |  | | |   __   |  |    \   |  |\   \          
                \     /   | |  | | |  |  |  |  | |\  \  |  | \   \       
                 \___/    |_|  |_| |__|  |__|  |_| \__\ |__|  \__/        
                                                                              
                      - O R C A' S   B I G   F R I E N D -                    
                                      &                                       
                       - I N T E G R A L  F E E D E R -                       
                                                                              
 v1 FN, 2020, v2 2021, v3 2022-2024                                           
------------------------------------------------------------------------------


----------------------
SHARK INTEGRAL PACKAGE
----------------------

Number of atoms                             ...     10
Number of basis functions                   ...    624
Number of shells                            ...    192
Maximum angular momentum                    ...      4
Integral batch strategy                     ... SHARK/LIBINT Hybrid
RI-J (if used) integral strategy            ... SPLIT-RIJ (Revised 2003 algorithm where possible)
Printlevel                                  ...      1
Contraction scheme used                     ... PARTIAL GENERAL contraction
Prescreening option                         ... SCHWARTZ
   Thresh                                   ... 2.500e-11
   Tcut                                     ... 2.500e-12
   Tpresel                                  ... 2.500e-12 
Coulomb Range Separation                    ... NOT USED
Exchange Range Separation                   ... NOT USED
Multipole approximations                    ... NOT USED
Finite Nucleus Model                        ... NOT USED
CABS basis                                  ... NOT available
Auxiliary Coulomb fitting basis             ... NOT available
Auxiliary J/K fitting basis                 ... NOT available
Auxiliary Correlation fitting basis         ... NOT available
Auxiliary 'external' fitting basis          ... NOT available

Checking pre-screening integrals            ... done (  0.0 sec) Dimension = 192
Save PGC pre-screening integrals            ... done (  0.0 sec) Dimension = 192
Calculate PGC overlap integrals             ... done (  0.0 sec) Dimension = 164
Calculating pre-screening integrals (ORCA)  ... done (  0.1 sec) Dimension = 164
Shell pair information
Shell pair cut-off parameter TPreSel        ...   2.5e-12
Total number of shell pairs                 ...     18528
Shell pairs after pre-screening             ...     17064
Total number of primitive shell pairs       ...     22608
Primitive shell pairs kept                  ...     19829
          la=0 lb=0:   2745 shell pairs
          la=1 lb=0:   3310 shell pairs
          la=1 lb=1:    964 shell pairs
          la=2 lb=0:   2560 shell pairs
          la=2 lb=1:   1444 shell pairs
          la=2 lb=2:    577 shell pairs
          la=3 lb=0:   1834 shell pairs
          la=3 lb=1:   1036 shell pairs
          la=3 lb=2:    796 shell pairs
          la=3 lb=3:    296 shell pairs
          la=4 lb=0:    650 shell pairs
          la=4 lb=1:    352 shell pairs
          la=4 lb=2:    272 shell pairs
          la=4 lb=3:    192 shell pairs
          la=4 lb=4:     36 shell pairs

Checking whether 4 symmetric matrices of dimension 624 fit in memory
:Max Core in MB      =   4096.00
 MB in use           =     24.28
 MB left             =   4071.72
 MB needed           =      5.95
 Data fit in memory  = YES
Calculating Nuclear repulsion               ... done (  0.0 sec) ENN=    109.249345578353 Eh

Diagonalization of the overlap matrix:
Smallest eigenvalue                        ... 2.286e-06
Time for diagonalization                   ...    0.025 sec
Threshold for overlap eigenvalues          ... 1.000e-07
Number of eigenvalues below threshold      ... 0
Time for construction of square roots      ...    0.021 sec
Total time needed                          ...    0.049 sec

-------------------
DFT GRID GENERATION
-------------------

General Integration Accuracy     IntAcc      ... 4.388
Radial Grid Type                 RadialGrid  ... OptM3 with GC (2021)
Angular Grid (max. ang.)         AngularGrid ... 4 (Lebedev-302)
Angular grid pruning method      GridPruning ... 4 (adaptive)
Weight generation scheme         WeightScheme... mBecke (2022)
Basis function cutoff            BFCut       ... 1.0000e-11
Integration weight cutoff        WCut        ... 1.0000e-14
Partially contracted basis set               ... off
Rotationally invariant grid construction     ... off
Angular grids for H and He will be reduced by one unit
Diffuse basis detected: some atoms will have their outermost
                        angular grid increased by 1.

Total number of grid points                  ...    46048
Total number of batches                      ...      725
Average number of points per batch           ...       63
Average number of grid points per atom       ...     4605

---------------------
SHARK GRID GENERATION
---------------------

General Integration Accuracy     IntAcc      ... 4.388
Radial Grid Type                 RadialGrid  ... OptM3 with GC (2021)
Angular Grid (max. ang.)         AngularGrid ... 4 (Lebedev-302)
Angular grid pruning method      GridPruning ... 4 (adaptive)
Weight generation scheme         WeightScheme... mBecke (2022)
Basis function cutoff            BFCut       ... 1.0000e-11
Integration weight cutoff        WCut        ... 1.0000e-14
Partially contracted basis set               ... off
Rotationally invariant grid construction     ... off
Angular grids for H and He will be reduced by one unit
Diffuse basis detected: some atoms will have their outermost
                        angular grid increased by 1.
Steep s-basis detected: some atoms will have their radial
                        grid points doubled.

Total number of grid points                  ...    71641
Total number of batches                      ...     1124
Average number of points per batch           ...       63
Average number of grid points per atom       ...     7164
Grids setup in   0.5 sec
Initializing property integral containers    ... done (  0.0 sec)

SHARK setup successfully completed in   0.9 seconds

Maximum memory used throughout the entire STARTUP-calculation: 50.3 MB


           ************************************************************
           *        Program running with 8 parallel MPI-processes     *
           *              working on a common directory               *
           ************************************************************
-------------------------------------------------------------------------------
                                 ORCA GUESS
                   Start orbitals & Density for SCF / CASSCF
-------------------------------------------------------------------------------

------------
SCF SETTINGS
------------
Hamiltonian:
 Density Functional     Method          .... DFT(GTOs)
 Exchange Functional    Exchange        .... no Exchange
  Functional kind                       .... Correlation
  Functional name                       .... Perdew, Burke & Ernzerhof
  Functional family                     .... GGA
  Functional refs                              
    [ 0] J. P. Perdew, K. Burke, and M. Ernzerhof.,  Phys. Rev. Lett. 77, 3865 (1996), doi: 10.1103/PhysRevLett.77.3865
    [ 1] J. P. Perdew, K. Burke, and M. Ernzerhof.,  Phys. Rev. Lett. 78, 1396 (1997), doi: 10.1103/PhysRevLett.78.1396
  Functional external parameters        .... 3
    Parameter  0 _beta      =  6.672455e-02 : beta constant       
    Parameter  1 _gamma     =  3.109069e-02 : (1 - ln(2))/Pi^2 in the PBE
    Parameter  2 _B         =  1.000000e+00 : Multiplies the A t^2 term. Used in the SPBE functional
 Gradients option       PostSCFGGA      .... off


General Settings:
 Integral files         IntName         .... /cluster/projects/nn14654k/ylvaos/basis_set_n_funcs/functionals/gga_c_pbe/C4H6/inp/C4H6_gga_c_pbe_augccpvqz
 Hartree-Fock type      HFTyp           .... RHF
 Total Charge           Charge          ....    0
 Multiplicity           Mult            ....    1
 Number of Electrons    NEL             ....   30
 Basis Dimension        Dim             ....  596
 Nuclear Repulsion      ENuc            ....    109.2493455784 Eh

Convergence Acceleration:
 AO-DIIS                CNVDIIS         .... on
   Start iteration      DIISMaxIt       ....    12
   Startup error        DIISStart       ....  0.200000
   # of expansion vecs  DIISMaxEq       ....     5
   Bias factor          DIISBfac        ....   1.050
   Max. coefficient     DIISMaxC        ....  10.000
 MO-DIIS                CNVKDIIS        .... off
 Trust-Rad. Augm. Hess. CNVTRAH         .... auto
   Auto Start mean grad. ratio tolernc. ....  1.125000
   Auto Start start iteration           ....    50
   Auto Start num. interpolation iter.  ....    10
   Max. Number of Micro iterations      ....    24
   Max. Number of Macro iterations      .... Maxiter - #DIIS iter
   Number of Davidson start vectors     ....     2
   Converg. threshold    (grad. norm)   ....   1.000e-05
   Grad. Scal. Fac. for Micro threshold ....   0.100
   Minimum threshold for Micro iter.    ....   1.000e-02
   NR start threshold (gradient norm)   ....   1.000e-04
   Initial trust radius                 ....   0.400
   Minimum AH scaling param. (alpha)    ....   1.000
   Maximum AH scaling param. (alpha)    .... 1000.000
   Quad. conv. algorithm                .... NR
   White noise on init. David. guess    .... on
   Maximum white noise                  ....   0.010
   Pseudo random numbers                .... off
   Inactive MOs                         .... canonical
   Orbital update algorithm             .... Taylor
   Preconditioner                       .... Diag
   Full preconditioner red. dimension   ....   250
 SOSCF                 CNVSOSCF           .... on
   Start iteration     SOSCFMaxIt         ....   150
   Startup grad/error  SOSCFStart         ....  0.003300
   Hessian update      SOSCFHessUp        .... L-BFGS
   Autom. constraints  SOSCFAutoConstrain .... off
 Level Shifting         CNVShift        .... on
   Level shift para.    LevelShift      ....    0.2500
   Turn off err/grad.   ShiftErr        ....    0.0010
 Zerner damping         CNVZerner       .... off
 Static damping         CNVDamp         .... on
   Fraction old density DampFac         ....    0.7000
   Max. Damping (<1)    DampMax         ....    0.9800
   Min. Damping (>=0)   DampMin         ....    0.0000
   Turn off err/grad.   DampErr         ....    0.1000

SCF Procedure:
 Maximum # iterations   MaxIter         ....   125
 SCF integral mode      SCFMode         .... Direct
   Integral package                     .... SHARK and LIBINT hybrid scheme
 Reset frequency        DirectResetFreq ....    20
 Integral Threshold     Thresh          ....  2.500e-11 Eh
 Primitive CutOff       TCut            ....  2.500e-12 Eh

Convergence Tolerance:
 Convergence Check Mode ConvCheckMode   .... Total+1el-Energy
 Convergence forced     ConvForced      .... 0
 Energy Change          TolE            ....  1.000e-08 Eh
 1-El. energy change                    ....  1.000e-05 Eh
 Orbital Gradient       TolG            ....  1.000e-05
 Orbital Rotation angle TolX            ....  1.000e-05
 DIIS Error             TolErr          ....  5.000e-07

------------------------------
INITIAL GUESS: MODEL POTENTIAL
------------------------------
Loading Hartree-Fock densities                     ... done
Calculating cut-offs                               ... done
Initializing the effective Hamiltonian             ... done
Setting up the integral package (SHARK)            ... done
Starting the Coulomb interaction                   ... done (   0.1 sec)
Making the grid                                    ... done (   0.1 sec)
Mapping shells                                     ... done
Starting the XC term evaluation                    ... done (   0.1 sec)
  promolecular density results
     # of electrons  =     29.996393201
     EX              =      0.000000000
     EC              =     -0.956112645
     EX+EC           =     -0.956112645
Transforming the Hamiltonian                       ... done (   0.0 sec)
Diagonalizing the Hamiltonian                      ... done (   0.0 sec)
Back transforming the eigenvectors                 ... done (   0.0 sec)
Now organizing SCF variables                       ... done
                      ------------------
                      INITIAL GUESS DONE (   0.3 sec)
                      ------------------
             **** ENERGY FILE WAS UPDATED (/cluster/projects/nn14654k/ylvaos/basis_set_n_funcs/functionals/gga_c_pbe/C4H6/inp/C4H6_gga_c_pbe_augccpvqz.en.tmp) ****
Finished Guess after   0.4 sec
Maximum memory used throughout the entire GUESS-calculation: 41.5 MB


           ************************************************************
           *        Program running with 8 parallel MPI-processes     *
           *              working on a common directory               *
           ************************************************************

-------------------------------------------------------------------------------------------
                                      ORCA LEAN-SCF
                              memory conserving SCF solver
-------------------------------------------------------------------------------------------

----------------------------------------D-I-I-S--------------------------------------------
Iteration    Energy (Eh)           Delta-E    RMSDP     MaxDP     DIISErr   Damp  Time(sec)
-------------------------------------------------------------------------------------------
               ***  Starting incremental Fock matrix formation  ***
    1    -129.6187623333785268     0.00e+00  3.02e+00  2.69e+02  6.08e-01  0.700  22.0
Warning: op=0 Small HOMO/LUMO gap (   0.042) - skipping pre-diagonalization
         Will do a full diagonalization
    2    -132.0310977876793004    -2.41e+00  2.12e+00  1.89e+02  1.95e-01  0.700  21.7
                               ***Turning on AO-DIIS***
    3    -132.8558869740718933    -8.25e-01  1.48e+00  1.32e+02  1.06e-01  0.700  21.5
    4    -133.2164981059664228    -3.61e-01  1.04e+00  9.24e+01  1.17e-01  0.700  21.4
    5    -133.4112575403948995    -1.95e-01  7.26e-01  6.47e+01  1.44e-01  0.700  21.2
    6    -133.5340642555020736    -1.23e-01  5.08e-01  4.53e+01  1.49e-01  0.700  21.1
    7    -133.6203014524038508    -8.62e-02  3.56e-01  3.17e+01  1.49e-01  0.700  21.1
    8    -133.6847009072922674    -6.44e-02  2.49e-01  2.22e+01  1.38e-01  0.700  20.8
    9    -133.7590181155679829    -7.43e-02  1.74e-01  1.55e+01  8.32e-02  0.700  20.8
   10    -133.8077578312056630    -4.87e-02  4.06e-01  3.62e+01  4.78e-02  0.000  20.7
   11    -133.8990605477306417    -9.13e-02  4.15e-03  1.28e-01  1.97e-02  0.000  21.0
   12    -133.9009270063785380    -1.87e-03  1.37e-03  2.62e-02  8.56e-03  0.000  20.4
   13    -133.9012640695992218    -3.37e-04  7.70e-04  1.52e-02  3.35e-03  0.000  19.6
                              *** Initializing SOSCF ***
---------------------------------------S-O-S-C-F--------------------------------------
Iteration    Energy (Eh)           Delta-E    RMSDP     MaxDP     MaxGrad    Time(sec)
--------------------------------------------------------------------------------------
   14    -133.9013762468003392    -1.12e-04  6.45e-04  1.24e-02  2.16e-03    19.3
               *** Restarting incremental Fock matrix formation ***
   15    -133.9014297289638193    -5.35e-05  1.68e-03  3.88e-02  1.32e-03    21.7
   16    -133.9014840362116274    -5.43e-05  2.47e-03  6.97e-02  6.63e-04    20.1
   17    -133.9014717508929380     1.23e-05  7.38e-04  1.66e-02  6.98e-04    20.0
   18    -133.9014973319899582    -2.56e-05  1.42e-04  2.83e-03  2.14e-04    19.6
   19    -133.9014965058133271     8.26e-07  9.25e-05  2.96e-03  3.41e-04    18.3
   20    -133.9014978996875698    -1.39e-06  5.90e-05  2.11e-03  2.85e-05    17.6
   21    -133.9014978811239871     1.86e-08  1.35e-05  5.57e-04  4.30e-05    17.3
   22    -133.9014979371183358    -5.60e-08  2.30e-05  6.79e-04  9.92e-06    16.4
   23    -133.9014979380938257    -9.75e-10  1.62e-05  7.43e-04  7.28e-06    16.7
                 **** Energy Check signals convergence ****

               *****************************************************
               *                     SUCCESS                       *
               *           SCF CONVERGED AFTER  23 CYCLES          *
               *****************************************************

             **** ENERGY FILE WAS UPDATED (/cluster/projects/nn14654k/ylvaos/basis_set_n_funcs/functionals/gga_c_pbe/C4H6/inp/C4H6_gga_c_pbe_augccpvqz.en.tmp) ****

----------------
TOTAL SCF ENERGY
----------------

Total Energy       :       -133.90149794217848 Eh           -3643.64500 eV

Components:
Nuclear Repulsion  :        109.24934557835338 Eh            2972.82583 eV
Electronic Energy  :       -243.15084352053185 Eh           -6616.47083 eV
One Electron Energy:       -414.50120583798349 Eh          -11279.15123 eV
Two Electron Energy:        171.35036231745164 Eh            4662.68040 eV

Virial components:
Potential Energy   :       -271.62577652395316 Eh           -7391.31315 eV
Kinetic Energy     :        137.72427858177471 Eh            3747.66815 eV
Virial Ratio       :          1.97224323351727

DFT components:
N(Alpha)           :       14.999088997289 electrons
N(Beta)            :       14.999088997289 electrons
N(Total)           :       29.998177994577 electrons
E(X)               :        0.000000000000 Eh       
E(C)               :       -0.944497365819 Eh       
E(XC)              :       -0.944497365819 Eh       

---------------
SCF CONVERGENCE
---------------

  Last Energy change         ...    9.7549e-10  Tolerance :   1.0000e-08
  Last MAX-Density change    ...    7.4345e-04  Tolerance :   1.0000e-07
  Last RMS-Density change    ...    1.6221e-05  Tolerance :   5.0000e-09
  Last DIIS Error            ...    2.1610e-03  Tolerance :   5.0000e-07
  Last Orbital Gradient      ...    7.2842e-06  Tolerance :   1.0000e-05
  Last Orbital Rotation      ...    2.7635e-05  Tolerance :   1.0000e-05


----------------
ORBITAL ENERGIES
----------------

  NO   OCC          E(Eh)            E(eV) 
   0   2.0000      -8.368795      -227.7265 
   1   2.0000      -8.366021      -227.6510 
   2   2.0000      -8.365975      -227.6498 
   3   2.0000      -8.346619      -227.1231 
   4   2.0000      -0.540269       -14.7015 
   5   2.0000      -0.375632       -10.2215 
   6   2.0000      -0.289853        -7.8873 
   7   2.0000      -0.225226        -6.1287 
   8   2.0000      -0.212356        -5.7785 
   9   2.0000      -0.168400        -4.5824 
  10   2.0000      -0.140055        -3.8111 
  11   2.0000      -0.078486        -2.1357 
  12   2.0000      -0.060354        -1.6423 
  13   2.0000      -0.029346        -0.7986 
  14   2.0000      -0.021333        -0.5805 
  15   0.0000       0.026309         0.7159 
  16   0.0000       0.034384         0.9356 
  17   0.0000       0.034936         0.9507 
  18   0.0000       0.035118         0.9556 
  19   0.0000       0.050742         1.3808 
  20   0.0000       0.053937         1.4677 
  21   0.0000       0.066697         1.8149 
  22   0.0000       0.080343         2.1862 
  23   0.0000       0.082171         2.2360 
  24   0.0000       0.097784         2.6608 
  25   0.0000       0.103077         2.8049 
*Only the first 10 virtual orbitals were printed.

                    ********************************
                    * MULLIKEN POPULATION ANALYSIS *
                    ********************************

-----------------------
MULLIKEN ATOMIC CHARGES
-----------------------
   0 C :   -1.402149
   1 C :    0.515563
   2 C :   -0.861128
   3 C :   -0.860769
   4 H :    0.450368
   5 H :    0.449705
   6 H :    0.426936
   7 H :    0.427291
   8 H :    0.426996
   9 H :    0.427187
Sum of atomic charges:    0.0000000

--------------------------------
MULLIKEN REDUCED ORBITAL CHARGES
--------------------------------
  0 C s       :     3.709275  s :     3.709275
      pz      :     1.156099  p :     3.541146
      px      :     1.171638
      py      :     1.213409
      dz2     :     0.002494  d :     0.143925
      dxz     :     0.018962
      dyz     :     0.102022
      dx2y2   :     0.018042
      dxy     :     0.002406
      f0      :    -0.002758  f :     0.012751
      f+1     :     0.003112
      f-1     :     0.009102
      f+2     :     0.002779
      f-2     :    -0.000515
      f+3     :     0.000060
      f-3     :     0.000970
      g0      :    -0.006156  g :    -0.004948
      g+1     :     0.000228
      g-1     :     0.001364
      g+2     :    -0.000029
      g-2     :     0.000037
      g+3     :     0.000008
      g-3     :    -0.000434
      g+4     :     0.000035
      g-4     :    -0.000000

  1 C s       :     3.403554  s :     3.403554
      pz      :     0.402488  p :     2.047092
      px      :     0.947621
      py      :     0.696982
      dz2     :     0.033647  d :     0.026040
      dxz     :    -0.084305
      dyz     :     0.045674
      dx2y2   :     0.006580
      dxy     :     0.024445
      f0      :     0.003497  f :     0.035239
      f+1     :     0.001555
      f-1     :     0.013094
      f+2     :     0.006953
      f-2     :     0.009099
      f+3     :     0.000601
      f-3     :     0.000440
      g0      :    -0.007419  g :    -0.027489
      g+1     :    -0.001165
      g-1     :    -0.016350
      g+2     :    -0.005103
      g-2     :     0.001342
      g+3     :     0.000507
      g-3     :     0.000527
      g+4     :     0.000118
      g-4     :     0.000054

  2 C s       :     3.574533  s :     3.574533
      pz      :     1.037503  p :     3.113987
      px      :     1.281863
      py      :     0.794621
      dz2     :     0.021995  d :     0.135321
      dxz     :     0.006936
      dyz     :     0.024177
      dx2y2   :     0.004010
      dxy     :     0.078203
      f0      :     0.005389  f :     0.036626
      f+1     :     0.003759
      f-1     :     0.000161
      f+2     :     0.007072
      f-2     :     0.002896
      f+3     :     0.007154
      f-3     :     0.010195
      g0      :     0.000827  g :     0.000661
      g+1     :     0.000103
      g-1     :    -0.000639
      g+2     :    -0.001799
      g-2     :     0.000083
      g+3     :    -0.000024
      g-3     :     0.000602
      g+4     :     0.000150
      g-4     :     0.001356

  3 C s       :     3.574077  s :     3.574077
      pz      :     1.037591  p :     3.114061
      px      :     1.281849
      py      :     0.794621
      dz2     :     0.021985  d :     0.135343
      dxz     :     0.006966
      dyz     :     0.024188
      dx2y2   :     0.003991
      dxy     :     0.078213
      f0      :     0.005390  f :     0.036628
      f+1     :     0.003759
      f-1     :     0.000162
      f+2     :     0.007071
      f-2     :     0.002895
      f+3     :     0.007154
      f-3     :     0.010196
      g0      :     0.000827  g :     0.000660
      g+1     :     0.000103
      g-1     :    -0.000639
      g+2     :    -0.001799
      g-2     :     0.000083
      g+3     :    -0.000024
      g-3     :     0.000602
      g+4     :     0.000150
      g-4     :     0.001356

  4 H s       :     0.486839  s :     0.486839
      pz      :     0.003927  p :     0.060617
      px      :     0.021360
      py      :     0.035330
      dz2     :     0.001821  d :     0.004122
      dxz     :     0.000758
      dyz     :    -0.000502
      dx2y2   :     0.001833
      dxy     :     0.000213
      f0      :    -0.000230  f :    -0.001946
      f+1     :     0.000016
      f-1     :    -0.000007
      f+2     :    -0.000983
      f-2     :     0.000051
      f+3     :    -0.000069
      f-3     :    -0.000725

  5 H s       :     0.487460  s :     0.487460
      pz      :     0.003911  p :     0.060659
      px      :     0.021361
      py      :     0.035387
      dz2     :     0.001821  d :     0.004122
      dxz     :     0.000758
      dyz     :    -0.000502
      dx2y2   :     0.001832
      dxy     :     0.000213
      f0      :    -0.000230  f :    -0.001946
      f+1     :     0.000016
      f-1     :    -0.000007
      f+2     :    -0.000983
      f-2     :     0.000051
      f+3     :    -0.000069
      f-3     :    -0.000725

  6 H s       :     0.497781  s :     0.497781
      pz      :     0.017873  p :     0.071224
      px      :     0.036038
      py      :     0.017314
      dz2     :    -0.000181  d :     0.005307
      dxz     :     0.002050
      dyz     :     0.000302
      dx2y2   :     0.002235
      dxy     :     0.000902
      f0      :    -0.000077  f :    -0.001248
      f+1     :    -0.000242
      f-1     :    -0.000073
      f+2     :     0.000083
      f-2     :    -0.000185
      f+3     :     0.000108
      f-3     :    -0.000863

  7 H s       :     0.497433  s :     0.497433
      pz      :     0.017893  p :     0.071212
      px      :     0.036009
      py      :     0.017310
      dz2     :    -0.000182  d :     0.005313
      dxz     :     0.002053
      dyz     :     0.000305
      dx2y2   :     0.002235
      dxy     :     0.000902
      f0      :    -0.000077  f :    -0.001248
      f+1     :    -0.000242
      f-1     :    -0.000073
      f+2     :     0.000083
      f-2     :    -0.000184
      f+3     :     0.000108
      f-3     :    -0.000863

  8 H s       :     0.497702  s :     0.497702
      pz      :     0.017887  p :     0.071245
      px      :     0.036040
      py      :     0.017318
      dz2     :    -0.000180  d :     0.005305
      dxz     :     0.002048
      dyz     :     0.000301
      dx2y2   :     0.002235
      dxy     :     0.000901
      f0      :    -0.000077  f :    -0.001249
      f+1     :    -0.000242
      f-1     :    -0.000073
      f+2     :     0.000083
      f-2     :    -0.000185
      f+3     :     0.000108
      f-3     :    -0.000863

  9 H s       :     0.497527  s :     0.497527
      pz      :     0.017905  p :     0.071225
      px      :     0.036017
      py      :     0.017303
      dz2     :    -0.000181  d :     0.005310
      dxz     :     0.002050
      dyz     :     0.000305
      dx2y2   :     0.002234
      dxy     :     0.000902
      f0      :    -0.000077  f :    -0.001248
      f+1     :    -0.000242
      f-1     :    -0.000073
      f+2     :     0.000083
      f-2     :    -0.000184
      f+3     :     0.000108
      f-3     :    -0.000863



                     *******************************
                     * LOEWDIN POPULATION ANALYSIS *
                     *******************************

----------------------
LOEWDIN ATOMIC CHARGES
----------------------
   0 C :    0.840097
   1 C :   -0.066471
   2 C :    0.597970
   3 C :    0.597970
   4 H :   -0.392424
   5 H :   -0.392425
   6 H :   -0.296179
   7 H :   -0.296179
   8 H :   -0.296180
   9 H :   -0.296179

-------------------------------
LOEWDIN REDUCED ORBITAL CHARGES
-------------------------------
  0 C s       :     2.448549  s :     2.448549
      pz      :     0.799357  p :     2.098965
      px      :     0.552179
      py      :     0.747429
      dz2     :     0.096174  d :     0.395031
      dxz     :     0.057708
      dyz     :     0.214243
      dx2y2   :     0.019843
      dxy     :     0.007063
      f0      :     0.045429  f :     0.161346
      f+1     :     0.032757
      f-1     :     0.064005
      f+2     :     0.009040
      f-2     :     0.004443
      f+3     :     0.000249
      f-3     :     0.005422
      g0      :     0.021309  g :     0.056012
      g+1     :     0.009732
      g-1     :     0.021325
      g+2     :     0.000977
      g-2     :     0.000276
      g+3     :     0.000166
      g-3     :     0.001890
      g+4     :     0.000328
      g-4     :     0.000009

  1 C s       :     2.388736  s :     2.388736
      pz      :     0.876019  p :     2.035736
      px      :     0.509455
      py      :     0.650261
      dz2     :     0.280514  d :     1.056260
      dxz     :     0.279651
      dyz     :     0.345744
      dx2y2   :     0.043237
      dxy     :     0.107115
      f0      :     0.120158  f :     0.452951
      f+1     :     0.042079
      f-1     :     0.139300
      f+2     :     0.038106
      f-2     :     0.101556
      f+3     :     0.010776
      f-3     :     0.000976
      g0      :     0.039571  g :     0.132788
      g+1     :     0.012740
      g-1     :     0.031980
      g+2     :     0.014816
      g-2     :     0.022195
      g+3     :     0.007861
      g-3     :     0.002262
      g+4     :     0.000266
      g-4     :     0.001097

  2 C s       :     2.367717  s :     2.367717
      pz      :     0.621202  p :     1.939878
      px      :     0.674564
      py      :     0.644112
      dz2     :     0.134057  d :     0.688875
      dxz     :     0.105217
      dyz     :     0.156681
      dx2y2   :     0.089766
      dxy     :     0.203154
      f0      :     0.072693  f :     0.319171
      f+1     :     0.033084
      f-1     :     0.048873
      f+2     :     0.058342
      f-2     :     0.021594
      f+3     :     0.058197
      f-3     :     0.026386
      g0      :     0.009238  g :     0.086390
      g+1     :     0.003628
      g-1     :     0.023926
      g+2     :     0.009615
      g-2     :     0.007900
      g+3     :     0.002754
      g-3     :     0.010945
      g+4     :     0.005638
      g-4     :     0.012747

  3 C s       :     2.367717  s :     2.367717
      pz      :     0.621202  p :     1.939878
      px      :     0.674564
      py      :     0.644112
      dz2     :     0.134057  d :     0.688874
      dxz     :     0.105217
      dyz     :     0.156681
      dx2y2   :     0.089765
      dxy     :     0.203155
      f0      :     0.072693  f :     0.319171
      f+1     :     0.033084
      f-1     :     0.048873
      f+2     :     0.058342
      f-2     :     0.021594
      f+3     :     0.058197
      f-3     :     0.026386
      g0      :     0.009238  g :     0.086390
      g+1     :     0.003628
      g-1     :     0.023926
      g+2     :     0.009615
      g-2     :     0.007900
      g+3     :     0.002754
      g-3     :     0.010945
      g+4     :     0.005638
      g-4     :     0.012747

  4 H s       :     0.650771  s :     0.650771
      pz      :     0.116257  p :     0.401199
      px      :     0.122900
      py      :     0.162043
      dz2     :     0.066767  d :     0.241081
      dxz     :     0.027508
      dyz     :     0.060048
      dx2y2   :     0.051467
      dxy     :     0.035291
      f0      :     0.008579  f :     0.099373
      f+1     :     0.002327
      f-1     :     0.040328
      f+2     :     0.014874
      f-2     :     0.012274
      f+3     :     0.007685
      f-3     :     0.013306

  5 H s       :     0.650772  s :     0.650772
      pz      :     0.116257  p :     0.401200
      px      :     0.122900
      py      :     0.162043
      dz2     :     0.066767  d :     0.241081
      dxz     :     0.027508
      dyz     :     0.060048
      dx2y2   :     0.051467
      dxy     :     0.035291
      f0      :     0.008579  f :     0.099373
      f+1     :     0.002327
      f-1     :     0.040328
      f+2     :     0.014874
      f-2     :     0.012274
      f+3     :     0.007685
      f-3     :     0.013306

  6 H s       :     0.596076  s :     0.596076
      pz      :     0.112493  p :     0.355615
      px      :     0.135647
      py      :     0.107476
      dz2     :     0.036330  d :     0.239892
      dxz     :     0.047344
      dyz     :     0.030731
      dx2y2   :     0.078457
      dxy     :     0.047030
      f0      :     0.007903  f :     0.104596
      f+1     :     0.016777
      f-1     :     0.009072
      f+2     :     0.007229
      f-2     :     0.017046
      f+3     :     0.033073
      f-3     :     0.013497

  7 H s       :     0.596076  s :     0.596076
      pz      :     0.112492  p :     0.355615
      px      :     0.135647
      py      :     0.107476
      dz2     :     0.036330  d :     0.239892
      dxz     :     0.047344
      dyz     :     0.030731
      dx2y2   :     0.078457
      dxy     :     0.047030
      f0      :     0.007903  f :     0.104596
      f+1     :     0.016777
      f-1     :     0.009072
      f+2     :     0.007229
      f-2     :     0.017046
      f+3     :     0.033073
      f-3     :     0.013497

  8 H s       :     0.596076  s :     0.596076
      pz      :     0.112493  p :     0.355615
      px      :     0.135647
      py      :     0.107476
      dz2     :     0.036330  d :     0.239892
      dxz     :     0.047344
      dyz     :     0.030731
      dx2y2   :     0.078457
      dxy     :     0.047030
      f0      :     0.007903  f :     0.104596
      f+1     :     0.016777
      f-1     :     0.009072
      f+2     :     0.007229
      f-2     :     0.017046
      f+3     :     0.033073
      f-3     :     0.013497

  9 H s       :     0.596075  s :     0.596075
      pz      :     0.112493  p :     0.355615
      px      :     0.135647
      py      :     0.107476
      dz2     :     0.036330  d :     0.239892
      dxz     :     0.047344
      dyz     :     0.030731
      dx2y2   :     0.078457
      dxy     :     0.047030
      f0      :     0.007902  f :     0.104596
      f+1     :     0.016777
      f-1     :     0.009072
      f+2     :     0.007229
      f-2     :     0.017046
      f+3     :     0.033073
      f-3     :     0.013497



                      *****************************
                      * MAYER POPULATION ANALYSIS *
                      *****************************

  NA   - Mulliken gross atomic population
  ZA   - Total nuclear charge
  QA   - Mulliken gross atomic charge
  VA   - Mayer's total valence
  BVA  - Mayer's bonded valence
  FA   - Mayer's free valence

  ATOM       NA         ZA         QA         VA         BVA        FA
  0 C      7.4021     6.0000    -1.4021     3.2168     3.2168     0.0000
  1 C      5.4844     6.0000     0.5156     2.9235     2.9235     0.0000
  2 C      6.8611     6.0000    -0.8611     3.1524     3.1524     0.0000
  3 C      6.8608     6.0000    -0.8608     3.1526     3.1526    -0.0000
  4 H      0.5496     1.0000     0.4504     0.7875     0.7875     0.0000
  5 H      0.5503     1.0000     0.4497     0.7884     0.7884     0.0000
  6 H      0.5731     1.0000     0.4269     0.8684     0.8684     0.0000
  7 H      0.5727     1.0000     0.4273     0.8678     0.8678    -0.0000
  8 H      0.5730     1.0000     0.4270     0.8684     0.8684     0.0000
  9 H      0.5728     1.0000     0.4272     0.8680     0.8680    -0.0000

  Mayer bond orders larger than 0.100000
B(  0-C ,  1-C ) :   1.7305 B(  0-C ,  4-H ) :   0.6905 B(  0-C ,  5-H ) :   0.6916 
B(  1-C ,  2-C ) :   0.7009 B(  1-C ,  3-C ) :   0.7011 B(  2-C ,  3-C ) :   0.8143 
B(  2-C ,  6-H ) :   0.8041 B(  2-C ,  7-H ) :   0.8035 B(  3-C ,  8-H ) :   0.8040 
B(  3-C ,  9-H ) :   0.8036 

-------
TIMINGS
-------

Total SCF time: 0 days 0 hours 7 min 56 sec 

Total time                  ....     476.418 sec
Sum of individual times     ....     460.298 sec  ( 96.6%)

SCF preparation             ....       0.131 sec  (  0.0%)
Fock matrix formation       ....     457.909 sec  ( 96.1%)
  Startup                   ....       0.027 sec  (  0.0% of F)
  Coulomb formation         ....     466.644 sec  (101.9% of F)
  XC integration            ....       6.903 sec  (  1.5% of F)
    XC Preparation          ....       0.000 sec  (  0.0% of XC)
    Basis function eval.    ....       0.661 sec  (  9.6% of XC)
    Density eval.           ....       1.552 sec  ( 22.5% of XC)
    XC-Functional eval.     ....       0.049 sec  (  0.7% of XC)
    XC-Potential eval.      ....       3.933 sec  ( 57.0% of XC)
Diagonalization             ....       0.000 sec  (  0.0%)
Density matrix formation    ....       0.264 sec  (  0.1%)
Total Energy calculation    ....       0.108 sec  (  0.0%)
Population analysis         ....       0.051 sec  (  0.0%)
Orbital Transformation      ....       0.181 sec  (  0.0%)
Orbital Orthonormalization  ....       0.000 sec  (  0.0%)
DIIS solution               ....       1.190 sec  (  0.2%)
SOSCF solution              ....       0.463 sec  (  0.1%)
Finished LeanSCF after 476.5 sec

Maximum memory used throughout the entire LEANSCF-calculation: 52.3 MB


           ************************************************************
           *        Program running with 8 parallel MPI-processes     *
           *              working on a common directory               *
           ************************************************************

------------------------------------------------------------------------------
                         ORCA PROPERTY INTEGRAL CALCULATIONS
------------------------------------------------------------------------------

GBWName                                   ... /cluster/projects/nn14654k/ylvaos/basis_set_n_funcs/functionals/gga_c_pbe/C4H6/inp/C4H6_gga_c_pbe_augccpvqz.gbw
Number of atoms                           ...     10
Number of basis functions                 ...    624
Max core memory                           ...   4096 MB

Dipole integrals                          ... YES
Quadrupole integrals                      ... YES
Linear momentum integrals                 ...  NO
Angular momentum integrals                ...  NO
Higher moments length integrals           ...  NO
Higher moments velocity integrals         ...  NO
Kinetic energy integrals                  ...  NO
GIAO right hand sides                     ...  NO
GIAO dipole derivative integrals          ...  NO
SOC integrals                             ...  NO
EPR diamagnetic integrals (GIAO)          ...  NO
EPR gauge integrals                       ...  NO
Field gradient integrals                  ...  NO (   0 nuclei)
Spin-dipole/Fermi contact integrals       ...  NO (   0 nuclei)
Contact density integrals                 ...  NO (   0 nuclei)
Nucleus-orbit integrals                   ...  NO (   0 nuclei)
Geometric perturbations                   ...  NO (  10 nuclei)

Choice of electric origin   ... Center of mass
Position of electric origin ... (  0.0000,  0.0000,  0.0124) 
Choice of magnetic origin   ... GIAO
Position of magnetic origin ... (  0.0000,  0.0000,  0.0000) 

Calculating integrals                     ... Electric Dipole (Length)     done (  0.0 sec)
Calculating integrals                     ... Electric Quadrupole (Length) done (  0.0 sec)

Property integrals calculated in   0.1 sec

Maximum memory used throughout the entire PROPINT-calculation: 48.3 MB
------------------------------------------------------------------------------
                           ORCA ORBITAL LOCALIZATION
------------------------------------------------------------------------------

Input orbitals are from                  ... /cluster/projects/nn14654k/ylvaos/basis_set_n_funcs/functionals/gga_c_pbe/C4H6/inp/C4H6_gga_c_pbe_augccpvqz.gbw
Output orbitals are to                   ... /cluster/projects/nn14654k/ylvaos/basis_set_n_funcs/functionals/gga_c_pbe/C4H6/inp/C4H6_gga_c_pbe_augccpvqz.loc
Max. number of iterations                ... 128
Localizations seeded randomly            ... on
Convergence tolerance                    ... 1.000e-06
Threshold for strong local MOs           ... 9.500e-01
Threshold for bond MOs                   ... 8.500e-01
Operator                                 ... 0
Orbital range for localization           ... 4 to 14
Localization criterion                   ... NEW-BOYS
Doing the dipole integrals               ... o.k.
Initial value of the localization sum :    46.652434
ITERATION   0 : L=   83.4258280013 DL=  3.68e+01 (AVERGE_DL)=    0.8176840267 
ITERATION   1 : L=   88.6629658285 DL=  5.24e+00 (AVERGE_DL)=    0.3085784953 
ITERATION   2 : L=   88.7778926668 DL=  1.15e-01 (AVERGE_DL)=    0.0457119118 
ITERATION   3 : L=   88.7785265363 DL=  6.34e-04 (AVERGE_DL)=    0.0033948343 
ITERATION   4 : L=   88.7785392232 DL=  1.27e-05 (AVERGE_DL)=    0.0004802811 
ITERATION   5 : L=   88.7785393970 DL=  1.74e-07 (AVERGE_DL)=    0.0000562284 
LOCALIZATION SUM CONVERGED


--------------------------------------------------------------------------------
                    LOCALIZED MOLECULAR ORBITAL COMPOSITIONS
--------------------------------------------------------------------------------

The Mulliken populations for each LMO on each atom are computed
The LMO`s will be ordered according to atom index and type
  (A) Strongly localized MO`s have populations of >=0.950 on one atom
  (B) Two center bond orbitals have populations of >=0.850 on two atoms
  (C) Other MO`s are considered to be `delocalized`

FOUND  -   0 strongly local MO`s
       -  11 two center bond MO`s
       -   0 significantly delocalized MO`s

Bond-like localized orbitals:
MO  14:   9H  -   0.254900  and   3C  -   0.790407
MO  13:   8H  -   0.254876  and   3C  -   0.790397
MO  12:   7H  -   0.254866  and   2C  -   0.790506
MO  11:   6H  -   0.254936  and   2C  -   0.790429
MO  10:   5H  -   0.277168  and   0C  -   0.750728
MO   9:   4H  -   0.276919  and   0C  -   0.750544
MO   8:   3C  -   0.497102  and   2C  -   0.497079
MO   7:   3C  -   0.507695  and   1C  -   0.518506
MO   6:   2C  -   0.507698  and   1C  -   0.518427
MO   5:   1C  -   0.512626  and   0C  -   0.584003
MO   4:   1C  -   0.512722  and   0C  -   0.583907
Localized MO's were stored in: /cluster/projects/nn14654k/ylvaos/basis_set_n_funcs/functionals/gga_c_pbe/C4H6/inp/C4H6_gga_c_pbe_augccpvqz.loc

-------------------------   --------------------
FINAL SINGLE POINT ENERGY      -133.901497942178
-------------------------   --------------------



           ************************************************************
           *        Program running with 8 parallel MPI-processes     *
           *              working on a common directory               *
           ************************************************************

------------------------------------------------------------------------------
                              ORCA PROPERTY CALCULATIONS
------------------------------------------------------------------------------

GBWName                                 ... /cluster/projects/nn14654k/ylvaos/basis_set_n_funcs/functionals/gga_c_pbe/C4H6/inp/C4H6_gga_c_pbe_augccpvqz.gbw
Number of atoms                         ...     10
Number of basis functions               ...    624
Max core memory                         ...   4096 MB

Electric properties:
Dipole moment                           ... YES
Quadrupole moment                       ... YES
Static polarizability (Dipole/Dipole)   ...  NO
Static polarizability (Dipole/Quad.)    ...  NO
Static polarizability (Quad./Quad.)     ...  NO
Static polarizability (Velocity)        ...  NO
Static hyperpolarizability              ...  NO

Atomic electric properties:
Dipole moment                           ...  NO
Quadrupole moment                       ...  NO
Static polarizability                   ...  NO

Choice of electric origin               ... Center of mass
Position of electric origin             ...     0.000000     0.000000     0.012360

General magnetic properties:
Magnetizability                         ...  NO

EPR properties:
g-Tensor (aka g-matrix)                 ...  NO
Zero-Field splitting spin-orbit         ...  NO
Zero-field splitting spin-spin          ...  NO
Hyperfine couplings                     ...  NO (   0 nuclei)
Quadrupole couplings                    ...  NO (   0 nuclei)
Contact density                         ...  NO (   0 nuclei)

NMR properties:
Chemical shifts                         ...  NO (   0 nuclei)
Spin-rotation constants                 ...  NO (   0 nuclei)
Spin-spin couplings                     ...  NO (   0 nuclei,    0 pairs)

Choice of magnetic origin               ... GIAO
Position of magnetic origin             ...     0.000000     0.000000     0.000000

Properties with geometric perturbations:
SCF Hessian                             ...  NO
IR spectrum                             ...  NO
VCD spectrum                            ...  NO
X-ray spectroscopy properties:
SCF XES/XAS/RIXS spectra                ...  NO

SCF SOC stabilization energy            ...  NO
Diagonal Born-Oppenheimer correction    ...  NO

-------------
DIPOLE MOMENT
-------------

Method             : SCF
Type of density    : Electron Density
Multiplicity       :   1
Irrep              :   0
Energy             :  -133.9014979421784801 Eh
Basis              : AO
                                X                 Y                 Z
Electronic contribution:     -0.000000297       0.000000795      -0.001690710
Nuclear contribution   :      0.000000000       0.000000000      -0.371559272
                        -----------------------------------------
Total Dipole Moment    :     -0.000000297       0.000000795      -0.373249981
                        -----------------------------------------
Magnitude (a.u.)       :      0.373249981
Magnitude (Debye)      :      0.948726056



--------------------
Rotational spectrum 
--------------------
 
Rotational constants in cm-1:             0.643527             0.230144             0.181788 
Rotational constants in MHz :         19292.450199          6899.535423          5449.866904 

Dipole components along the rotational axes: 
x,y,z [a.u.] :    -0.373250     0.000001    -0.000000 
x,y,z [Debye]:    -0.948726     0.000002    -0.000001 

 

Dipole moment calculation done in   0.0 sec 

-----------------
QUADRUPOLE MOMENT
-----------------

Method             : SCF
Type of density    : Electron Density
Multiplicity       :   1
Irrep              :   0
Energy             :  -133.9014979421784801 Eh
Basis              : AO

                XX              YY              ZZ              XY              XZ              YZ
  NUC       11.888664720    55.799971245   152.416444257     0.000000000     0.000000000     0.000000000
  EL       -42.324127797   -86.955242834  -184.447983963     0.000000055    -0.000002386     0.000017496
  TOT      -30.435463077   -31.155271590   -32.031539705     0.000000055    -0.000002386     0.000017496 (a.u.)
           -40.936738731   -41.904905798   -43.083516382     0.000000074    -0.000003210     0.000023533 (Buckingham)

diagonalized tensor:
           -32.031539706   -31.155271589   -30.435463077 (a.u.)
           -43.083516383   -41.904905798   -40.936738731 (Buckingham)
            -3.325388237     0.210443518     3.114944718 (traceless form in Buckingham)

             0.000001495    -0.000000076     1.000000000
            -0.000019966     1.000000000     0.000000076
             1.000000000     0.000019966    -0.000001495
        
Isotropic quadrupole :   -31.207424791

Quadrupole moment calculation done in   0.0 sec (  0.0 sec for integrals)

Maximum memory used throughout the entire PROP-calculation: 46.2 MB

--------------------------------
SUGGESTED CITATIONS FOR THIS RUN
--------------------------------

Below you find a list of papers that are relevant to this ORCA run
We neither can nor want to force you to cite these papers, but we appreciate if you do
You receive ORCA, which is the product of decades of hard work by many enthusiastic individuals, for free
The only thing we kindly ask in return is that you cite our papers,
We deeply appreciate it, if you show your appreciation for ORCA by not just citing the generic ORCA reference.

Please note that relegating all ORCA citations to the supporting information does *not* help us.
SI sections are not indexed - citations you put there will not count into any citation statistics
But we need these citations in order to attract the funding resources that allow us to do what we are doing

Therefore, if you are a happy ORCA user, please consider citing a few of the papers listed below in the main body of your paper

In addition to the list printed below, the program has created the file /cluster/projects/nn14654k/ylvaos/basis_set_n_funcs/functionals/gga_c_pbe/C4H6/inp/C4H6_gga_c_pbe_augccpvqz.bibtex that contains the list in bibtex format
You can import this file easily into all common literature databanks and citation aid programs

It goes without saying that in many instances, there are alternative algorithms to achieve similar
results as the ones you have gotten from ORCA. It is, of course, also the case that in some instances
ORCA just re-implements algorithms worked out by others. We are fully aware of that and we are also
fully appreciative of our colleagues work. Hence this citation list should not be read as indicating
that the listed papers, which are focused on our own work, are the only ones worth citing. It simply
meant to make it easier for users to cite ORCA specific papers. It is not a substitute for doing your
own literature research and citing the relevant literature in a scientifically appropriate manner.

List of essential papers. We consider these as the minimum necessary citations

  1. Neese, F.
     Software update: the ORCA program system, version 6.0
     WIRES Comput. Molec. Sci. 2025 15(1), e70019
     doi.org/10.1002/wcms.70019

List of papers to cite with high priority. The work reported in these papers was absolutely
necessary for this run to complete.
Our perspective: the developers of density functionals and basis sets usually get cited in chemistry papers
Good! But without the algorithms to do something with them, the functionals or basis sets would not do anything.
Hence, in our opinion, the algorithm design and method developments papers are equally worthy of getting cited

  1. Lehtola, S.; Steigemann, C.; Oliveira, M.; Marques, M.
     Recent developments in Libxc - A comprehensive library of functionals for density functional theory
     Software X 2018 7 , 
     doi.org/10.1016/j.softx.2017.11.002
  2. Neese, F.
     The SHARK Integral Generation and Digestion System
     J. Comp. Chem. 2022 44(3), 381
     doi.org/10.1002/jcc.26942

List of suggested additional citations. These are papers that are important in the 'surrounding' of 
of this run, or papers that preceded the highly important papers. If you like your results we are grateful for a citation.

  1. Neese, F.
     The ORCA program system
     WIRES Comput. Molec. Sci. 2012 2(1), 73-78
     doi.org/10.1002/wcms.81
  2. Neese, F.
     Software update: the ORCA program system, version 4.0
     WIRES Comput. Molec. Sci. 2018 8(1), 1-6
     doi.org/10.1002/wcms.1327
  3. Neese, F.; Wennmohs, F.; Becker, U.; Riplinger, C.
     The ORCA quantum chemistry program package
     J. Chem. Phys. 2020 152(22), 224108
     doi.org/10.1063/5.0004608
  4. Neese, F.
     Software update: The ORCA program system—Version 5.0
     WIRES Comput. Molec. Sci. 2022 12(1), e1606
     doi.org/10.1002/wcms.1606

List of optional additional citations

  1. Neese, F.
     Approximate second-order SCF convergence for spin unrestricted wavefunctions
     Chem. Phys. Lett. 2000 325(1-3), 93-98
     doi.org/10.1016/s0009-2614(00)00662-x

Timings for individual modules:

Sum of individual times          ...      479.137 sec (=   7.986 min)
Startup calculation              ...        1.217 sec (=   0.020 min)   0.3 %
SCF iterations                   ...      477.263 sec (=   7.954 min)  99.6 %
Property integrals               ...        0.334 sec (=   0.006 min)   0.1 %
Property calculations            ...        0.298 sec (=   0.005 min)   0.1 %
Orbital localization             ...        0.026 sec (=   0.000 min)   0.0 %
                             ****ORCA TERMINATED NORMALLY****
TOTAL RUN TIME: 0 days 0 hours 7 minutes 59 seconds 732 msec
