
                                 *****************
                                 * O   R   C   A *
                                 *****************

                                            #,                                       
                                            ###                                      
                                            ####                                     
                                            #####                                    
                                            ######                                   
                                           ########,                                 
                                     ,,################,,,,,                         
                               ,,#################################,,                 
                          ,,##########################################,,             
                       ,#########################################, ''#####,          
                    ,#############################################,,   '####,        
                  ,##################################################,,,,####,       
                ,###########''''           ''''###############################       
              ,#####''   ,,,,##########,,,,          '''####'''          '####       
            ,##' ,,,,###########################,,,                        '##       
           ' ,,###''''                  '''############,,,                           
         ,,##''                                '''############,,,,        ,,,,,,###''
      ,#''                                            '''#######################'''  
     '                                                          ''''####''''         
             ,#######,   #######,   ,#######,      ##                                
            ,#'     '#,  ##    ##  ,#'     '#,    #''#        ,####,    ,#,          
            ##       ##  ##   ,#'  ##            #'  '#       #'       ,# #          
            ##       ##  #######   ##           ,######,      #####,      #          
            '#,     ,#'  ##    ##  '#,     ,#' ,#      #,     #,   #      #          
             '#######'   ##     ##  '#######'  #'      '#     '####' #    #          



                #########################################################
                #                        -***-                          #
                #          Department of theory and spectroscopy        #
                #                                                       #
                #                      Frank Neese                      #
                #                                                       #
                #     Directorship, Architecture, Infrastructure        #
                #                    SHARK, DRIVERS                     #
                #        Core code/Algorithms in most modules           #
                #                                                       #
                #        Max Planck Institute fuer Kohlenforschung      #
                #                Kaiser Wilhelm Platz 1                 #
                #                 D-45470 Muelheim/Ruhr                 #
                #                      Germany                          #
                #                                                       #
                #                  All rights reserved                  #
                #                        -***-                          #
                #########################################################


                         Program Version 6.1.1  -  RELEASE   -
                                (GIT: $487d211c$)
                          ($2025-11-21 10:33:24 +0100$)


 With contributions from (in alphabetic order):
[Max-Planck-Institut fuer Kohlenforschung]                               
  Daniel Aravena         : Magnetic Suceptibility                        
  Michael Atanasov       : Ab Initio Ligand Field Theory (pilot matlab implementation)
  Alexander A. Auer      : GIAO ZORA, VPT2 properties, NMR spectrum      
  Ute Becker             : All parallelization in ORCA, NUMFREQ, NUMCALC 
  Giovanni Bistoni       : ED, misc. LED, open-shell LED, HFLD           
  Dmytro Bykov           : pre 5.0 version of the SCF Hessian            
  Marcos Casanova-Páez   : Triplet and SCS-CIS(D). UHF-(DLPNO)-IP/EA/STEOM-CCSD. UHF-CVS-IP/STEOM-CCSD   
  Vijay G. Chilkuri      : MRCI spin determinant printing, contributions to CSF-ICE 
  Pauline Colinet        : FMM embedding                                 
  Dipayan Datta          : RHF DLPNO-CCSD density                        
  Achintya Kumar Dutta   : EOM-CC, STEOM-CC                              
  Nicolas Foglia         : Exact transition moments, OPA infrastructure, MCD improvements    
  Dmitry Ganyushin       : Spin-Orbit,Spin-Spin,Magnetic field MRCI      
  Miquel Garcia-Rates    : C-PCM and meta-GGA Hessian, CCSD/C-PCM, Gaussian charge scheme 
  Tiago L. C. Gouveia    : GS-ROHF, GS-ROCIS                             
  Yang Guo               : DLPNO-NEVPT2, F12-NEVPT2, CIM, IAO-localization        
  Andreas Hansen         : Spin unrestricted coupled pair/coupled cluster methods 
  Ingolf Harden          : AUTO-CI MPn and infrastructure                
  Benjamin Helmich-Paris : MC-RPA, TRAH-(SCF,CASSCF), AVAS, COSX integrals, SCF dyn. polar., MC-PDFT, srDFT 
  Lee Huntington         : MR-EOM, pCC                                   
  Robert Izsak           : Overlap fitted RIJCOSX, COSX-SCS-MP3, EOM     
  Riya Kayal             : Wick's Theorem for AUTO-CI, AUTO-CI UHF-CCSDT 
  Emily Kempfer          : AUTO-CI RHF CISDT and CCSDT, approximate NEVPT4
  Christian Kollmar      : KDIIS, OOCD, Brueckner-CCSD(T), CCSD density, CASPT2, CASPT2-K, improved NEVPT2 
  Axel Koslowski         : Symmetry handling                             
  Simone Kossmann        : meta-GGA functionals, TD-DFT gradient, OOMP2, (MP2 Hessian; deprecated post 5.0) 
  Lucas Lang             : DCDCAS, Hyperfine gauge corrections, ICE-SOC+SSC
  Marvin Lechner         : AUTO-CI (C++ implementation), FIC-MRCC        
  Spencer Leger          : CASSCF response                               
  Dagmar Lenk            : GEPOL surface, SMD, ORCA-2-JSON               
  Dimitrios Liakos       : Extrapolation schemes; Compound Job, Property file
  Dimitrios Manganas     : Further ROCIS development; embedding schemes. LFT, Crystal Embedding 
  Dimitrios Pantazis     : SARC Basis sets                               
  Anastasios Papadopoulos: AUTO-CI, single reference methods and gradients 
  Taras Petrenko         : pre 6.0 DFT Hessian and TD-DFT gradient,  ECA, NRVS 
  Petra Pikulova         : Analytic Raman intensities                    
  Peter Pinski           : DLPNO-MP2, DLPNO-MP2 Gradient                 
  Shashank Vittal Rao    : ES-AILFT, MagRelax                            
  Christoph Reimann      : Effective Core Potentials                     
  Marius Retegan         : Local ZFS, SOC                                
  Christoph Riplinger    : Optimizer, TS searches, QM/MM, DLPNO-CCSD(T), (RO)-DLPNO pert. Triples 
  Michael Roemelt        : Original ROCIS implementation, recursive CI coupling coefficients
  Masaaki Saitow         : Open-shell DLPNO-CCSD energy and density      
  Barbara Sandhoefer     : DKH picture change effects                    
  Yorick L. A. Schmerwitz: GMF and freeze-and-release deltaSCF, NEB S-IDPP initial path                    
  Kantharuban Sivalingam : CASSCF convergence/infrastructure, NEVPT2, NEVPT3, NEVPT4(SD), FIC-MRCI and CEPA variants
  Bernardo de Souza      : ESD, SOC TD-DFT                               
  Georgi L. Stoychev     : AutoAux, RI-MP2 NMR, DLPNO-MP2 response, X2C  
  Van Anh Tran           : RI-MP2 g-tensors                              
  Willem Van den Heuvel  : Paramagnetic NMR                              
  Zikuan Wang            : NOTCH, Electric field optimization            
  Frank Wennmohs         : Technical directorship and infrastructure     
  Hang Xu                : AUTO-CI-Response properties                   
                                                                         
[FACCTs GmbH]                                                            
  Markus Bursch, Nicolas Foglia, Miquel Garcia-Rates, Ingolf Harden, Hagen Neugebauer, Anastasios Papadopoulos, 
  Christoph Riplinger, Bernardo de Souza, Georgi L. Stoychev                                                    
                                                                 
  APM, various basis sets, CI-OPT, improved COSX, DLPNO-Multilevel,           
  DOCKER, DRACO, updates on ESD, Fragmentator, GOAT, IRC, LR-CPCM, L-BFGS, MBIS, meta-GGA TD-DFT gradient, ML-optimized integration grids, 
  MM, NACMEs, nearIR, NEB, NEB-TS, NL-DFT gradient (VV10), 2- and 3-layer-ONIOM, interface openCOSMO-RS, QMMM,   
  Crystal-QMMM, RESP, rigid body optimization, SF, symmetry and pop. for TD-DFT, various functionals, SOLVATOR                                   
                                                                         
[Other institutions]                                                     
  V. Asgeirsson          : NEB                                           
  Christoph Bannwarth    : sTDA-DFT, sTD-DFT, PBEh-3c, B97-3c, D3        
  Giovanni Bistoni       : ETS/NOCV, ADLD/ADEX, COVALED                  
  Martin Brehm           : Molecular dynamics                            
  Ronald Cardenas        : ETS/NOCV                                      
  Martina Colucci        : COVALED                                       
  Sebastian Ehlert       : rSCAN, r2SCAN, r2SCAN-3c, D4, dhf basis sets  
  Marvin Friede          : D4 for Fr, Ra, Ac-Lr                          
  Lars Goerigk           : TD-DFT with DH, B97 family of functionals     
  Stefan Grimme          : VdW corrections, initial TS optimization, DFT functionals, gCP, sTDA/sTD-DF 
  Waldemar Hujo          : DFT-NL                                        
  H. Jonsson             : NEB                                           
  Holger Kruse           : gCP                                           
  Marcel Mueller         : wB97X-3c, vDZP basis set                      
  Hagen Neugebauer       : wr2SCAN, Native XTB                           
  Gianluca Regni         : ADLD/ADEX                                     
  Tobias Risthaus        : pre 6.0 range-separated hybrid DFT and stability analysis
  Lukas Wittmann         : regularized MP2, r2SCAN double-hybrids, wr2SCAN        
                                                                         
We gratefully acknowledge several colleagues who have allowed us to      
interface, adapt or use parts of their codes:                            
  Ed Valeev, F. Pavosevic, A. Kumar             : LibInt (2-el integral package), F12 methods 
  Garnet Chan, S. Sharma, J. Yang, R. Olivares  : DMRG                   
  Ulf Ekstrom                                   : XCFun DFT Library      
  Mihaly Kallay                                 : mrcc  (arbitrary order and MRCC methods)
  Frank Weinhold                                : gennbo (NPA and NBO analysis)           
  Simon Mueller                                 : openCOSMO-RS                            
  Christopher J. Cramer and Donald G. Truhlar   : smd solvation model                     
  S Lehtola, MJT Oliveira, MAL Marques          : LibXC Library                           
  Liviu Ungur et al                             : ANISO software                          


 Your calculation uses the libint2 library for the computation of 2-el integrals
 For citations please refer to: http://libint.valeyev.net

 Your ORCA version has been built with support for libXC version: 7.0.0
 For citations please refer to: https://libxc.gitlab.io

 This ORCA versions uses:
   CBLAS   interface :  Fast vector & matrix operations
   LAPACKE interface :  Fast linear algebra routines
   SCALAPACK package :  Parallel linear algebra routines
   Shared memory     :  Shared parallel matrices
   BLAS/LAPACK       :  OpenBLAS 0.3.29  USE64BITINT DYNAMIC_ARCH NO_AFFINITY Cooperlake SINGLE_THREADED
        Core in use  :  Cooperlake
   Copyright (c) 2011-2014, The OpenBLAS Project


  ***********************************
  * Starting time: Tue May 12 10:26:17 2026
  * Host name:     c1-129
  * Process ID:    1163142
  * Working dir.:  /cluster/projects/nn14654k/ylvaos/basis_set_n_funcs/functionals/gga_c_pbe/C4H6/out
  ***********************************

Using LibXC functional ID 130 : Perdew, Burke & Ernzerhof
[ 1]  J. P. Perdew, K. Burke, and M. Ernzerhof.,  Phys. Rev. Lett. 77, 3865 (1996)
[ 2]  J. P. Perdew, K. Burke, and M. Ernzerhof.,  Phys. Rev. Lett. 78, 1396 (1997)
Using LibXC functional ID 130 : Perdew, Burke & Ernzerhof
[ 1]  J. P. Perdew, K. Burke, and M. Ernzerhof.,  Phys. Rev. Lett. 77, 3865 (1996)
[ 2]  J. P. Perdew, K. Burke, and M. Ernzerhof.,  Phys. Rev. Lett. 78, 1396 (1997)
Your calculation utilizes LibXC
by S. Lehtola, C. Steigemann, M. J. T. Oliveira & M. A. L. Marques
Please cite in your paper:
Lehtola, S.; Steigemann, C.; Oliveira, M.J.T.; Marques, M. A. L. Software X, 7, (2018), 1.
   

================================================================================

----- Orbital basis set information -----
Your calculation utilizes the basis: def2-QZVP
   F. Weigend and R. Ahlrichs, Phys. Chem. Chem. Phys. 7, 3297 (2005).

================================================================================
                                        WARNINGS
                       Please study these warnings very carefully!
================================================================================


================================================================================
                                       INPUT FILE
================================================================================
NAME = /cluster/projects/nn14654k/ylvaos/basis_set_n_funcs/functionals/gga_c_pbe/C4H6/inp/C4H6_gga_c_pbe_def2qzvp.inp
|  1> ! dft def2-QZVP TightSCF
|  2> %pal nprocs 8 end
|  3> 
|  4> %loc
|  5>   LocMet NewBoys
|  6>   Occ true
|  7> end
|  8> 
|  9> %method
| 10>   correlation gga_c_pbe
| 11> end
| 12> 
| 13> %elprop
| 14>   Dipole true
| 15> end
| 16> 
| 17> * xyz 0 1
| 18> C    0.000000000000   0.000000000000   1.632000000000
| 19> C    0.000000000000   0.000000000000   0.300000000000
| 20> C    0.000000000000   0.771000000000  -0.936300000000
| 21> C    0.000000000000  -0.771000000000  -0.936300000000
| 22> H    0.000000000000   0.914000000000   2.222200000000
| 23> H    0.000000000000  -0.914000000000   2.222200000000
| 24> H    0.912300000000   1.305900000000  -1.200300000000
| 25> H   -0.912300000000   1.305900000000  -1.200300000000
| 26> H   -0.912300000000  -1.305900000000  -1.200300000000
| 27> H    0.912300000000  -1.305900000000  -1.200300000000
| 28> *
| 29> 
| 30> 
| 31>                          ****END OF INPUT****
================================================================================

                       ****************************
                       * Single Point Calculation *
                       ****************************

---------------------------------
CARTESIAN COORDINATES (ANGSTROEM)
---------------------------------
  C      0.000000    0.000000    1.632000
  C      0.000000    0.000000    0.300000
  C      0.000000    0.771000   -0.936300
  C      0.000000   -0.771000   -0.936300
  H      0.000000    0.914000    2.222200
  H      0.000000   -0.914000    2.222200
  H      0.912300    1.305900   -1.200300
  H     -0.912300    1.305900   -1.200300
  H     -0.912300   -1.305900   -1.200300
  H      0.912300   -1.305900   -1.200300

----------------------------
CARTESIAN COORDINATES (A.U.)
----------------------------
  NO LB      ZA    FRAG     MASS         X           Y           Z
   0 C     6.0000    0    12.011    0.000000    0.000000    3.084033
   1 C     6.0000    0    12.011    0.000000    0.000000    0.566918
   2 C     6.0000    0    12.011    0.000000    1.456979   -1.769351
   3 C     6.0000    0    12.011    0.000000   -1.456979   -1.769351
   4 H     1.0000    0     1.008    0.000000    1.727210    4.199349
   5 H     1.0000    0     1.008    0.000000   -1.727210    4.199349
   6 H     1.0000    0     1.008    1.723997    2.467793   -2.268238
   7 H     1.0000    0     1.008   -1.723997    2.467793   -2.268238
   8 H     1.0000    0     1.008   -1.723997   -2.467793   -2.268238
   9 H     1.0000    0     1.008    1.723997   -2.467793   -2.268238

--------------------------------
INTERNAL COORDINATES (ANGSTROEM)
--------------------------------
 C      0   0   0     0.000000000000     0.00000000     0.00000000
 C      1   0   0     1.332000000000     0.00000000     0.00000000
 C      2   1   0     1.457010188708   148.05088964     0.00000000
 C      2   1   3     1.457010188708   148.05088964   180.00000000
 H      1   2   3     1.087994503663   122.85166680     0.00000000
 H      1   2   3     1.087994503663   122.85166680   180.00000000
 H      3   2   1     1.090002431190   117.72260444    70.99760541
 H      3   2   1     1.090002431190   117.72260444   289.00239459
 H      4   2   1     1.090002431190   117.72260444    70.99760541
 H      4   2   1     1.090002431190   117.72260444   289.00239459

---------------------------
INTERNAL COORDINATES (A.U.)
---------------------------
 C      0   0   0     0.000000000000     0.00000000     0.00000000
 C      1   0   0     2.517115210383     0.00000000     0.00000000
 C      2   1   0     2.753350230992   148.05088964     0.00000000
 C      2   1   3     2.753350230992   148.05088964   180.00000000
 H      1   2   3     2.056011647134   122.85166680     0.00000000
 H      1   2   3     2.056011647134   122.85166680   180.00000000
 H      3   2   1     2.059806080257   117.72260444    70.99760541
 H      3   2   1     2.059806080257   117.72260444   289.00239459
 H      4   2   1     2.059806080257   117.72260444    70.99760541
 H      4   2   1     2.059806080257   117.72260444   289.00239459

---------------------
BASIS SET INFORMATION
---------------------
There are 2 groups of distinct atoms

 Group   1 Type C   : 15s8p3d2f1g contracted to 7s4p3d2f1g pattern {8211111/5111/111/11/1}
 Group   2 Type H   : 7s3p2d1f contracted to 4s3p2d1f pattern {4111/111/11/1}

Atom   0C    basis set group =>   1
Atom   1C    basis set group =>   1
Atom   2C    basis set group =>   1
Atom   3C    basis set group =>   1
Atom   4H    basis set group =>   2
Atom   5H    basis set group =>   2
Atom   6H    basis set group =>   2
Atom   7H    basis set group =>   2
Atom   8H    basis set group =>   2
Atom   9H    basis set group =>   2


           ************************************************************
           *        Program running with 8 parallel MPI-processes     *
           *              working on a common directory               *
           ************************************************************
------------------------------------------------------------------------------
                             ORCA STARTUP CALCULATIONS
------------------------------------------------------------------------------
------------------------------------------------------------------------------
                   ___                                                        
                  /   \      - P O W E R E D   B Y -                         
                 /     \                                                     
                 |  |  |   _    _      __       _____    __    __             
                 |  |  |  | |  | |    /  \     |  _  \  |  |  /  |          
                  \  \/   | |  | |   /    \    | | | |  |  | /  /          
                 / \  \   | |__| |  /  /\  \   | |_| |  |  |/  /          
                |  |  |   |  __  | /  /__\  \  |    /   |      \           
                |  |  |   | |  | | |   __   |  |    \   |  |\   \          
                \     /   | |  | | |  |  |  |  | |\  \  |  | \   \       
                 \___/    |_|  |_| |__|  |__|  |_| \__\ |__|  \__/        
                                                                              
                      - O R C A' S   B I G   F R I E N D -                    
                                      &                                       
                       - I N T E G R A L  F E E D E R -                       
                                                                              
 v1 FN, 2020, v2 2021, v3 2022-2024                                           
------------------------------------------------------------------------------


----------------------
SHARK INTEGRAL PACKAGE
----------------------

Number of atoms                             ...     10
Number of basis functions                   ...    408
Number of shells                            ...    128
Maximum angular momentum                    ...      4
Integral batch strategy                     ... SHARK/LIBINT Hybrid
RI-J (if used) integral strategy            ... SPLIT-RIJ (Revised 2003 algorithm where possible)
Printlevel                                  ...      1
Contraction scheme used                     ... SEGMENTED contraction
Prescreening option                         ... SCHWARTZ
   Thresh                                   ... 2.500e-11
   Tcut                                     ... 2.500e-12
   Tpresel                                  ... 2.500e-12 
Coulomb Range Separation                    ... NOT USED
Exchange Range Separation                   ... NOT USED
Multipole approximations                    ... NOT USED
Finite Nucleus Model                        ... NOT USED
CABS basis                                  ... NOT available
Auxiliary Coulomb fitting basis             ... NOT available
Auxiliary J/K fitting basis                 ... NOT available
Auxiliary Correlation fitting basis         ... NOT available
Auxiliary 'external' fitting basis          ... NOT available

Checking pre-screening integrals            ... done (  0.0 sec) Dimension = 128
   => SHARK Basis and OBASIS are compatible. Storing Pre-screening
Shell pair information
Shell pair cut-off parameter TPreSel        ...   2.5e-12
Total number of shell pairs                 ...      8256
Shell pairs after pre-screening             ...      7738
Total number of primitive shell pairs       ...     19107
Primitive shell pairs kept                  ...     14829
          la=0 lb=0:   1246 shell pairs
          la=1 lb=0:   1660 shell pairs
          la=1 lb=1:    575 shell pairs
          la=2 lb=0:   1152 shell pairs
          la=2 lb=1:    770 shell pairs
          la=2 lb=2:    282 shell pairs
          la=3 lb=0:    672 shell pairs
          la=3 lb=1:    458 shell pairs
          la=3 lb=2:    316 shell pairs
          la=3 lb=3:    101 shell pairs
          la=4 lb=0:    208 shell pairs
          la=4 lb=1:    136 shell pairs
          la=4 lb=2:     96 shell pairs
          la=4 lb=3:     56 shell pairs
          la=4 lb=4:     10 shell pairs

Checking whether 4 symmetric matrices of dimension 408 fit in memory
:Max Core in MB      =   4096.00
 MB in use           =     12.97
 MB left             =   4083.03
 MB needed           =      2.55
 Data fit in memory  = YES
Calculating Nuclear repulsion               ... done (  0.0 sec) ENN=    109.249345578353 Eh

Diagonalization of the overlap matrix:
Smallest eigenvalue                        ... 5.265e-05
Time for diagonalization                   ...    0.036 sec
Threshold for overlap eigenvalues          ... 1.000e-07
Number of eigenvalues below threshold      ... 0
Time for construction of square roots      ...    0.038 sec
Total time needed                          ...    0.077 sec

-------------------
DFT GRID GENERATION
-------------------

General Integration Accuracy     IntAcc      ... 4.388
Radial Grid Type                 RadialGrid  ... OptM3 with GC (2021)
Angular Grid (max. ang.)         AngularGrid ... 4 (Lebedev-302)
Angular grid pruning method      GridPruning ... 4 (adaptive)
Weight generation scheme         WeightScheme... mBecke (2022)
Basis function cutoff            BFCut       ... 1.0000e-11
Integration weight cutoff        WCut        ... 1.0000e-14
Partially contracted basis set               ... off
Rotationally invariant grid construction     ... off
Angular grids for H and He will be reduced by one unit
Diffuse basis detected: some atoms will have their outermost
                        angular grid increased by 1.

Total number of grid points                  ...    44804
Total number of batches                      ...      705
Average number of points per batch           ...       63
Average number of grid points per atom       ...     4480
Grids setup in   0.4 sec
Initializing property integral containers    ... done (  0.0 sec)

SHARK setup successfully completed in   1.7 seconds

Maximum memory used throughout the entire STARTUP-calculation: 26.1 MB


           ************************************************************
           *        Program running with 8 parallel MPI-processes     *
           *              working on a common directory               *
           ************************************************************
-------------------------------------------------------------------------------
                                 ORCA GUESS
                   Start orbitals & Density for SCF / CASSCF
-------------------------------------------------------------------------------

------------
SCF SETTINGS
------------
Hamiltonian:
 Density Functional     Method          .... DFT(GTOs)
 Exchange Functional    Exchange        .... Slater
   X-Alpha parameter    XAlpha          ....  0.666667
  Functional kind                       .... Correlation
  Functional name                       .... Perdew, Burke & Ernzerhof
  Functional family                     .... GGA
  Functional refs                              
    [ 0] J. P. Perdew, K. Burke, and M. Ernzerhof.,  Phys. Rev. Lett. 77, 3865 (1996), doi: 10.1103/PhysRevLett.77.3865
    [ 1] J. P. Perdew, K. Burke, and M. Ernzerhof.,  Phys. Rev. Lett. 78, 1396 (1997), doi: 10.1103/PhysRevLett.78.1396
  Functional external parameters        .... 3
    Parameter  0 _beta      =  6.672455e-02 : beta constant       
    Parameter  1 _gamma     =  3.109069e-02 : (1 - ln(2))/Pi^2 in the PBE
    Parameter  2 _B         =  1.000000e+00 : Multiplies the A t^2 term. Used in the SPBE functional
 Gradients option       PostSCFGGA      .... off


General Settings:
 Integral files         IntName         .... /cluster/projects/nn14654k/ylvaos/basis_set_n_funcs/functionals/gga_c_pbe/C4H6/inp/C4H6_gga_c_pbe_def2qzvp
 Hartree-Fock type      HFTyp           .... RHF
 Total Charge           Charge          ....    0
 Multiplicity           Mult            ....    1
 Number of Electrons    NEL             ....   30
 Basis Dimension        Dim             ....  408
 Nuclear Repulsion      ENuc            ....    109.2493455784 Eh

Convergence Acceleration:
 AO-DIIS                CNVDIIS         .... on
   Start iteration      DIISMaxIt       ....    12
   Startup error        DIISStart       ....  0.200000
   # of expansion vecs  DIISMaxEq       ....     5
   Bias factor          DIISBfac        ....   1.050
   Max. coefficient     DIISMaxC        ....  10.000
 MO-DIIS                CNVKDIIS        .... off
 Trust-Rad. Augm. Hess. CNVTRAH         .... auto
   Auto Start mean grad. ratio tolernc. ....  1.125000
   Auto Start start iteration           ....    50
   Auto Start num. interpolation iter.  ....    10
   Max. Number of Micro iterations      ....    24
   Max. Number of Macro iterations      .... Maxiter - #DIIS iter
   Number of Davidson start vectors     ....     2
   Converg. threshold    (grad. norm)   ....   1.000e-05
   Grad. Scal. Fac. for Micro threshold ....   0.100
   Minimum threshold for Micro iter.    ....   1.000e-02
   NR start threshold (gradient norm)   ....   1.000e-04
   Initial trust radius                 ....   0.400
   Minimum AH scaling param. (alpha)    ....   1.000
   Maximum AH scaling param. (alpha)    .... 1000.000
   Quad. conv. algorithm                .... NR
   White noise on init. David. guess    .... on
   Maximum white noise                  ....   0.010
   Pseudo random numbers                .... off
   Inactive MOs                         .... canonical
   Orbital update algorithm             .... Taylor
   Preconditioner                       .... Diag
   Full preconditioner red. dimension   ....   250
 SOSCF                 CNVSOSCF           .... on
   Start iteration     SOSCFMaxIt         ....   150
   Startup grad/error  SOSCFStart         ....  0.003300
   Hessian update      SOSCFHessUp        .... L-BFGS
   Autom. constraints  SOSCFAutoConstrain .... off
 Level Shifting         CNVShift        .... on
   Level shift para.    LevelShift      ....    0.2500
   Turn off err/grad.   ShiftErr        ....    0.0010
 Zerner damping         CNVZerner       .... off
 Static damping         CNVDamp         .... on
   Fraction old density DampFac         ....    0.7000
   Max. Damping (<1)    DampMax         ....    0.9800
   Min. Damping (>=0)   DampMin         ....    0.0000
   Turn off err/grad.   DampErr         ....    0.1000

SCF Procedure:
 Maximum # iterations   MaxIter         ....   125
 SCF integral mode      SCFMode         .... Direct
   Integral package                     .... SHARK and LIBINT hybrid scheme
 Reset frequency        DirectResetFreq ....    20
 Integral Threshold     Thresh          ....  2.500e-11 Eh
 Primitive CutOff       TCut            ....  2.500e-12 Eh

Convergence Tolerance:
 Convergence Check Mode ConvCheckMode   .... Total+1el-Energy
 Convergence forced     ConvForced      .... 0
 Energy Change          TolE            ....  1.000e-08 Eh
 1-El. energy change                    ....  1.000e-05 Eh
 Orbital Gradient       TolG            ....  1.000e-05
 Orbital Rotation angle TolX            ....  1.000e-05
 DIIS Error             TolErr          ....  5.000e-07

------------------------------
INITIAL GUESS: MODEL POTENTIAL
------------------------------
Loading Hartree-Fock densities                     ... done
Calculating cut-offs                               ... done
Initializing the effective Hamiltonian             ... done
Setting up the integral package (SHARK)            ... done
Starting the Coulomb interaction                   ... done (   0.1 sec)
Making the grid                                    ... done (   0.0 sec)
Mapping shells                                     ... done
Starting the XC term evaluation                    ... done (   0.0 sec)
  promolecular density results
     # of electrons  =     29.996285088
     EX              =    -20.075320876
     EC              =     -0.956112648
     EX+EC           =    -21.031433524
Transforming the Hamiltonian                       ... done (   0.0 sec)
Diagonalizing the Hamiltonian                      ... done (   0.0 sec)
Back transforming the eigenvectors                 ... done (   0.0 sec)
Now organizing SCF variables                       ... done
                      ------------------
                      INITIAL GUESS DONE (   0.2 sec)
                      ------------------
             **** ENERGY FILE WAS UPDATED (/cluster/projects/nn14654k/ylvaos/basis_set_n_funcs/functionals/gga_c_pbe/C4H6/inp/C4H6_gga_c_pbe_def2qzvp.en.tmp) ****
Finished Guess after   0.4 sec
Maximum memory used throughout the entire GUESS-calculation: 24.0 MB


           ************************************************************
           *        Program running with 8 parallel MPI-processes     *
           *              working on a common directory               *
           ************************************************************

-------------------------------------------------------------------------------------------
                                      ORCA LEAN-SCF
                              memory conserving SCF solver
-------------------------------------------------------------------------------------------

----------------------------------------D-I-I-S--------------------------------------------
Iteration    Energy (Eh)           Delta-E    RMSDP     MaxDP     DIISErr   Damp  Time(sec)
-------------------------------------------------------------------------------------------
               ***  Starting incremental Fock matrix formation  ***
    1    -153.5299154499061274     0.00e+00  1.30e-03  1.99e-02  1.82e-01  0.700   5.0
    2    -153.5897063181745921    -5.98e-02  9.96e-04  1.72e-02  8.61e-02  0.700   4.7
                               ***Turning on AO-DIIS***
    3    -153.6112132951068361    -2.15e-02  4.87e-04  6.87e-03  2.33e-02  0.700   4.6
    4    -153.6235647882012358    -1.24e-02  9.35e-04  1.08e-02  1.10e-02  0.000   4.5
    5    -153.6514242959290755    -2.79e-02  1.98e-04  2.17e-03  5.50e-03  0.000   4.6
                              *** Initializing SOSCF ***
---------------------------------------S-O-S-C-F--------------------------------------
Iteration    Energy (Eh)           Delta-E    RMSDP     MaxDP     MaxGrad    Time(sec)
--------------------------------------------------------------------------------------
    6    -153.6516474405488566    -2.23e-04  1.08e-04  1.24e-03  1.30e-03     4.4
               *** Restarting incremental Fock matrix formation ***
    7    -153.6516608593887554    -1.34e-05  9.52e-05  1.23e-03  2.06e-04     4.9
    8    -153.6516607495285598     1.10e-07  2.12e-05  3.08e-04  2.45e-04     4.1
    9    -153.6516627334896725    -1.98e-06  2.29e-05  2.88e-04  6.34e-05     3.8
   10    -153.6516627830585549    -4.96e-08  2.21e-06  2.76e-05  3.12e-05     3.7
   11    -153.6516627970543709    -1.40e-08  5.71e-06  7.03e-05  3.38e-05     3.3
   12    -153.6516628008468501    -3.79e-09  1.20e-06  2.13e-05  3.40e-05     3.4
                 **** Energy Check signals convergence ****

               *****************************************************
               *                     SUCCESS                       *
               *           SCF CONVERGED AFTER  12 CYCLES          *
               *****************************************************

             **** ENERGY FILE WAS UPDATED (/cluster/projects/nn14654k/ylvaos/basis_set_n_funcs/functionals/gga_c_pbe/C4H6/inp/C4H6_gga_c_pbe_def2qzvp.en.tmp) ****

----------------
TOTAL SCF ENERGY
----------------

Total Energy       :       -153.65166280578808 Eh           -4181.07431 eV

Components:
Nuclear Repulsion  :        109.24934557835338 Eh            2972.82583 eV
Electronic Energy  :       -262.90100838414145 Eh           -7153.90014 eV
One Electron Energy:       -424.23342913149332 Eh          -11543.97849 eV
Two Electron Energy:        161.33242074735188 Eh            4390.07836 eV

Virial components:
Potential Energy   :       -306.45806600064532 Eh           -8339.14793 eV
Kinetic Energy     :        152.80640319485727 Eh            4158.07362 eV
Virial Ratio       :          2.00553157193192

DFT components:
N(Alpha)           :       14.999997010101 electrons
N(Beta)            :       14.999997010101 electrons
N(Total)           :       29.999994020202 electrons
E(X)               :      -20.411185262755 Eh       
E(C)               :       -0.969455001766 Eh       
E(XC)              :      -21.380640264521 Eh       

---------------
SCF CONVERGENCE
---------------

  Last Energy change         ...    3.7925e-09  Tolerance :   1.0000e-08
  Last MAX-Density change    ...    2.1329e-05  Tolerance :   1.0000e-07
  Last RMS-Density change    ...    1.2031e-06  Tolerance :   5.0000e-09
  Last DIIS Error            ...    1.3038e-03  Tolerance :   5.0000e-07
  Last Orbital Gradient      ...    3.4017e-05  Tolerance :   1.0000e-05
  Last Orbital Rotation      ...    6.4991e-05  Tolerance :   1.0000e-05


----------------
ORBITAL ENERGIES
----------------

  NO   OCC          E(Eh)            E(eV) 
   0   2.0000      -9.754841      -265.4427 
   1   2.0000      -9.745578      -265.1907 
   2   2.0000      -9.745458      -265.1874 
   3   2.0000      -9.728064      -264.7141 
   4   2.0000      -0.785052       -21.3623 
   5   2.0000      -0.632533       -17.2121 
   6   2.0000      -0.539289       -14.6748 
   7   2.0000      -0.467816       -12.7299 
   8   2.0000      -0.424470       -11.5504 
   9   2.0000      -0.410557       -11.1718 
  10   2.0000      -0.368524       -10.0280 
  11   2.0000      -0.314054        -8.5458 
  12   2.0000      -0.273007        -7.4289 
  13   2.0000      -0.246891        -6.7182 
  14   2.0000      -0.223235        -6.0745 
  15   0.0000      -0.031886        -0.8677 
  16   0.0000       0.027260         0.7418 
  17   0.0000       0.044583         1.2132 
  18   0.0000       0.056151         1.5279 
  19   0.0000       0.075391         2.0515 
  20   0.0000       0.078867         2.1461 
  21   0.0000       0.086497         2.3537 
  22   0.0000       0.111093         3.0230 
  23   0.0000       0.119483         3.2513 
  24   0.0000       0.123029         3.3478 
  25   0.0000       0.154063         4.1923 
*Only the first 10 virtual orbitals were printed.

                    ********************************
                    * MULLIKEN POPULATION ANALYSIS *
                    ********************************

-----------------------
MULLIKEN ATOMIC CHARGES
-----------------------
   0 C :   -0.257034
   1 C :    0.098754
   2 C :   -0.249967
   3 C :   -0.249972
   4 H :    0.094399
   5 H :    0.094399
   6 H :    0.117356
   7 H :    0.117355
   8 H :    0.117356
   9 H :    0.117356
Sum of atomic charges:   -0.0000000

--------------------------------
MULLIKEN REDUCED ORBITAL CHARGES
--------------------------------
  0 C s       :     3.312880  s :     3.312880
      pz      :     0.888444  p :     2.853810
      px      :     0.992997
      py      :     0.972369
      dz2     :     0.001133  d :     0.081846
      dxz     :     0.011147
      dyz     :     0.067363
      dx2y2   :     0.002019
      dxy     :     0.000184
      f0      :     0.000355  f :     0.008196
      f+1     :     0.002087
      f-1     :     0.005864
      f+2     :    -0.000011
      f-2     :     0.000084
      f+3     :    -0.000015
      f-3     :    -0.000169
      g0      :    -0.000014  g :     0.000301
      g+1     :     0.000192
      g-1     :     0.000233
      g+2     :    -0.000014
      g-2     :    -0.000002
      g+3     :    -0.000010
      g-3     :    -0.000091
      g+4     :     0.000006
      g-4     :    -0.000000

  1 C s       :     3.249562  s :     3.249562
      pz      :     0.646185  p :     2.457672
      px      :     0.917014
      py      :     0.894473
      dz2     :     0.038387  d :     0.175727
      dxz     :     0.044825
      dyz     :     0.071311
      dx2y2   :     0.010327
      dxy     :     0.010877
      f0      :     0.005778  f :     0.016734
      f+1     :     0.003219
      f-1     :     0.002291
      f+2     :     0.002212
      f-2     :     0.003008
      f+3     :     0.000236
      f-3     :    -0.000009
      g0      :     0.000460  g :     0.001550
      g+1     :     0.000297
      g-1     :     0.000390
      g+2     :     0.000129
      g-2     :     0.000206
      g+3     :     0.000054
      g-3     :     0.000004
      g+4     :     0.000007
      g-4     :     0.000002

  2 C s       :     3.246180  s :     3.246180
      pz      :     1.002498  p :     2.900410
      px      :     1.010874
      py      :     0.887038
      dz2     :     0.019691  d :     0.088752
      dxz     :     0.017087
      dyz     :     0.021626
      dx2y2   :     0.011418
      dxy     :     0.018931
      f0      :     0.003510  f :     0.014028
      f+1     :     0.001568
      f-1     :     0.000979
      f+2     :     0.002488
      f-2     :     0.001414
      f+3     :     0.002935
      f-3     :     0.001134
      g0      :     0.000074  g :     0.000597
      g+1     :    -0.000010
      g-1     :     0.000167
      g+2     :     0.000055
      g-2     :     0.000081
      g+3     :     0.000043
      g-3     :     0.000120
      g+4     :     0.000024
      g-4     :     0.000042

  3 C s       :     3.246184  s :     3.246184
      pz      :     1.002499  p :     2.900411
      px      :     1.010874
      py      :     0.887038
      dz2     :     0.019691  d :     0.088752
      dxz     :     0.017087
      dyz     :     0.021626
      dx2y2   :     0.011418
      dxy     :     0.018931
      f0      :     0.003510  f :     0.014028
      f+1     :     0.001568
      f-1     :     0.000979
      f+2     :     0.002488
      f-2     :     0.001414
      f+3     :     0.002935
      f-3     :     0.001134
      g0      :     0.000074  g :     0.000597
      g+1     :    -0.000010
      g-1     :     0.000167
      g+2     :     0.000055
      g-2     :     0.000081
      g+3     :     0.000043
      g-3     :     0.000120
      g+4     :     0.000024
      g-4     :     0.000042

  4 H s       :     0.859062  s :     0.859062
      pz      :     0.008910  p :     0.041297
      px      :     0.018503
      py      :     0.013884
      dz2     :     0.001479  d :     0.004988
      dxz     :     0.000907
      dyz     :     0.000423
      dx2y2   :     0.000593
      dxy     :     0.001585
      f0      :     0.000013  f :     0.000255
      f+1     :     0.000004
      f-1     :     0.000109
      f+2     :    -0.000016
      f-2     :     0.000069
      f+3     :     0.000063
      f-3     :     0.000012

  5 H s       :     0.859062  s :     0.859062
      pz      :     0.008910  p :     0.041297
      px      :     0.018503
      py      :     0.013884
      dz2     :     0.001479  d :     0.004988
      dxz     :     0.000907
      dyz     :     0.000423
      dx2y2   :     0.000593
      dxy     :     0.001585
      f0      :     0.000013  f :     0.000255
      f+1     :     0.000004
      f-1     :     0.000109
      f+2     :    -0.000016
      f-2     :     0.000069
      f+3     :     0.000063
      f-3     :     0.000012

  6 H s       :     0.830202  s :     0.830202
      pz      :     0.017438  p :     0.046440
      px      :     0.012619
      py      :     0.016383
      dz2     :     0.000789  d :     0.005733
      dxz     :     0.001489
      dyz     :     0.000741
      dx2y2   :     0.001808
      dxy     :     0.000906
      f0      :     0.000018  f :     0.000270
      f+1     :     0.000052
      f-1     :     0.000031
      f+2     :     0.000025
      f-2     :     0.000039
      f+3     :     0.000108
      f-3     :    -0.000004

  7 H s       :     0.830202  s :     0.830202
      pz      :     0.017438  p :     0.046440
      px      :     0.012619
      py      :     0.016383
      dz2     :     0.000789  d :     0.005733
      dxz     :     0.001489
      dyz     :     0.000741
      dx2y2   :     0.001808
      dxy     :     0.000906
      f0      :     0.000018  f :     0.000270
      f+1     :     0.000052
      f-1     :     0.000031
      f+2     :     0.000025
      f-2     :     0.000039
      f+3     :     0.000108
      f-3     :    -0.000004

  8 H s       :     0.830202  s :     0.830202
      pz      :     0.017438  p :     0.046440
      px      :     0.012619
      py      :     0.016382
      dz2     :     0.000789  d :     0.005733
      dxz     :     0.001489
      dyz     :     0.000741
      dx2y2   :     0.001808
      dxy     :     0.000906
      f0      :     0.000018  f :     0.000270
      f+1     :     0.000052
      f-1     :     0.000031
      f+2     :     0.000025
      f-2     :     0.000039
      f+3     :     0.000108
      f-3     :    -0.000004

  9 H s       :     0.830202  s :     0.830202
      pz      :     0.017438  p :     0.046440
      px      :     0.012619
      py      :     0.016382
      dz2     :     0.000789  d :     0.005733
      dxz     :     0.001489
      dyz     :     0.000741
      dx2y2   :     0.001808
      dxy     :     0.000906
      f0      :     0.000018  f :     0.000270
      f+1     :     0.000052
      f-1     :     0.000031
      f+2     :     0.000025
      f-2     :     0.000039
      f+3     :     0.000108
      f-3     :    -0.000004



                     *******************************
                     * LOEWDIN POPULATION ANALYSIS *
                     *******************************

----------------------
LOEWDIN ATOMIC CHARGES
----------------------
   0 C :    0.180657
   1 C :   -0.133658
   2 C :    0.149551
   3 C :    0.149551
   4 H :   -0.077391
   5 H :   -0.077391
   6 H :   -0.047830
   7 H :   -0.047830
   8 H :   -0.047830
   9 H :   -0.047830

-------------------------------
LOEWDIN REDUCED ORBITAL CHARGES
-------------------------------
  0 C s       :     2.628070  s :     2.628070
      pz      :     1.020837  p :     2.813445
      px      :     0.817655
      py      :     0.974953
      dz2     :     0.074112  d :     0.308172
      dxz     :     0.042522
      dyz     :     0.172887
      dx2y2   :     0.018399
      dxy     :     0.000252
      f0      :     0.013562  f :     0.061418
      f+1     :     0.013435
      f-1     :     0.026600
      f+2     :     0.004630
      f-2     :     0.000164
      f+3     :     0.000853
      f-3     :     0.002174
      g0      :     0.002286  g :     0.008239
      g+1     :     0.001796
      g-1     :     0.003067
      g+2     :     0.000079
      g-2     :     0.000005
      g+3     :     0.000193
      g-3     :     0.000573
      g+4     :     0.000239
      g-4     :     0.000000

  1 C s       :     2.591654  s :     2.591654
      pz      :     1.055127  p :     2.692997
      px      :     0.760623
      py      :     0.877247
      dz2     :     0.205267  d :     0.687791
      dxz     :     0.174750
      dyz     :     0.221026
      dx2y2   :     0.036427
      dxy     :     0.050321
      f0      :     0.048611  f :     0.142793
      f+1     :     0.017685
      f-1     :     0.034732
      f+2     :     0.014434
      f-2     :     0.023163
      f+3     :     0.003446
      f-3     :     0.000721
      g0      :     0.005924  g :     0.018423
      g+1     :     0.002986
      g-1     :     0.004752
      g+2     :     0.001349
      g-2     :     0.002039
      g+3     :     0.000894
      g-3     :     0.000334
      g+4     :     0.000062
      g-4     :     0.000083

  2 C s       :     2.552260  s :     2.552260
      pz      :     0.894402  p :     2.719618
      px      :     0.955332
      py      :     0.869884
      dz2     :     0.083208  d :     0.462506
      dxz     :     0.059741
      dyz     :     0.115571
      dx2y2   :     0.068990
      dxy     :     0.134997
      f0      :     0.026565  f :     0.107834
      f+1     :     0.010216
      f-1     :     0.010101
      f+2     :     0.024751
      f-2     :     0.008804
      f+3     :     0.015075
      f-3     :     0.012322
      g0      :     0.000884  g :     0.008230
      g+1     :     0.000456
      g-1     :     0.002382
      g+2     :     0.000771
      g-2     :     0.000875
      g+3     :     0.000297
      g-3     :     0.001322
      g+4     :     0.000323
      g-4     :     0.000921

  3 C s       :     2.552260  s :     2.552260
      pz      :     0.894402  p :     2.719618
      px      :     0.955332
      py      :     0.869884
      dz2     :     0.083208  d :     0.462506
      dxz     :     0.059741
      dyz     :     0.115571
      dx2y2   :     0.068990
      dxy     :     0.134997
      f0      :     0.026565  f :     0.107834
      f+1     :     0.010216
      f-1     :     0.010101
      f+2     :     0.024751
      f-2     :     0.008804
      f+3     :     0.015075
      f-3     :     0.012322
      g0      :     0.000884  g :     0.008230
      g+1     :     0.000456
      g-1     :     0.002382
      g+2     :     0.000771
      g-2     :     0.000875
      g+3     :     0.000297
      g-3     :     0.001322
      g+4     :     0.000323
      g-4     :     0.000921

  4 H s       :     0.798706  s :     0.798706
      pz      :     0.059970  p :     0.205266
      px      :     0.059686
      py      :     0.085610
      dz2     :     0.015472  d :     0.064199
      dxz     :     0.007596
      dyz     :     0.015549
      dx2y2   :     0.011615
      dxy     :     0.013967
      f0      :     0.000782  f :     0.009220
      f+1     :     0.000084
      f-1     :     0.002935
      f+2     :     0.001599
      f-2     :     0.001595
      f+3     :     0.001183
      f-3     :     0.001042

  5 H s       :     0.798706  s :     0.798706
      pz      :     0.059970  p :     0.205266
      px      :     0.059686
      py      :     0.085610
      dz2     :     0.015472  d :     0.064199
      dxz     :     0.007596
      dyz     :     0.015549
      dx2y2   :     0.011615
      dxy     :     0.013967
      f0      :     0.000782  f :     0.009220
      f+1     :     0.000084
      f-1     :     0.002935
      f+2     :     0.001599
      f-2     :     0.001595
      f+3     :     0.001183
      f-3     :     0.001042

  6 H s       :     0.774181  s :     0.774181
      pz      :     0.062277  p :     0.198997
      px      :     0.081529
      py      :     0.055192
      dz2     :     0.008628  d :     0.065245
      dxz     :     0.015606
      dyz     :     0.006935
      dx2y2   :     0.019495
      dxy     :     0.014582
      f0      :     0.000812  f :     0.009406
      f+1     :     0.001440
      f-1     :     0.000669
      f+2     :     0.000655
      f-2     :     0.001571
      f+3     :     0.002619
      f-3     :     0.001640

  7 H s       :     0.774181  s :     0.774181
      pz      :     0.062277  p :     0.198997
      px      :     0.081529
      py      :     0.055192
      dz2     :     0.008628  d :     0.065245
      dxz     :     0.015606
      dyz     :     0.006935
      dx2y2   :     0.019495
      dxy     :     0.014582
      f0      :     0.000812  f :     0.009406
      f+1     :     0.001440
      f-1     :     0.000669
      f+2     :     0.000655
      f-2     :     0.001571
      f+3     :     0.002619
      f-3     :     0.001640

  8 H s       :     0.774181  s :     0.774181
      pz      :     0.062277  p :     0.198997
      px      :     0.081529
      py      :     0.055192
      dz2     :     0.008628  d :     0.065245
      dxz     :     0.015606
      dyz     :     0.006935
      dx2y2   :     0.019495
      dxy     :     0.014582
      f0      :     0.000812  f :     0.009406
      f+1     :     0.001440
      f-1     :     0.000669
      f+2     :     0.000655
      f-2     :     0.001571
      f+3     :     0.002619
      f-3     :     0.001640

  9 H s       :     0.774181  s :     0.774181
      pz      :     0.062277  p :     0.198997
      px      :     0.081529
      py      :     0.055192
      dz2     :     0.008628  d :     0.065245
      dxz     :     0.015606
      dyz     :     0.006935
      dx2y2   :     0.019495
      dxy     :     0.014582
      f0      :     0.000812  f :     0.009406
      f+1     :     0.001440
      f-1     :     0.000669
      f+2     :     0.000655
      f-2     :     0.001571
      f+3     :     0.002619
      f-3     :     0.001640



                      *****************************
                      * MAYER POPULATION ANALYSIS *
                      *****************************

  NA   - Mulliken gross atomic population
  ZA   - Total nuclear charge
  QA   - Mulliken gross atomic charge
  VA   - Mayer's total valence
  BVA  - Mayer's bonded valence
  FA   - Mayer's free valence

  ATOM       NA         ZA         QA         VA         BVA        FA
  0 C      6.2570     6.0000    -0.2570     3.9136     3.9136    -0.0000
  1 C      5.9012     6.0000     0.0988     3.8865     3.8865     0.0000
  2 C      6.2500     6.0000    -0.2500     3.9347     3.9347     0.0000
  3 C      6.2500     6.0000    -0.2500     3.9347     3.9347     0.0000
  4 H      0.9056     1.0000     0.0944     1.0118     1.0118    -0.0000
  5 H      0.9056     1.0000     0.0944     1.0118     1.0118    -0.0000
  6 H      0.8826     1.0000     0.1174     1.0224     1.0224    -0.0000
  7 H      0.8826     1.0000     0.1174     1.0224     1.0224     0.0000
  8 H      0.8826     1.0000     0.1174     1.0224     1.0224    -0.0000
  9 H      0.8826     1.0000     0.1174     1.0224     1.0224     0.0000

  Mayer bond orders larger than 0.100000
B(  0-C ,  1-C ) :   1.8438 B(  0-C ,  4-H ) :   0.9479 B(  0-C ,  5-H ) :   0.9479 
B(  1-C ,  2-C ) :   0.9558 B(  1-C ,  3-C ) :   0.9558 B(  2-C ,  3-C ) :   0.9537 
B(  2-C ,  6-H ) :   0.9569 B(  2-C ,  7-H ) :   0.9569 B(  3-C ,  8-H ) :   0.9569 
B(  3-C ,  9-H ) :   0.9569 

-------
TIMINGS
-------

Total SCF time: 0 days 0 hours 0 min 54 sec 

Total time                  ....      54.441 sec
Sum of individual times     ....      51.358 sec  ( 94.3%)

SCF preparation             ....       0.140 sec  (  0.3%)
Fock matrix formation       ....      50.599 sec  ( 92.9%)
  Startup                   ....       0.009 sec  (  0.0% of F)
  Coulomb formation         ....      52.028 sec  (102.8% of F)
  XC integration            ....       1.485 sec  (  2.9% of F)
    XC Preparation          ....       0.000 sec  (  0.0% of XC)
    Basis function eval.    ....       0.213 sec  ( 14.3% of XC)
    Density eval.           ....       0.301 sec  ( 20.3% of XC)
    XC-Functional eval.     ....       0.028 sec  (  1.9% of XC)
    XC-Potential eval.      ....       0.692 sec  ( 46.6% of XC)
Diagonalization             ....       0.000 sec  (  0.0%)
Density matrix formation    ....       0.063 sec  (  0.1%)
Total Energy calculation    ....       0.024 sec  (  0.0%)
Population analysis         ....       0.027 sec  (  0.0%)
Orbital Transformation      ....       0.056 sec  (  0.1%)
Orbital Orthonormalization  ....       0.000 sec  (  0.0%)
DIIS solution               ....       0.278 sec  (  0.5%)
SOSCF solution              ....       0.172 sec  (  0.3%)
Finished LeanSCF after  54.5 sec

Maximum memory used throughout the entire LEANSCF-calculation: 39.2 MB
------------------------------------------------------------------------------
                           ORCA ORBITAL LOCALIZATION
------------------------------------------------------------------------------

Input orbitals are from                  ... /cluster/projects/nn14654k/ylvaos/basis_set_n_funcs/functionals/gga_c_pbe/C4H6/inp/C4H6_gga_c_pbe_def2qzvp.gbw
Output orbitals are to                   ... /cluster/projects/nn14654k/ylvaos/basis_set_n_funcs/functionals/gga_c_pbe/C4H6/inp/C4H6_gga_c_pbe_def2qzvp.loc
Max. number of iterations                ... 128
Localizations seeded randomly            ... on
Convergence tolerance                    ... 1.000e-06
Threshold for strong local MOs           ... 9.500e-01
Threshold for bond MOs                   ... 8.500e-01
Operator                                 ... 0
Orbital range for localization           ... 4 to 14
Localization criterion                   ... NEW-BOYS
Doing the dipole integrals               ... o.k.
Initial value of the localization sum :    55.441586
ITERATION   0 : L=   80.2140536995 DL=  2.48e+01 (AVERGE_DL)=    0.6711247983 
ITERATION   1 : L=   85.3141177485 DL=  5.10e+00 (AVERGE_DL)=    0.3045134435 
ITERATION   2 : L=   85.4216873237 DL=  1.08e-01 (AVERGE_DL)=    0.0442245459 
ITERATION   3 : L=   85.4223284005 DL=  6.41e-04 (AVERGE_DL)=    0.0034140799 
ITERATION   4 : L=   85.4223381543 DL=  9.75e-06 (AVERGE_DL)=    0.0004211208 
ITERATION   5 : L=   85.4223382562 DL=  1.02e-07 (AVERGE_DL)=    0.0000430329 
LOCALIZATION SUM CONVERGED


--------------------------------------------------------------------------------
                    LOCALIZED MOLECULAR ORBITAL COMPOSITIONS
--------------------------------------------------------------------------------

The Mulliken populations for each LMO on each atom are computed
The LMO`s will be ordered according to atom index and type
  (A) Strongly localized MO`s have populations of >=0.950 on one atom
  (B) Two center bond orbitals have populations of >=0.850 on two atoms
  (C) Other MO`s are considered to be `delocalized`

FOUND  -   0 strongly local MO`s
       -  11 two center bond MO`s
       -   0 significantly delocalized MO`s

Bond-like localized orbitals:
MO  14:   9H  -   0.443938  and   3C  -   0.563261
MO  13:   8H  -   0.443938  and   3C  -   0.563262
MO  12:   7H  -   0.443938  and   2C  -   0.563261
MO  11:   6H  -   0.443938  and   2C  -   0.563261
MO  10:   5H  -   0.462578  and   0C  -   0.541742
MO   9:   4H  -   0.462578  and   0C  -   0.541743
MO   8:   3C  -   0.504617  and   2C  -   0.504616
MO   7:   3C  -   0.535030  and   1C  -   0.496743
MO   6:   2C  -   0.535030  and   1C  -   0.496744
MO   5:   1C  -   0.489069  and   0C  -   0.523120
MO   4:   1C  -   0.489069  and   0C  -   0.523120
Localized MO's were stored in: /cluster/projects/nn14654k/ylvaos/basis_set_n_funcs/functionals/gga_c_pbe/C4H6/inp/C4H6_gga_c_pbe_def2qzvp.loc

-------------------------   --------------------
FINAL SINGLE POINT ENERGY      -153.651662805788
-------------------------   --------------------



           ************************************************************
           *        Program running with 8 parallel MPI-processes     *
           *              working on a common directory               *
           ************************************************************

------------------------------------------------------------------------------
                              ORCA PROPERTY CALCULATIONS
------------------------------------------------------------------------------

GBWName                                 ... /cluster/projects/nn14654k/ylvaos/basis_set_n_funcs/functionals/gga_c_pbe/C4H6/inp/C4H6_gga_c_pbe_def2qzvp.gbw
Number of atoms                         ...     10
Number of basis functions               ...    408
Max core memory                         ...   4096 MB

Electric properties:
Dipole moment                           ... YES
Quadrupole moment                       ...  NO
Static polarizability (Dipole/Dipole)   ...  NO
Static polarizability (Dipole/Quad.)    ...  NO
Static polarizability (Quad./Quad.)     ...  NO
Static polarizability (Velocity)        ...  NO
Static hyperpolarizability              ...  NO

Atomic electric properties:
Dipole moment                           ...  NO
Quadrupole moment                       ...  NO
Static polarizability                   ...  NO

Choice of electric origin               ... Center of mass
Position of electric origin             ...     0.000000     0.000000     0.012360

General magnetic properties:
Magnetizability                         ...  NO

EPR properties:
g-Tensor (aka g-matrix)                 ...  NO
Zero-Field splitting spin-orbit         ...  NO
Zero-field splitting spin-spin          ...  NO
Hyperfine couplings                     ...  NO (   0 nuclei)
Quadrupole couplings                    ...  NO (   0 nuclei)
Contact density                         ...  NO (   0 nuclei)

NMR properties:
Chemical shifts                         ...  NO (   0 nuclei)
Spin-rotation constants                 ...  NO (   0 nuclei)
Spin-spin couplings                     ...  NO (   0 nuclei,    0 pairs)

Choice of magnetic origin               ... GIAO
Position of magnetic origin             ...     0.000000     0.000000     0.000000

Properties with geometric perturbations:
SCF Hessian                             ...  NO
IR spectrum                             ...  NO
VCD spectrum                            ...  NO
X-ray spectroscopy properties:
SCF XES/XAS/RIXS spectra                ...  NO

SCF SOC stabilization energy            ...  NO
Diagonal Born-Oppenheimer correction    ...  NO

-------------
DIPOLE MOMENT
-------------

Method             : SCF
Type of density    : Electron Density
Multiplicity       :   1
Irrep              :   0
Energy             :  -153.6516628057880780 Eh
Basis              : AO
                                X                 Y                 Z
Electronic contribution:      0.000000016       0.000000018       0.194859965
Nuclear contribution   :      0.000000000       0.000000000      -0.371559272
                        -----------------------------------------
Total Dipole Moment    :      0.000000016       0.000000018      -0.176699307
                        -----------------------------------------
Magnitude (a.u.)       :      0.176699307
Magnitude (Debye)      :      0.449133945



--------------------
Rotational spectrum 
--------------------
 
Rotational constants in cm-1:             0.643527             0.230144             0.181788 
Rotational constants in MHz :         19292.450199          6899.535423          5449.866904 

Dipole components along the rotational axes: 
x,y,z [a.u.] :    -0.176699     0.000000     0.000000 
x,y,z [Debye]:    -0.449134     0.000000     0.000000 

 

Dipole moment calculation done in   0.0 sec 

Maximum memory used throughout the entire PROP-calculation: 21.7 MB

--------------------------------
SUGGESTED CITATIONS FOR THIS RUN
--------------------------------

Below you find a list of papers that are relevant to this ORCA run
We neither can nor want to force you to cite these papers, but we appreciate if you do
You receive ORCA, which is the product of decades of hard work by many enthusiastic individuals, for free
The only thing we kindly ask in return is that you cite our papers,
We deeply appreciate it, if you show your appreciation for ORCA by not just citing the generic ORCA reference.

Please note that relegating all ORCA citations to the supporting information does *not* help us.
SI sections are not indexed - citations you put there will not count into any citation statistics
But we need these citations in order to attract the funding resources that allow us to do what we are doing

Therefore, if you are a happy ORCA user, please consider citing a few of the papers listed below in the main body of your paper

In addition to the list printed below, the program has created the file /cluster/projects/nn14654k/ylvaos/basis_set_n_funcs/functionals/gga_c_pbe/C4H6/inp/C4H6_gga_c_pbe_def2qzvp.bibtex that contains the list in bibtex format
You can import this file easily into all common literature databanks and citation aid programs

It goes without saying that in many instances, there are alternative algorithms to achieve similar
results as the ones you have gotten from ORCA. It is, of course, also the case that in some instances
ORCA just re-implements algorithms worked out by others. We are fully aware of that and we are also
fully appreciative of our colleagues work. Hence this citation list should not be read as indicating
that the listed papers, which are focused on our own work, are the only ones worth citing. It simply
meant to make it easier for users to cite ORCA specific papers. It is not a substitute for doing your
own literature research and citing the relevant literature in a scientifically appropriate manner.

List of essential papers. We consider these as the minimum necessary citations

  1. Neese, F.
     Software update: the ORCA program system, version 6.0
     WIRES Comput. Molec. Sci. 2025 15(1), e70019
     doi.org/10.1002/wcms.70019

List of papers to cite with high priority. The work reported in these papers was absolutely
necessary for this run to complete.
Our perspective: the developers of density functionals and basis sets usually get cited in chemistry papers
Good! But without the algorithms to do something with them, the functionals or basis sets would not do anything.
Hence, in our opinion, the algorithm design and method developments papers are equally worthy of getting cited

  1. Lehtola, S.; Steigemann, C.; Oliveira, M.; Marques, M.
     Recent developments in Libxc - A comprehensive library of functionals for density functional theory
     Software X 2018 7 , 
     doi.org/10.1016/j.softx.2017.11.002
  2. Neese, F.
     The SHARK Integral Generation and Digestion System
     J. Comp. Chem. 2022 44(3), 381
     doi.org/10.1002/jcc.26942

List of suggested additional citations. These are papers that are important in the 'surrounding' of 
of this run, or papers that preceded the highly important papers. If you like your results we are grateful for a citation.

  1. Neese, F.
     The ORCA program system
     WIRES Comput. Molec. Sci. 2012 2(1), 73-78
     doi.org/10.1002/wcms.81
  2. Neese, F.
     Software update: the ORCA program system, version 4.0
     WIRES Comput. Molec. Sci. 2018 8(1), 1-6
     doi.org/10.1002/wcms.1327
  3. Neese, F.; Wennmohs, F.; Becker, U.; Riplinger, C.
     The ORCA quantum chemistry program package
     J. Chem. Phys. 2020 152(22), 224108
     doi.org/10.1063/5.0004608
  4. Neese, F.
     Software update: The ORCA program system—Version 5.0
     WIRES Comput. Molec. Sci. 2022 12(1), e1606
     doi.org/10.1002/wcms.1606

List of optional additional citations

  1. Neese, F.
     Approximate second-order SCF convergence for spin unrestricted wavefunctions
     Chem. Phys. Lett. 2000 325(1-3), 93-98
     doi.org/10.1016/s0009-2614(00)00662-x

Timings for individual modules:

Sum of individual times          ...       65.093 sec (=   1.085 min)
Startup calculation              ...        4.808 sec (=   0.080 min)   7.4 %
SCF iterations                   ...       58.515 sec (=   0.975 min)  89.9 %
Property calculations            ...        1.743 sec (=   0.029 min)   2.7 %
Orbital localization             ...        0.028 sec (=   0.000 min)   0.0 %
                             ****ORCA TERMINATED NORMALLY****
TOTAL RUN TIME: 0 days 0 hours 1 minutes 7 seconds 418 msec
