
                                 *****************
                                 * O   R   C   A *
                                 *****************

                                            #,                                       
                                            ###                                      
                                            ####                                     
                                            #####                                    
                                            ######                                   
                                           ########,                                 
                                     ,,################,,,,,                         
                               ,,#################################,,                 
                          ,,##########################################,,             
                       ,#########################################, ''#####,          
                    ,#############################################,,   '####,        
                  ,##################################################,,,,####,       
                ,###########''''           ''''###############################       
              ,#####''   ,,,,##########,,,,          '''####'''          '####       
            ,##' ,,,,###########################,,,                        '##       
           ' ,,###''''                  '''############,,,                           
         ,,##''                                '''############,,,,        ,,,,,,###''
      ,#''                                            '''#######################'''  
     '                                                          ''''####''''         
             ,#######,   #######,   ,#######,      ##                                
            ,#'     '#,  ##    ##  ,#'     '#,    #''#        ,####,    ,#,          
            ##       ##  ##   ,#'  ##            #'  '#       #'       ,# #          
            ##       ##  #######   ##           ,######,      #####,      #          
            '#,     ,#'  ##    ##  '#,     ,#' ,#      #,     #,   #      #          
             '#######'   ##     ##  '#######'  #'      '#     '####' #    #          



                #########################################################
                #                        -***-                          #
                #          Department of theory and spectroscopy        #
                #                                                       #
                #                      Frank Neese                      #
                #                                                       #
                #     Directorship, Architecture, Infrastructure        #
                #                    SHARK, DRIVERS                     #
                #        Core code/Algorithms in most modules           #
                #                                                       #
                #        Max Planck Institute fuer Kohlenforschung      #
                #                Kaiser Wilhelm Platz 1                 #
                #                 D-45470 Muelheim/Ruhr                 #
                #                      Germany                          #
                #                                                       #
                #                  All rights reserved                  #
                #                        -***-                          #
                #########################################################


                         Program Version 6.1.1  -  RELEASE   -
                                (GIT: $487d211c$)
                          ($2025-11-21 10:33:24 +0100$)


 With contributions from (in alphabetic order):
[Max-Planck-Institut fuer Kohlenforschung]                               
  Daniel Aravena         : Magnetic Suceptibility                        
  Michael Atanasov       : Ab Initio Ligand Field Theory (pilot matlab implementation)
  Alexander A. Auer      : GIAO ZORA, VPT2 properties, NMR spectrum      
  Ute Becker             : All parallelization in ORCA, NUMFREQ, NUMCALC 
  Giovanni Bistoni       : ED, misc. LED, open-shell LED, HFLD           
  Dmytro Bykov           : pre 5.0 version of the SCF Hessian            
  Marcos Casanova-Páez   : Triplet and SCS-CIS(D). UHF-(DLPNO)-IP/EA/STEOM-CCSD. UHF-CVS-IP/STEOM-CCSD   
  Vijay G. Chilkuri      : MRCI spin determinant printing, contributions to CSF-ICE 
  Pauline Colinet        : FMM embedding                                 
  Dipayan Datta          : RHF DLPNO-CCSD density                        
  Achintya Kumar Dutta   : EOM-CC, STEOM-CC                              
  Nicolas Foglia         : Exact transition moments, OPA infrastructure, MCD improvements    
  Dmitry Ganyushin       : Spin-Orbit,Spin-Spin,Magnetic field MRCI      
  Miquel Garcia-Rates    : C-PCM and meta-GGA Hessian, CCSD/C-PCM, Gaussian charge scheme 
  Tiago L. C. Gouveia    : GS-ROHF, GS-ROCIS                             
  Yang Guo               : DLPNO-NEVPT2, F12-NEVPT2, CIM, IAO-localization        
  Andreas Hansen         : Spin unrestricted coupled pair/coupled cluster methods 
  Ingolf Harden          : AUTO-CI MPn and infrastructure                
  Benjamin Helmich-Paris : MC-RPA, TRAH-(SCF,CASSCF), AVAS, COSX integrals, SCF dyn. polar., MC-PDFT, srDFT 
  Lee Huntington         : MR-EOM, pCC                                   
  Robert Izsak           : Overlap fitted RIJCOSX, COSX-SCS-MP3, EOM     
  Riya Kayal             : Wick's Theorem for AUTO-CI, AUTO-CI UHF-CCSDT 
  Emily Kempfer          : AUTO-CI RHF CISDT and CCSDT, approximate NEVPT4
  Christian Kollmar      : KDIIS, OOCD, Brueckner-CCSD(T), CCSD density, CASPT2, CASPT2-K, improved NEVPT2 
  Axel Koslowski         : Symmetry handling                             
  Simone Kossmann        : meta-GGA functionals, TD-DFT gradient, OOMP2, (MP2 Hessian; deprecated post 5.0) 
  Lucas Lang             : DCDCAS, Hyperfine gauge corrections, ICE-SOC+SSC
  Marvin Lechner         : AUTO-CI (C++ implementation), FIC-MRCC        
  Spencer Leger          : CASSCF response                               
  Dagmar Lenk            : GEPOL surface, SMD, ORCA-2-JSON               
  Dimitrios Liakos       : Extrapolation schemes; Compound Job, Property file
  Dimitrios Manganas     : Further ROCIS development; embedding schemes. LFT, Crystal Embedding 
  Dimitrios Pantazis     : SARC Basis sets                               
  Anastasios Papadopoulos: AUTO-CI, single reference methods and gradients 
  Taras Petrenko         : pre 6.0 DFT Hessian and TD-DFT gradient,  ECA, NRVS 
  Petra Pikulova         : Analytic Raman intensities                    
  Peter Pinski           : DLPNO-MP2, DLPNO-MP2 Gradient                 
  Shashank Vittal Rao    : ES-AILFT, MagRelax                            
  Christoph Reimann      : Effective Core Potentials                     
  Marius Retegan         : Local ZFS, SOC                                
  Christoph Riplinger    : Optimizer, TS searches, QM/MM, DLPNO-CCSD(T), (RO)-DLPNO pert. Triples 
  Michael Roemelt        : Original ROCIS implementation, recursive CI coupling coefficients
  Masaaki Saitow         : Open-shell DLPNO-CCSD energy and density      
  Barbara Sandhoefer     : DKH picture change effects                    
  Yorick L. A. Schmerwitz: GMF and freeze-and-release deltaSCF, NEB S-IDPP initial path                    
  Kantharuban Sivalingam : CASSCF convergence/infrastructure, NEVPT2, NEVPT3, NEVPT4(SD), FIC-MRCI and CEPA variants
  Bernardo de Souza      : ESD, SOC TD-DFT                               
  Georgi L. Stoychev     : AutoAux, RI-MP2 NMR, DLPNO-MP2 response, X2C  
  Van Anh Tran           : RI-MP2 g-tensors                              
  Willem Van den Heuvel  : Paramagnetic NMR                              
  Zikuan Wang            : NOTCH, Electric field optimization            
  Frank Wennmohs         : Technical directorship and infrastructure     
  Hang Xu                : AUTO-CI-Response properties                   
                                                                         
[FACCTs GmbH]                                                            
  Markus Bursch, Nicolas Foglia, Miquel Garcia-Rates, Ingolf Harden, Hagen Neugebauer, Anastasios Papadopoulos, 
  Christoph Riplinger, Bernardo de Souza, Georgi L. Stoychev                                                    
                                                                 
  APM, various basis sets, CI-OPT, improved COSX, DLPNO-Multilevel,           
  DOCKER, DRACO, updates on ESD, Fragmentator, GOAT, IRC, LR-CPCM, L-BFGS, MBIS, meta-GGA TD-DFT gradient, ML-optimized integration grids, 
  MM, NACMEs, nearIR, NEB, NEB-TS, NL-DFT gradient (VV10), 2- and 3-layer-ONIOM, interface openCOSMO-RS, QMMM,   
  Crystal-QMMM, RESP, rigid body optimization, SF, symmetry and pop. for TD-DFT, various functionals, SOLVATOR                                   
                                                                         
[Other institutions]                                                     
  V. Asgeirsson          : NEB                                           
  Christoph Bannwarth    : sTDA-DFT, sTD-DFT, PBEh-3c, B97-3c, D3        
  Giovanni Bistoni       : ETS/NOCV, ADLD/ADEX, COVALED                  
  Martin Brehm           : Molecular dynamics                            
  Ronald Cardenas        : ETS/NOCV                                      
  Martina Colucci        : COVALED                                       
  Sebastian Ehlert       : rSCAN, r2SCAN, r2SCAN-3c, D4, dhf basis sets  
  Marvin Friede          : D4 for Fr, Ra, Ac-Lr                          
  Lars Goerigk           : TD-DFT with DH, B97 family of functionals     
  Stefan Grimme          : VdW corrections, initial TS optimization, DFT functionals, gCP, sTDA/sTD-DF 
  Waldemar Hujo          : DFT-NL                                        
  H. Jonsson             : NEB                                           
  Holger Kruse           : gCP                                           
  Marcel Mueller         : wB97X-3c, vDZP basis set                      
  Hagen Neugebauer       : wr2SCAN, Native XTB                           
  Gianluca Regni         : ADLD/ADEX                                     
  Tobias Risthaus        : pre 6.0 range-separated hybrid DFT and stability analysis
  Lukas Wittmann         : regularized MP2, r2SCAN double-hybrids, wr2SCAN        
                                                                         
We gratefully acknowledge several colleagues who have allowed us to      
interface, adapt or use parts of their codes:                            
  Ed Valeev, F. Pavosevic, A. Kumar             : LibInt (2-el integral package), F12 methods 
  Garnet Chan, S. Sharma, J. Yang, R. Olivares  : DMRG                   
  Ulf Ekstrom                                   : XCFun DFT Library      
  Mihaly Kallay                                 : mrcc  (arbitrary order and MRCC methods)
  Frank Weinhold                                : gennbo (NPA and NBO analysis)           
  Simon Mueller                                 : openCOSMO-RS                            
  Christopher J. Cramer and Donald G. Truhlar   : smd solvation model                     
  S Lehtola, MJT Oliveira, MAL Marques          : LibXC Library                           
  Liviu Ungur et al                             : ANISO software                          


 Your calculation uses the libint2 library for the computation of 2-el integrals
 For citations please refer to: http://libint.valeyev.net

 Your ORCA version has been built with support for libXC version: 7.0.0
 For citations please refer to: https://libxc.gitlab.io

 This ORCA versions uses:
   CBLAS   interface :  Fast vector & matrix operations
   LAPACKE interface :  Fast linear algebra routines
   SCALAPACK package :  Parallel linear algebra routines
   Shared memory     :  Shared parallel matrices
   BLAS/LAPACK       :  OpenBLAS 0.3.29  USE64BITINT DYNAMIC_ARCH NO_AFFINITY Cooperlake SINGLE_THREADED
        Core in use  :  Cooperlake
   Copyright (c) 2011-2014, The OpenBLAS Project


  ***********************************
  * Starting time: Wed May 20 12:38:04 2026
  * Host name:     c1-46
  * Process ID:    3963970
  * Working dir.:  /cluster/projects/nn14654k/ylvaos/basis_set_n_funcs/functionals/pbe/PCl/out
  ***********************************

================================================================================

----- Orbital basis set information -----
Your calculation utilizes the basis: pcseg-0
   F. Jensen, J. Chem. Theory Comput. 10, 1074 (2014).

================================================================================
                                        WARNINGS
                       Please study these warnings very carefully!
================================================================================


WARNING: your system is open-shell and RHF/RKS was chosen
  ===> : WILL SWITCH to UHF/UKS


================================================================================
                                       INPUT FILE
================================================================================
NAME = /cluster/projects/nn14654k/ylvaos/basis_set_n_funcs/functionals/pbe/PCl/inp/PCl_pbe_pcseg0.inp
|  1> ! dft pcseg-0 TightSCF
|  2> %pal nprocs 8 end
|  3> 
|  4> %loc
|  5>   LocMet NewBoys
|  6>   Occ true
|  7> end
|  8> 
|  9> %method
| 10>   
| 11>   functional pbe
| 12> end
| 13> 
| 14> %elprop
| 15>   Dipole true
| 16>   Quadrupole true
| 17> end
| 18> 
| 19> * xyz 0 3
| 20> P    0.000000000000   0.000000000000  -1.008800000000
| 21> Cl    0.000000000000   0.000000000000   1.008800000000
| 22> *
| 23> 
| 24> 
| 25>                          ****END OF INPUT****
================================================================================

                       ****************************
                       * Single Point Calculation *
                       ****************************

---------------------------------
CARTESIAN COORDINATES (ANGSTROEM)
---------------------------------
  P      0.000000    0.000000   -1.008800
  Cl     0.000000    0.000000    1.008800

----------------------------
CARTESIAN COORDINATES (A.U.)
----------------------------
  NO LB      ZA    FRAG     MASS         X           Y           Z
   0 P    15.0000    0    30.974    0.000000    0.000000   -1.906356
   1 Cl   17.0000    0    35.453    0.000000    0.000000    1.906356

--------------------------------
INTERNAL COORDINATES (ANGSTROEM)
--------------------------------
 P      0   0   0     0.000000000000     0.00000000     0.00000000
 Cl     1   0   0     2.017600000000     0.00000000     0.00000000

---------------------------
INTERNAL COORDINATES (A.U.)
---------------------------
 P      0   0   0     0.000000000000     0.00000000     0.00000000
 Cl     1   0   0     3.812711447800     0.00000000     0.00000000

---------------------
BASIS SET INFORMATION
---------------------
There are 2 groups of distinct atoms

 Group   1 Type P   : 9s6p contracted to 4s3p pattern {5211/411}
 Group   2 Type Cl  : 9s6p contracted to 4s3p pattern {5211/411}

Atom   0P    basis set group =>   1
Atom   1Cl   basis set group =>   2


           ************************************************************
           *        Program running with 8 parallel MPI-processes     *
           *              working on a common directory               *
           ************************************************************
------------------------------------------------------------------------------
                             ORCA STARTUP CALCULATIONS
------------------------------------------------------------------------------
------------------------------------------------------------------------------
                   ___                                                        
                  /   \      - P O W E R E D   B Y -                         
                 /     \                                                     
                 |  |  |   _    _      __       _____    __    __             
                 |  |  |  | |  | |    /  \     |  _  \  |  |  /  |          
                  \  \/   | |  | |   /    \    | | | |  |  | /  /          
                 / \  \   | |__| |  /  /\  \   | |_| |  |  |/  /          
                |  |  |   |  __  | /  /__\  \  |    /   |      \           
                |  |  |   | |  | | |   __   |  |    \   |  |\   \          
                \     /   | |  | | |  |  |  |  | |\  \  |  | \   \       
                 \___/    |_|  |_| |__|  |__|  |_| \__\ |__|  \__/        
                                                                              
                      - O R C A' S   B I G   F R I E N D -                    
                                      &                                       
                       - I N T E G R A L  F E E D E R -                       
                                                                              
 v1 FN, 2020, v2 2021, v3 2022-2024                                           
------------------------------------------------------------------------------


----------------------
SHARK INTEGRAL PACKAGE
----------------------

Number of atoms                             ...      2
Number of basis functions                   ...     26
Number of shells                            ...     14
Maximum angular momentum                    ...      1
Integral batch strategy                     ... SHARK/LIBINT Hybrid
RI-J (if used) integral strategy            ... SPLIT-RIJ (Revised 2003 algorithm where possible)
Printlevel                                  ...      1
Contraction scheme used                     ... SEGMENTED contraction
Prescreening option                         ... SCHWARTZ
   Thresh                                   ... 2.500e-11
   Tcut                                     ... 2.500e-12
   Tpresel                                  ... 2.500e-12 
Coulomb Range Separation                    ... NOT USED
Exchange Range Separation                   ... NOT USED
Multipole approximations                    ... NOT USED
Finite Nucleus Model                        ... NOT USED
CABS basis                                  ... NOT available
Auxiliary Coulomb fitting basis             ... NOT available
Auxiliary J/K fitting basis                 ... NOT available
Auxiliary Correlation fitting basis         ... NOT available
Auxiliary 'external' fitting basis          ... NOT available

Checking pre-screening integrals            ... done (  0.0 sec) Dimension = 14
   => SHARK Basis and OBASIS are compatible. Storing Pre-screening
Shell pair information
Shell pair cut-off parameter TPreSel        ...   2.5e-12
Total number of shell pairs                 ...       105
Shell pairs after pre-screening             ...       102
Total number of primitive shell pairs       ...       499
Primitive shell pairs kept                  ...       404
          la=0 lb=0:     35 shell pairs
          la=1 lb=0:     46 shell pairs
          la=1 lb=1:     21 shell pairs

Checking whether 4 symmetric matrices of dimension 26 fit in memory
:Max Core in MB      =   4096.00
 MB in use           =      0.89
 MB left             =   4095.11
 MB needed           =      0.01
 Data fit in memory  = YES
Calculating Nuclear repulsion               ... done (  0.0 sec) ENN=     66.881536536727 Eh

Diagonalization of the overlap matrix:
Smallest eigenvalue                        ... 5.031e-02
Time for diagonalization                   ...    0.000 sec
Threshold for overlap eigenvalues          ... 1.000e-07
Number of eigenvalues below threshold      ... 0
Time for construction of square roots      ...    0.002 sec
Total time needed                          ...    0.004 sec

-------------------
DFT GRID GENERATION
-------------------

General Integration Accuracy     IntAcc      ... 4.388
Radial Grid Type                 RadialGrid  ... OptM3 with GC (2021)
Angular Grid (max. ang.)         AngularGrid ... 4 (Lebedev-302)
Angular grid pruning method      GridPruning ... 4 (adaptive)
Weight generation scheme         WeightScheme... mBecke (2022)
Basis function cutoff            BFCut       ... 1.0000e-11
Integration weight cutoff        WCut        ... 1.0000e-14
Partially contracted basis set               ... off
Rotationally invariant grid construction     ... off
Angular grids for H and He will be reduced by one unit

Total number of grid points                  ...    14722
Total number of batches                      ...      231
Average number of points per batch           ...       63
Average number of grid points per atom       ...     7361
Grids setup in   0.1 sec
Initializing property integral containers    ... done (  0.0 sec)

SHARK setup successfully completed in   0.1 seconds

Maximum memory used throughout the entire STARTUP-calculation: 4.8 MB


           ************************************************************
           *        Program running with 8 parallel MPI-processes     *
           *              working on a common directory               *
           ************************************************************
-------------------------------------------------------------------------------
                                 ORCA GUESS
                   Start orbitals & Density for SCF / CASSCF
-------------------------------------------------------------------------------

------------
SCF SETTINGS
------------
Hamiltonian:
 Density Functional     Method          .... DFT(GTOs)
 Exchange Functional    Exchange        .... PBE
   PBE kappa parameter   XKappa         ....  0.804000
   PBE mue parameter    XMuePBE         ....  0.219520
 Correlation Functional Correlation     .... PBE
   PBE beta parameter  CBetaPBE         ....  0.066725
 LDA part of GGA corr.  LDAOpt          .... PW91-LDA
 Gradients option       PostSCFGGA      .... off
   NL short-range parameter             ....  6.400000


General Settings:
 Integral files         IntName         .... /cluster/projects/nn14654k/ylvaos/basis_set_n_funcs/functionals/pbe/PCl/inp/PCl_pbe_pcseg0
 Hartree-Fock type      HFTyp           .... UHF
 Total Charge           Charge          ....    0
 Multiplicity           Mult            ....    3
 Number of Electrons    NEL             ....   32
 Basis Dimension        Dim             ....   26
 Nuclear Repulsion      ENuc            ....     66.8815365367 Eh

Convergence Acceleration:
 AO-DIIS                CNVDIIS         .... on
   Start iteration      DIISMaxIt       ....    12
   Startup error        DIISStart       ....  0.200000
   # of expansion vecs  DIISMaxEq       ....     5
   Bias factor          DIISBfac        ....   1.050
   Max. coefficient     DIISMaxC        ....  10.000
 MO-DIIS                CNVKDIIS        .... off
 Trust-Rad. Augm. Hess. CNVTRAH         .... auto
   Auto Start mean grad. ratio tolernc. ....  1.125000
   Auto Start start iteration           ....    50
   Auto Start num. interpolation iter.  ....    10
   Max. Number of Micro iterations      ....    24
   Max. Number of Macro iterations      .... Maxiter - #DIIS iter
   Number of Davidson start vectors     ....     2
   Converg. threshold    (grad. norm)   ....   1.000e-05
   Grad. Scal. Fac. for Micro threshold ....   0.100
   Minimum threshold for Micro iter.    ....   1.000e-02
   NR start threshold (gradient norm)   ....   1.000e-04
   Initial trust radius                 ....   0.400
   Minimum AH scaling param. (alpha)    ....   1.000
   Maximum AH scaling param. (alpha)    .... 1000.000
   Quad. conv. algorithm                .... NR
   White noise on init. David. guess    .... on
   Maximum white noise                  ....   0.010
   Pseudo random numbers                .... off
   Inactive MOs                         .... canonical
   Orbital update algorithm             .... Taylor
   Preconditioner                       .... Diag
   Full preconditioner red. dimension   ....   250
 SOSCF                 CNVSOSCF           .... on
   Start iteration     SOSCFMaxIt         ....   150
   Startup grad/error  SOSCFStart         ....  0.003300
   Hessian update      SOSCFHessUp        .... L-BFGS
   Autom. constraints  SOSCFAutoConstrain .... off
 Level Shifting         CNVShift        .... on
   Level shift para.    LevelShift      ....    0.2500
   Turn off err/grad.   ShiftErr        ....    0.0010
 Zerner damping         CNVZerner       .... off
 Static damping         CNVDamp         .... on
   Fraction old density DampFac         ....    0.7000
   Max. Damping (<1)    DampMax         ....    0.9800
   Min. Damping (>=0)   DampMin         ....    0.0000
   Turn off err/grad.   DampErr         ....    0.1000

SCF Procedure:
 Maximum # iterations   MaxIter         ....   125
 SCF integral mode      SCFMode         .... Direct
   Integral package                     .... SHARK and LIBINT hybrid scheme
 Reset frequency        DirectResetFreq ....    20
 Integral Threshold     Thresh          ....  2.500e-11 Eh
 Primitive CutOff       TCut            ....  2.500e-12 Eh

Convergence Tolerance:
 Convergence Check Mode ConvCheckMode   .... Total+1el-Energy
 Convergence forced     ConvForced      .... 0
 Energy Change          TolE            ....  1.000e-08 Eh
 1-El. energy change                    ....  1.000e-05 Eh
 Orbital Gradient       TolG            ....  1.000e-05
 Orbital Rotation angle TolX            ....  1.000e-05
 DIIS Error             TolErr          ....  5.000e-07

------------------------------
INITIAL GUESS: MODEL POTENTIAL
------------------------------
Loading Hartree-Fock densities                     ... done
Calculating cut-offs                               ... done
Initializing the effective Hamiltonian             ... done
Setting up the integral package (SHARK)            ... done
Starting the Coulomb interaction                   ... done (   0.0 sec)
Making the grid                                    ... done (   0.0 sec)
Mapping shells                                     ... done
Starting the XC term evaluation                    ... done (   0.0 sec)
  promolecular density results
     # of electrons  =     32.000073329
     EX              =    -49.847425110
     EC              =     -1.224318430
     EX+EC           =    -51.071743539
Transforming the Hamiltonian                       ... done (   0.0 sec)
Diagonalizing the Hamiltonian                      ... done (   0.0 sec)
Back transforming the eigenvectors                 ... done (   0.0 sec)
Now organizing SCF variables                       ... done
                      ------------------
                      INITIAL GUESS DONE (   0.1 sec)
                      ------------------
             **** ENERGY FILE WAS UPDATED (/cluster/projects/nn14654k/ylvaos/basis_set_n_funcs/functionals/pbe/PCl/inp/PCl_pbe_pcseg0.en.tmp) ****
Finished Guess after   0.1 sec
Maximum memory used throughout the entire GUESS-calculation: 2.2 MB


           ************************************************************
           *        Program running with 8 parallel MPI-processes     *
           *              working on a common directory               *
           ************************************************************

-------------------------------------------------------------------------------------------
                                      ORCA LEAN-SCF
                              memory conserving SCF solver
-------------------------------------------------------------------------------------------

----------------------------------------D-I-I-S--------------------------------------------
Iteration    Energy (Eh)           Delta-E    RMSDP     MaxDP     DIISErr   Damp  Time(sec)
-------------------------------------------------------------------------------------------
               ***  Starting incremental Fock matrix formation  ***
    1    -800.2082590654414389     0.00e+00  4.56e-03  1.37e-02  2.70e-02  0.700   0.1
    2    -800.2104915833361929    -2.23e-03  3.59e-03  1.02e-02  1.67e-02  0.700   0.1
                               ***Turning on AO-DIIS***
    3    -800.2115771961641713    -1.09e-03  1.92e-03  5.77e-03  9.41e-03  0.700   0.1
    4    -800.2122444294496972    -6.67e-04  4.03e-03  1.28e-02  6.11e-03  0.000   0.1
                              *** Initializing SOSCF ***
---------------------------------------S-O-S-C-F--------------------------------------
Iteration    Energy (Eh)           Delta-E    RMSDP     MaxDP     MaxGrad    Time(sec)
--------------------------------------------------------------------------------------
    5    -800.2136732676858628    -1.43e-03  7.13e-04  1.61e-03  1.33e-03     0.2
               *** Restarting incremental Fock matrix formation ***
    6    -800.2136934852231889    -2.02e-05  4.87e-04  1.44e-03  5.53e-04     0.1
    7    -800.2136962217165319    -2.74e-06  1.53e-04  3.73e-04  2.31e-04     0.1
    8    -800.2136962621837029    -4.05e-08  7.73e-05  1.99e-04  1.84e-04     0.1
    9    -800.2136964549588356    -1.93e-07  4.95e-05  1.37e-04  9.56e-05     0.1
   10    -800.2136964911769610    -3.62e-08  1.32e-05  3.28e-05  2.54e-05     0.1
   11    -800.2136964943737212    -3.20e-09  1.03e-06  2.97e-06  2.07e-06     0.1
                 **** Energy Check signals convergence ****

               *****************************************************
               *                     SUCCESS                       *
               *           SCF CONVERGED AFTER  11 CYCLES          *
               *****************************************************

             **** ENERGY FILE WAS UPDATED (/cluster/projects/nn14654k/ylvaos/basis_set_n_funcs/functionals/pbe/PCl/inp/PCl_pbe_pcseg0.en.tmp) ****

----------------
TOTAL SCF ENERGY
----------------

Total Energy       :       -800.21369649446547 Eh          -21774.92170 eV

Components:
Nuclear Repulsion  :         66.88153653672681 Eh            1819.93913 eV
Electronic Energy  :       -867.09523303119227 Eh          -23594.86083 eV
One Electron Energy:      -1238.42373364183891 Eh          -33699.22303 eV
Two Electron Energy:        371.32850061064670 Eh           10104.36220 eV

Virial components:
Potential Energy   :      -1600.00126409147651 Eh          -43538.24784 eV
Kinetic Energy     :        799.78756759701093 Eh           21763.32614 eV
Virial Ratio       :          2.00053280260249

DFT components:
N(Alpha)           :       16.999999010641 electrons
N(Beta)            :       14.999999028834 electrons
N(Total)           :       31.999998039475 electrons
E(X)               :      -49.822467554260 Eh       
E(C)               :       -1.210802328557 Eh       
E(XC)              :      -51.033269882817 Eh       

---------------
SCF CONVERGENCE
---------------

  Last Energy change         ...    3.1968e-09  Tolerance :   1.0000e-08
  Last MAX-Density change    ...    2.9750e-06  Tolerance :   1.0000e-07
  Last RMS-Density change    ...    1.0305e-06  Tolerance :   5.0000e-09
  Last DIIS Error            ...    1.3300e-03  Tolerance :   5.0000e-07
  Last Orbital Gradient      ...    2.0698e-06  Tolerance :   1.0000e-05
  Last Orbital Rotation      ...    5.2730e-06  Tolerance :   1.0000e-05


----------------------
UHF SPIN CONTAMINATION
----------------------

Warning: in a DFT calculation there is little theoretical justification to 
         calculate <S**2> as in Hartree-Fock theory. We will do it anyways
         but you should keep in mind that the values have only limited relevance

Expectation value of <S**2>     :     2.001523
Ideal value S*(S+1) for S=1.0   :     2.000000
Deviation                       :     0.001523

----------------
ORBITAL ENERGIES
----------------
                 SPIN UP ORBITALS
  NO   OCC          E(Eh)            E(eV) 
   0   1.0000    -100.656304     -2738.9973 
   1   1.0000     -76.331761     -2077.0928 
   2   1.0000      -9.099648      -247.6140 
   3   1.0000      -7.050634      -191.8575 
   4   1.0000      -7.040461      -191.5807 
   5   1.0000      -7.040461      -191.5807 
   6   1.0000      -6.287536      -171.0926 
   7   1.0000      -4.600062      -125.1741 
   8   1.0000      -4.596178      -125.0684 
   9   1.0000      -4.596178      -125.0684 
  10   1.0000      -0.813453       -22.1352 
  11   1.0000      -0.541725       -14.7411 
  12   1.0000      -0.357218        -9.7204 
  13   1.0000      -0.346606        -9.4316 
  14   1.0000      -0.346606        -9.4316 
  15   1.0000      -0.211642        -5.7591 
  16   1.0000      -0.211642        -5.7591 
  17   0.0000      -0.064732        -1.7614 
  18   0.0000       0.220042         5.9876 
  19   0.0000       0.516921        14.0661 
  20   0.0000       0.628218        17.0947 
  21   0.0000       0.628218        17.0947 
  22   0.0000       0.635777        17.3004 
  23   0.0000       0.897543        24.4234 
  24   0.0000       0.897543        24.4234 
  25   0.0000       1.014788        27.6138 

                 SPIN DOWN ORBITALS
  NO   OCC          E(Eh)            E(eV) 
   0   1.0000    -100.654582     -2738.9504 
   1   1.0000     -76.324541     -2076.8964 
   2   1.0000      -9.098101      -247.5719 
   3   1.0000      -7.049939      -191.8386 
   4   1.0000      -7.037486      -191.4997 
   5   1.0000      -7.037486      -191.4997 
   6   1.0000      -6.280045      -170.8887 
   7   1.0000      -4.595271      -125.0437 
   8   1.0000      -4.583390      -124.7204 
   9   1.0000      -4.583390      -124.7204 
  10   1.0000      -0.801367       -21.8063 
  11   1.0000      -0.500290       -13.6136 
  12   1.0000      -0.332752        -9.0546 
  13   1.0000      -0.328216        -8.9312 
  14   1.0000      -0.328216        -8.9312 
  15   0.0000      -0.148235        -4.0337 
  16   0.0000      -0.148235        -4.0337 
  17   0.0000      -0.038173        -1.0387 
  18   0.0000       0.257112         6.9964 
  19   0.0000       0.526435        14.3250 
  20   0.0000       0.658340        17.9144 
  21   0.0000       0.682189        18.5633 
  22   0.0000       0.682189        18.5633 
  23   0.0000       0.908031        24.7088 
  24   0.0000       0.908031        24.7088 
  25   0.0000       1.018979        27.7278 
*Only the first 10 virtual orbitals were printed.

                    ********************************
                    * MULLIKEN POPULATION ANALYSIS *
                    ********************************

--------------------------------------------
MULLIKEN ATOMIC CHARGES AND SPIN POPULATIONS
--------------------------------------------
   0 P :    0.217284    1.801700
   1 Cl:   -0.217284    0.198300
Sum of atomic charges         :    0.0000000
Sum of atomic spin populations:    2.0000000

-----------------------------------------------------
MULLIKEN REDUCED ORBITAL CHARGES AND SPIN POPULATIONS
-----------------------------------------------------
CHARGE
  0 P s       :     5.954999  s :     5.954999
      pz      :     2.584579  p :     8.827718
      px      :     3.121569
      py      :     3.121569

  1 Cls       :     6.003082  s :     6.003082
      pz      :     3.457340  p :    11.214201
      px      :     3.878431
      py      :     3.878431


SPIN
  0 P s       :     0.024762  s :     0.024762
      pz      :     0.015978  p :     1.776938
      px      :     0.880480
      py      :     0.880480

  1 Cls       :    -0.002503  s :    -0.002503
      pz      :    -0.038237  p :     0.200804
      px      :     0.119520
      py      :     0.119520



                     *******************************
                     * LOEWDIN POPULATION ANALYSIS *
                     *******************************

-------------------------------------------
LOEWDIN ATOMIC CHARGES AND SPIN POPULATIONS
-------------------------------------------
   0 P :    0.088287    1.769593
   1 Cl:   -0.088287    0.230407

----------------------------------------------------
LOEWDIN REDUCED ORBITAL CHARGES AND SPIN POPULATIONS
----------------------------------------------------
CHARGE
  0 P s       :     5.914646  s :     5.914646
      pz      :     2.743125  p :     8.997067
      px      :     3.126971
      py      :     3.126971

  1 Cls       :     5.899139  s :     5.899139
      pz      :     3.443090  p :    11.189148
      px      :     3.873029
      py      :     3.873029


SPIN
  0 P s       :     0.011352  s :     0.011352
      pz      :     0.013760  p :     1.758240
      px      :     0.872240
      py      :     0.872240

  1 Cls       :     0.001770  s :     0.001770
      pz      :    -0.026883  p :     0.228637
      px      :     0.127760
      py      :     0.127760



                      *****************************
                      * MAYER POPULATION ANALYSIS *
                      *****************************

  NA   - Mulliken gross atomic population
  ZA   - Total nuclear charge
  QA   - Mulliken gross atomic charge
  VA   - Mayer's total valence
  BVA  - Mayer's bonded valence
  FA   - Mayer's free valence

  ATOM       NA         ZA         QA         VA         BVA        FA
  0 P     14.7827    15.0000     0.2173     2.6949     1.1401     1.5547
  1 Cl    17.2173    17.0000    -0.2173     1.1713     1.1401     0.0312

  Mayer bond orders larger than 0.100000
B(  0-P ,  1-Cl) :   1.1401 

-------
TIMINGS
-------

Total SCF time: 0 days 0 hours 0 min 1 sec 

Total time                  ....       1.365 sec
Sum of individual times     ....       1.276 sec  ( 93.5%)

SCF preparation             ....       0.071 sec  (  5.2%)
Fock matrix formation       ....       0.676 sec  ( 49.5%)
  Startup                   ....       0.028 sec  (  4.1% of F)
  Coulomb formation         ....       0.015 sec  (  2.2% of F)
  XC integration            ....       0.295 sec  ( 43.6% of F)
    Basis function eval.    ....       0.010 sec  (  3.3% of XC)
    Density eval.           ....       0.005 sec  (  1.7% of XC)
    XC-Functional eval.     ....       0.010 sec  (  3.3% of XC)
    XC-Potential eval.      ....       0.007 sec  (  2.2% of XC)
Diagonalization             ....       0.000 sec  (  0.0%)
Density matrix formation    ....       0.138 sec  ( 10.1%)
Total Energy calculation    ....       0.027 sec  (  2.0%)
Population analysis         ....       0.020 sec  (  1.5%)
Orbital Transformation      ....       0.035 sec  (  2.5%)
Orbital Orthonormalization  ....       0.000 sec  (  0.0%)
DIIS solution               ....       0.196 sec  ( 14.3%)
SOSCF solution              ....       0.114 sec  (  8.3%)
Finished LeanSCF after   1.4 sec

Maximum memory used throughout the entire LEANSCF-calculation: 4.4 MB


           ************************************************************
           *        Program running with 8 parallel MPI-processes     *
           *              working on a common directory               *
           ************************************************************

------------------------------------------------------------------------------
                         ORCA PROPERTY INTEGRAL CALCULATIONS
------------------------------------------------------------------------------

GBWName                                   ... /cluster/projects/nn14654k/ylvaos/basis_set_n_funcs/functionals/pbe/PCl/inp/PCl_pbe_pcseg0.gbw
Number of atoms                           ...      2
Number of basis functions                 ...     26
Max core memory                           ...   4096 MB

Dipole integrals                          ... YES
Quadrupole integrals                      ... YES
Linear momentum integrals                 ...  NO
Angular momentum integrals                ...  NO
Higher moments length integrals           ...  NO
Higher moments velocity integrals         ...  NO
Kinetic energy integrals                  ...  NO
GIAO right hand sides                     ...  NO
GIAO dipole derivative integrals          ...  NO
SOC integrals                             ...  NO
EPR diamagnetic integrals (GIAO)          ...  NO
EPR gauge integrals                       ...  NO
Field gradient integrals                  ...  NO (   0 nuclei)
Spin-dipole/Fermi contact integrals       ...  NO (   0 nuclei)
Contact density integrals                 ...  NO (   0 nuclei)
Nucleus-orbit integrals                   ...  NO (   0 nuclei)
Geometric perturbations                   ...  NO (   2 nuclei)

Choice of electric origin   ... Center of mass
Position of electric origin ... (  0.0000,  0.0000,  0.1285) 
Choice of magnetic origin   ... GIAO
Position of magnetic origin ... (  0.0000,  0.0000,  0.0000) 

Calculating integrals                     ... Electric Dipole (Length)     done (  0.0 sec)
Calculating integrals                     ... Electric Quadrupole (Length) done (  0.0 sec)

Property integrals calculated in   0.0 sec

Maximum memory used throughout the entire PROPINT-calculation: 2.3 MB
------------------------------------------------------------------------------
                           ORCA ORBITAL LOCALIZATION
------------------------------------------------------------------------------

Input orbitals are from                  ... /cluster/projects/nn14654k/ylvaos/basis_set_n_funcs/functionals/pbe/PCl/inp/PCl_pbe_pcseg0.gbw
Output orbitals are to                   ... /cluster/projects/nn14654k/ylvaos/basis_set_n_funcs/functionals/pbe/PCl/inp/PCl_pbe_pcseg0.loc
Max. number of iterations                ... 128
Localizations seeded randomly            ... on
Convergence tolerance                    ... 1.000e-06
Threshold for strong local MOs           ... 9.500e-01
Threshold for bond MOs                   ... 8.500e-01
Operator                                 ... 0
Orbital range for localization           ... 7 to 16
Localization criterion                   ... NEW-BOYS
Doing the dipole integrals               ... o.k.
Initial value of the localization sum :    35.801023
ITERATION   0 : L=   44.3034214658 DL=  8.50e+00 (AVERGE_DL)=    0.4346748051 
ITERATION   1 : L=   44.8518577006 DL=  5.48e-01 (AVERGE_DL)=    0.1103968835 
ITERATION   2 : L=   44.8626155175 DL=  1.08e-02 (AVERGE_DL)=    0.0154616492 
ITERATION   3 : L=   44.8628402868 DL=  2.25e-04 (AVERGE_DL)=    0.0022349216 
ITERATION   4 : L=   44.8628457845 DL=  5.50e-06 (AVERGE_DL)=    0.0003495283 
ITERATION   5 : L=   44.8628459063 DL=  1.22e-07 (AVERGE_DL)=    0.0000520262 
LOCALIZATION SUM CONVERGED


--------------------------------------------------------------------------------
                    LOCALIZED MOLECULAR ORBITAL COMPOSITIONS
--------------------------------------------------------------------------------

The Mulliken populations for each LMO on each atom are computed
The LMO`s will be ordered according to atom index and type
  (A) Strongly localized MO`s have populations of >=0.950 on one atom
  (B) Two center bond orbitals have populations of >=0.850 on two atoms
  (C) Other MO`s are considered to be `delocalized`

FOUND  -   9 strongly local MO`s
       -   1 two center bond MO`s
       -   0 significantly delocalized MO`s

Rather strongly localized orbitals:
MO  15:   1Cl -   1.009660
MO  14:   1Cl -   1.009660
MO  13:   1Cl -   1.009660
MO  12:   0P  -   1.013310
MO  11:   0P  -   1.013309
MO  10:   0P  -   1.000073
MO   9:   0P  -   1.000073
MO   8:   0P  -   1.000073
MO   7:   0P  -   1.013310
Bond-like localized orbitals:
MO  16:   1Cl -   0.719184  and   0P  -   0.280816
Localized MO's were stored in: /cluster/projects/nn14654k/ylvaos/basis_set_n_funcs/functionals/pbe/PCl/inp/PCl_pbe_pcseg0.loc
------------------------------------------------------------------------------
                           ORCA ORBITAL LOCALIZATION
------------------------------------------------------------------------------

Input orbitals are from                  ... /cluster/projects/nn14654k/ylvaos/basis_set_n_funcs/functionals/pbe/PCl/inp/PCl_pbe_pcseg0.loc
Output orbitals are to                   ... /cluster/projects/nn14654k/ylvaos/basis_set_n_funcs/functionals/pbe/PCl/inp/PCl_pbe_pcseg0.loc
Max. number of iterations                ... 128
Localizations seeded randomly            ... on
Convergence tolerance                    ... 1.000e-06
Threshold for strong local MOs           ... 9.500e-01
Threshold for bond MOs                   ... 8.500e-01
Operator                                 ... 1
Orbital range for localization           ... 7 to 14
Localization criterion                   ... NEW-BOYS
Doing the dipole integrals               ... o.k.
Initial value of the localization sum :    24.784749
ITERATION   0 : L=   29.2576611580 DL=  4.47e+00 (AVERGE_DL)=    0.3996834634 
ITERATION   1 : L=   29.6264348610 DL=  3.69e-01 (AVERGE_DL)=    0.1147627526 
ITERATION   2 : L=   29.6456420689 DL=  1.92e-02 (AVERGE_DL)=    0.0261910617 
ITERATION   3 : L=   29.6481730178 DL=  2.53e-03 (AVERGE_DL)=    0.0095074198 
ITERATION   4 : L=   29.6496593773 DL=  1.49e-03 (AVERGE_DL)=    0.0072858953 
ITERATION   5 : L=   29.6503511806 DL=  6.92e-04 (AVERGE_DL)=    0.0049706398 
ITERATION   6 : L=   29.6507004107 DL=  3.49e-04 (AVERGE_DL)=    0.0035316432 
ITERATION   7 : L=   29.6508735277 DL=  1.73e-04 (AVERGE_DL)=    0.0024865135 
ITERATION   8 : L=   29.6509604506 DL=  8.69e-05 (AVERGE_DL)=    0.0017619281 
ITERATION   9 : L=   29.6510044261 DL=  4.40e-05 (AVERGE_DL)=    0.0012532179 
ITERATION  10 : L=   29.6510269521 DL=  2.25e-05 (AVERGE_DL)=    0.0008969387 
ITERATION  11 : L=   29.6510386550 DL=  1.17e-05 (AVERGE_DL)=    0.0006464979 
ITERATION  12 : L=   29.6510448318 DL=  6.18e-06 (AVERGE_DL)=    0.0004696796 
ITERATION  13 : L=   29.6510481449 DL=  3.31e-06 (AVERGE_DL)=    0.0003439860 
ITERATION  14 : L=   29.6510499504 DL=  1.81e-06 (AVERGE_DL)=    0.0002539372 
ITERATION  15 : L=   29.6510509478 DL=  9.97e-07 (AVERGE_DL)=    0.0001887349 
LOCALIZATION SUM CONVERGED


--------------------------------------------------------------------------------
                    LOCALIZED MOLECULAR ORBITAL COMPOSITIONS
--------------------------------------------------------------------------------

The Mulliken populations for each LMO on each atom are computed
The LMO`s will be ordered according to atom index and type
  (A) Strongly localized MO`s have populations of >=0.950 on one atom
  (B) Two center bond orbitals have populations of >=0.850 on two atoms
  (C) Other MO`s are considered to be `delocalized`

FOUND  -   4 strongly local MO`s
       -   4 two center bond MO`s
       -   0 significantly delocalized MO`s

Rather strongly localized orbitals:
MO  10:   0P  -   1.002782
MO   9:   0P  -   1.000382
MO   8:   0P  -   1.000382
MO   7:   0P  -   1.000382
Bond-like localized orbitals:
MO  14:   1Cl -   0.741174  and   0P  -   0.258826
MO  13:   1Cl -   0.924077  and   0P  -   0.075923
MO  12:   1Cl -   0.924246  and   0P  -   0.075754
MO  11:   1Cl -   0.924113  and   0P  -   0.075887
Localized MO's were stored in: /cluster/projects/nn14654k/ylvaos/basis_set_n_funcs/functionals/pbe/PCl/inp/PCl_pbe_pcseg0.loc

-------------------------   --------------------
FINAL SINGLE POINT ENERGY      -800.213696494465
-------------------------   --------------------



           ************************************************************
           *        Program running with 8 parallel MPI-processes     *
           *              working on a common directory               *
           ************************************************************

------------------------------------------------------------------------------
                              ORCA PROPERTY CALCULATIONS
------------------------------------------------------------------------------

GBWName                                 ... /cluster/projects/nn14654k/ylvaos/basis_set_n_funcs/functionals/pbe/PCl/inp/PCl_pbe_pcseg0.gbw
Number of atoms                         ...      2
Number of basis functions               ...     26
Max core memory                         ...   4096 MB

Electric properties:
Dipole moment                           ... YES
Quadrupole moment                       ... YES
Static polarizability (Dipole/Dipole)   ...  NO
Static polarizability (Dipole/Quad.)    ...  NO
Static polarizability (Quad./Quad.)     ...  NO
Static polarizability (Velocity)        ...  NO
Static hyperpolarizability              ...  NO

Atomic electric properties:
Dipole moment                           ...  NO
Quadrupole moment                       ...  NO
Static polarizability                   ...  NO

Choice of electric origin               ... Center of mass
Position of electric origin             ...     0.000000     0.000000     0.128541

General magnetic properties:
Magnetizability                         ...  NO

EPR properties:
g-Tensor (aka g-matrix)                 ...  NO
Zero-Field splitting spin-orbit         ...  NO
Zero-field splitting spin-spin          ...  NO
Hyperfine couplings                     ...  NO (   0 nuclei)
Quadrupole couplings                    ...  NO (   0 nuclei)
Contact density                         ...  NO (   0 nuclei)

NMR properties:
Chemical shifts                         ...  NO (   0 nuclei)
Spin-rotation constants                 ...  NO (   0 nuclei)
Spin-spin couplings                     ...  NO (   0 nuclei,    0 pairs)

Choice of magnetic origin               ... GIAO
Position of magnetic origin             ...     0.000000     0.000000     0.000000

Properties with geometric perturbations:
SCF Hessian                             ...  NO
IR spectrum                             ...  NO
VCD spectrum                            ...  NO
X-ray spectroscopy properties:
SCF XES/XAS/RIXS spectra                ...  NO

SCF SOC stabilization energy            ...  NO
Diagonal Born-Oppenheimer correction    ...  NO

-------------
DIPOLE MOMENT
-------------

Method             : SCF
Type of density    : Electron Density
Multiplicity       :   3
Irrep              :   0
Energy             :  -800.2136964944654665 Eh
Basis              : AO
                                X                 Y                 Z
Electronic contribution:     -0.000000000      -0.000000000       0.010198655
Nuclear contribution   :      0.000000000       0.000000000      -0.300588162
                        -----------------------------------------
Total Dipole Moment    :     -0.000000000      -0.000000000      -0.290389507
                        -----------------------------------------
Magnitude (a.u.)       :      0.290389507
Magnitude (Debye)      :      0.738111469



--------------------
Rotational spectrum 
--------------------
 
Rotational constants in cm-1:             0.000000             0.250508             0.250508 
Rotational constants in MHz :             0.000000          7510.026026          7510.026026 

Dipole components along the rotational axes: 
x,y,z [a.u.] :    -0.290390    -0.000000    -0.000000 
x,y,z [Debye]:    -0.738111    -0.000000    -0.000000 

 

Dipole moment calculation done in   0.0 sec 

-----------------
QUADRUPOLE MOMENT
-----------------

Method             : SCF
Type of density    : Electron Density
Multiplicity       :   3
Irrep              :   0
Energy             :  -800.2136964944654665 Eh
Basis              : AO

                XX              YY              ZZ              XY              XZ              YZ
  NUC        0.000000000     0.000000000   115.842698194     0.000000000     0.000000000     0.000000000
  EL       -19.046511506   -19.046511506  -135.380401755     0.000000000    -0.000000000     0.000000001
  TOT      -19.046511506   -19.046511506   -19.537703560     0.000000000    -0.000000000     0.000000001 (a.u.)
           -25.618209367   -25.618209367   -26.278879478     0.000000000    -0.000000000     0.000000001 (Buckingham)

diagonalized tensor:
           -19.537703560   -19.046511506   -19.046511506 (a.u.)
           -26.278879478   -25.618209367   -25.618209367 (Buckingham)
            -1.321340223     0.660670112     0.660670112 (traceless form in Buckingham)

             0.000000000     0.047489202     0.998871751
            -0.000000001    -0.998871751     0.047489202
             1.000000000    -0.000000001    -0.000000000
        
Isotropic quadrupole :   -19.210242191

Quadrupole moment calculation done in   0.0 sec (  0.0 sec for integrals)

Maximum memory used throughout the entire PROP-calculation: 1.0 MB

--------------------------------
SUGGESTED CITATIONS FOR THIS RUN
--------------------------------

Below you find a list of papers that are relevant to this ORCA run
We neither can nor want to force you to cite these papers, but we appreciate if you do
You receive ORCA, which is the product of decades of hard work by many enthusiastic individuals, for free
The only thing we kindly ask in return is that you cite our papers,
We deeply appreciate it, if you show your appreciation for ORCA by not just citing the generic ORCA reference.

Please note that relegating all ORCA citations to the supporting information does *not* help us.
SI sections are not indexed - citations you put there will not count into any citation statistics
But we need these citations in order to attract the funding resources that allow us to do what we are doing

Therefore, if you are a happy ORCA user, please consider citing a few of the papers listed below in the main body of your paper

In addition to the list printed below, the program has created the file /cluster/projects/nn14654k/ylvaos/basis_set_n_funcs/functionals/pbe/PCl/inp/PCl_pbe_pcseg0.bibtex that contains the list in bibtex format
You can import this file easily into all common literature databanks and citation aid programs

It goes without saying that in many instances, there are alternative algorithms to achieve similar
results as the ones you have gotten from ORCA. It is, of course, also the case that in some instances
ORCA just re-implements algorithms worked out by others. We are fully aware of that and we are also
fully appreciative of our colleagues work. Hence this citation list should not be read as indicating
that the listed papers, which are focused on our own work, are the only ones worth citing. It simply
meant to make it easier for users to cite ORCA specific papers. It is not a substitute for doing your
own literature research and citing the relevant literature in a scientifically appropriate manner.

List of essential papers. We consider these as the minimum necessary citations

  1. Neese, F.
     Software update: the ORCA program system, version 6.0
     WIRES Comput. Molec. Sci. 2025 15(1), e70019
     doi.org/10.1002/wcms.70019

List of papers to cite with high priority. The work reported in these papers was absolutely
necessary for this run to complete.
Our perspective: the developers of density functionals and basis sets usually get cited in chemistry papers
Good! But without the algorithms to do something with them, the functionals or basis sets would not do anything.
Hence, in our opinion, the algorithm design and method developments papers are equally worthy of getting cited

  1. Neese, F.
     The SHARK Integral Generation and Digestion System
     J. Comp. Chem. 2022 44(3), 381
     doi.org/10.1002/jcc.26942

List of suggested additional citations. These are papers that are important in the 'surrounding' of 
of this run, or papers that preceded the highly important papers. If you like your results we are grateful for a citation.

  1. Neese, F.
     The ORCA program system
     WIRES Comput. Molec. Sci. 2012 2(1), 73-78
     doi.org/10.1002/wcms.81
  2. Neese, F.
     Software update: the ORCA program system, version 4.0
     WIRES Comput. Molec. Sci. 2018 8(1), 1-6
     doi.org/10.1002/wcms.1327
  3. Neese, F.; Wennmohs, F.; Becker, U.; Riplinger, C.
     The ORCA quantum chemistry program package
     J. Chem. Phys. 2020 152(22), 224108
     doi.org/10.1063/5.0004608
  4. Neese, F.
     Software update: The ORCA program system—Version 5.0
     WIRES Comput. Molec. Sci. 2022 12(1), e1606
     doi.org/10.1002/wcms.1606

List of optional additional citations

  1. Neese, F.
     Approximate second-order SCF convergence for spin unrestricted wavefunctions
     Chem. Phys. Lett. 2000 325(1-3), 93-98
     doi.org/10.1016/s0009-2614(00)00662-x

Timings for individual modules:

Sum of individual times          ...        2.982 sec (=   0.050 min)
Startup calculation              ...        0.442 sec (=   0.007 min)  14.8 %
SCF iterations                   ...        1.992 sec (=   0.033 min)  66.8 %
Property integrals               ...        0.264 sec (=   0.004 min)   8.9 %
Property calculations            ...        0.261 sec (=   0.004 min)   8.8 %
Orbital localization             ...        0.022 sec (=   0.000 min)   0.7 %
                             ****ORCA TERMINATED NORMALLY****
TOTAL RUN TIME: 0 days 0 hours 0 minutes 4 seconds 28 msec
