
                                 *****************
                                 * O   R   C   A *
                                 *****************

                                            #,                                       
                                            ###                                      
                                            ####                                     
                                            #####                                    
                                            ######                                   
                                           ########,                                 
                                     ,,################,,,,,                         
                               ,,#################################,,                 
                          ,,##########################################,,             
                       ,#########################################, ''#####,          
                    ,#############################################,,   '####,        
                  ,##################################################,,,,####,       
                ,###########''''           ''''###############################       
              ,#####''   ,,,,##########,,,,          '''####'''          '####       
            ,##' ,,,,###########################,,,                        '##       
           ' ,,###''''                  '''############,,,                           
         ,,##''                                '''############,,,,        ,,,,,,###''
      ,#''                                            '''#######################'''  
     '                                                          ''''####''''         
             ,#######,   #######,   ,#######,      ##                                
            ,#'     '#,  ##    ##  ,#'     '#,    #''#        ,####,    ,#,          
            ##       ##  ##   ,#'  ##            #'  '#       #'       ,# #          
            ##       ##  #######   ##           ,######,      #####,      #          
            '#,     ,#'  ##    ##  '#,     ,#' ,#      #,     #,   #      #          
             '#######'   ##     ##  '#######'  #'      '#     '####' #    #          



                #########################################################
                #                        -***-                          #
                #          Department of theory and spectroscopy        #
                #                                                       #
                #                      Frank Neese                      #
                #                                                       #
                #     Directorship, Architecture, Infrastructure        #
                #                    SHARK, DRIVERS                     #
                #        Core code/Algorithms in most modules           #
                #                                                       #
                #        Max Planck Institute fuer Kohlenforschung      #
                #                Kaiser Wilhelm Platz 1                 #
                #                 D-45470 Muelheim/Ruhr                 #
                #                      Germany                          #
                #                                                       #
                #                  All rights reserved                  #
                #                        -***-                          #
                #########################################################


                         Program Version 6.1.1  -  RELEASE   -
                                (GIT: $487d211c$)
                          ($2025-11-21 10:33:24 +0100$)


 With contributions from (in alphabetic order):
[Max-Planck-Institut fuer Kohlenforschung]                               
  Daniel Aravena         : Magnetic Suceptibility                        
  Michael Atanasov       : Ab Initio Ligand Field Theory (pilot matlab implementation)
  Alexander A. Auer      : GIAO ZORA, VPT2 properties, NMR spectrum      
  Ute Becker             : All parallelization in ORCA, NUMFREQ, NUMCALC 
  Giovanni Bistoni       : ED, misc. LED, open-shell LED, HFLD           
  Dmytro Bykov           : pre 5.0 version of the SCF Hessian            
  Marcos Casanova-Páez   : Triplet and SCS-CIS(D). UHF-(DLPNO)-IP/EA/STEOM-CCSD. UHF-CVS-IP/STEOM-CCSD   
  Vijay G. Chilkuri      : MRCI spin determinant printing, contributions to CSF-ICE 
  Pauline Colinet        : FMM embedding                                 
  Dipayan Datta          : RHF DLPNO-CCSD density                        
  Achintya Kumar Dutta   : EOM-CC, STEOM-CC                              
  Nicolas Foglia         : Exact transition moments, OPA infrastructure, MCD improvements    
  Dmitry Ganyushin       : Spin-Orbit,Spin-Spin,Magnetic field MRCI      
  Miquel Garcia-Rates    : C-PCM and meta-GGA Hessian, CCSD/C-PCM, Gaussian charge scheme 
  Tiago L. C. Gouveia    : GS-ROHF, GS-ROCIS                             
  Yang Guo               : DLPNO-NEVPT2, F12-NEVPT2, CIM, IAO-localization        
  Andreas Hansen         : Spin unrestricted coupled pair/coupled cluster methods 
  Ingolf Harden          : AUTO-CI MPn and infrastructure                
  Benjamin Helmich-Paris : MC-RPA, TRAH-(SCF,CASSCF), AVAS, COSX integrals, SCF dyn. polar., MC-PDFT, srDFT 
  Lee Huntington         : MR-EOM, pCC                                   
  Robert Izsak           : Overlap fitted RIJCOSX, COSX-SCS-MP3, EOM     
  Riya Kayal             : Wick's Theorem for AUTO-CI, AUTO-CI UHF-CCSDT 
  Emily Kempfer          : AUTO-CI RHF CISDT and CCSDT, approximate NEVPT4
  Christian Kollmar      : KDIIS, OOCD, Brueckner-CCSD(T), CCSD density, CASPT2, CASPT2-K, improved NEVPT2 
  Axel Koslowski         : Symmetry handling                             
  Simone Kossmann        : meta-GGA functionals, TD-DFT gradient, OOMP2, (MP2 Hessian; deprecated post 5.0) 
  Lucas Lang             : DCDCAS, Hyperfine gauge corrections, ICE-SOC+SSC
  Marvin Lechner         : AUTO-CI (C++ implementation), FIC-MRCC        
  Spencer Leger          : CASSCF response                               
  Dagmar Lenk            : GEPOL surface, SMD, ORCA-2-JSON               
  Dimitrios Liakos       : Extrapolation schemes; Compound Job, Property file
  Dimitrios Manganas     : Further ROCIS development; embedding schemes. LFT, Crystal Embedding 
  Dimitrios Pantazis     : SARC Basis sets                               
  Anastasios Papadopoulos: AUTO-CI, single reference methods and gradients 
  Taras Petrenko         : pre 6.0 DFT Hessian and TD-DFT gradient,  ECA, NRVS 
  Petra Pikulova         : Analytic Raman intensities                    
  Peter Pinski           : DLPNO-MP2, DLPNO-MP2 Gradient                 
  Shashank Vittal Rao    : ES-AILFT, MagRelax                            
  Christoph Reimann      : Effective Core Potentials                     
  Marius Retegan         : Local ZFS, SOC                                
  Christoph Riplinger    : Optimizer, TS searches, QM/MM, DLPNO-CCSD(T), (RO)-DLPNO pert. Triples 
  Michael Roemelt        : Original ROCIS implementation, recursive CI coupling coefficients
  Masaaki Saitow         : Open-shell DLPNO-CCSD energy and density      
  Barbara Sandhoefer     : DKH picture change effects                    
  Yorick L. A. Schmerwitz: GMF and freeze-and-release deltaSCF, NEB S-IDPP initial path                    
  Kantharuban Sivalingam : CASSCF convergence/infrastructure, NEVPT2, NEVPT3, NEVPT4(SD), FIC-MRCI and CEPA variants
  Bernardo de Souza      : ESD, SOC TD-DFT                               
  Georgi L. Stoychev     : AutoAux, RI-MP2 NMR, DLPNO-MP2 response, X2C  
  Van Anh Tran           : RI-MP2 g-tensors                              
  Willem Van den Heuvel  : Paramagnetic NMR                              
  Zikuan Wang            : NOTCH, Electric field optimization            
  Frank Wennmohs         : Technical directorship and infrastructure     
  Hang Xu                : AUTO-CI-Response properties                   
                                                                         
[FACCTs GmbH]                                                            
  Markus Bursch, Nicolas Foglia, Miquel Garcia-Rates, Ingolf Harden, Hagen Neugebauer, Anastasios Papadopoulos, 
  Christoph Riplinger, Bernardo de Souza, Georgi L. Stoychev                                                    
                                                                 
  APM, various basis sets, CI-OPT, improved COSX, DLPNO-Multilevel,           
  DOCKER, DRACO, updates on ESD, Fragmentator, GOAT, IRC, LR-CPCM, L-BFGS, MBIS, meta-GGA TD-DFT gradient, ML-optimized integration grids, 
  MM, NACMEs, nearIR, NEB, NEB-TS, NL-DFT gradient (VV10), 2- and 3-layer-ONIOM, interface openCOSMO-RS, QMMM,   
  Crystal-QMMM, RESP, rigid body optimization, SF, symmetry and pop. for TD-DFT, various functionals, SOLVATOR                                   
                                                                         
[Other institutions]                                                     
  V. Asgeirsson          : NEB                                           
  Christoph Bannwarth    : sTDA-DFT, sTD-DFT, PBEh-3c, B97-3c, D3        
  Giovanni Bistoni       : ETS/NOCV, ADLD/ADEX, COVALED                  
  Martin Brehm           : Molecular dynamics                            
  Ronald Cardenas        : ETS/NOCV                                      
  Martina Colucci        : COVALED                                       
  Sebastian Ehlert       : rSCAN, r2SCAN, r2SCAN-3c, D4, dhf basis sets  
  Marvin Friede          : D4 for Fr, Ra, Ac-Lr                          
  Lars Goerigk           : TD-DFT with DH, B97 family of functionals     
  Stefan Grimme          : VdW corrections, initial TS optimization, DFT functionals, gCP, sTDA/sTD-DF 
  Waldemar Hujo          : DFT-NL                                        
  H. Jonsson             : NEB                                           
  Holger Kruse           : gCP                                           
  Marcel Mueller         : wB97X-3c, vDZP basis set                      
  Hagen Neugebauer       : wr2SCAN, Native XTB                           
  Gianluca Regni         : ADLD/ADEX                                     
  Tobias Risthaus        : pre 6.0 range-separated hybrid DFT and stability analysis
  Lukas Wittmann         : regularized MP2, r2SCAN double-hybrids, wr2SCAN        
                                                                         
We gratefully acknowledge several colleagues who have allowed us to      
interface, adapt or use parts of their codes:                            
  Ed Valeev, F. Pavosevic, A. Kumar             : LibInt (2-el integral package), F12 methods 
  Garnet Chan, S. Sharma, J. Yang, R. Olivares  : DMRG                   
  Ulf Ekstrom                                   : XCFun DFT Library      
  Mihaly Kallay                                 : mrcc  (arbitrary order and MRCC methods)
  Frank Weinhold                                : gennbo (NPA and NBO analysis)           
  Simon Mueller                                 : openCOSMO-RS                            
  Christopher J. Cramer and Donald G. Truhlar   : smd solvation model                     
  S Lehtola, MJT Oliveira, MAL Marques          : LibXC Library                           
  Liviu Ungur et al                             : ANISO software                          


 Your calculation uses the libint2 library for the computation of 2-el integrals
 For citations please refer to: http://libint.valeyev.net

 Your ORCA version has been built with support for libXC version: 7.0.0
 For citations please refer to: https://libxc.gitlab.io

 This ORCA versions uses:
   CBLAS   interface :  Fast vector & matrix operations
   LAPACKE interface :  Fast linear algebra routines
   SCALAPACK package :  Parallel linear algebra routines
   Shared memory     :  Shared parallel matrices
   BLAS/LAPACK       :  OpenBLAS 0.3.29  USE64BITINT DYNAMIC_ARCH NO_AFFINITY Cooperlake SINGLE_THREADED
        Core in use  :  Cooperlake
   Copyright (c) 2011-2014, The OpenBLAS Project


  ***********************************
  * Starting time: Wed May 20 12:38:04 2026
  * Host name:     c1-40
  * Process ID:    690872
  * Working dir.:  /cluster/projects/nn14654k/ylvaos/basis_set_n_funcs/functionals/lda_x/PCl/out
  ***********************************

Using LibXC functional ID   1 : Slater exchange
[ 1]  P. A. M. Dirac.,  Math. Proc. Cambridge Philos. Soc. 26, 376 (1930)
[ 2]  F. Bloch.,  Z. Phys. 57, 545 (1929)
Using LibXC functional ID   1 : Slater exchange
[ 1]  P. A. M. Dirac.,  Math. Proc. Cambridge Philos. Soc. 26, 376 (1930)
[ 2]  F. Bloch.,  Z. Phys. 57, 545 (1929)
Your calculation utilizes LibXC
by S. Lehtola, C. Steigemann, M. J. T. Oliveira & M. A. L. Marques
Please cite in your paper:
Lehtola, S.; Steigemann, C.; Oliveira, M.J.T.; Marques, M. A. L. Software X, 7, (2018), 1.
   

================================================================================

----- Orbital basis set information -----
Your calculation utilizes the basis: pc-2
   H, C-F              : F. Jensen, J. Chem. Phys. 115, 9113 (2001).
                         F. Jensen, J. Chem. Phys. 116, 7372 (2002).
                         F. Jensen, J. Chem. Phys. 117, 9234 (2002).
   Si-Cl               : F. Jensen, T. Helgaker, J. Chem. Phys. 121, 3463 (2004).
   He-B, Ne-Mg, Al, Ar : F. Jensen, J. Phys. Chem. A 111, 11198 (2007).
   K, Ca, Ga-Kr        : F. Jensen, J. Chem. Phys. 136, 094110 (2012).
   Sc-Zn               : F. Jensen, J. Chem. Phys. 138, 014107 (2013).

================================================================================
                                        WARNINGS
                       Please study these warnings very carefully!
================================================================================


WARNING: your system is open-shell and RHF/RKS was chosen
  ===> : WILL SWITCH to UHF/UKS


================================================================================
                                       INPUT FILE
================================================================================
NAME = /cluster/projects/nn14654k/ylvaos/basis_set_n_funcs/functionals/lda_x/PCl/inp/PCl_lda_x_pc2.inp
|  1> ! dft pc-2 TightSCF
|  2> %pal nprocs 8 end
|  3> 
|  4> %loc
|  5>   LocMet NewBoys
|  6>   Occ true
|  7> end
|  8> 
|  9> %method
| 10>   exchange lda_x
| 11>   correlation None
| 12> end
| 13> 
| 14> %elprop
| 15>   Dipole true
| 16>   Quadrupole true
| 17> end
| 18> 
| 19> * xyz 0 3
| 20> P    0.000000000000   0.000000000000  -1.008800000000
| 21> Cl    0.000000000000   0.000000000000   1.008800000000
| 22> *
| 23> 
| 24> 
| 25>                          ****END OF INPUT****
================================================================================

                       ****************************
                       * Single Point Calculation *
                       ****************************

---------------------------------
CARTESIAN COORDINATES (ANGSTROEM)
---------------------------------
  P      0.000000    0.000000   -1.008800
  Cl     0.000000    0.000000    1.008800

----------------------------
CARTESIAN COORDINATES (A.U.)
----------------------------
  NO LB      ZA    FRAG     MASS         X           Y           Z
   0 P    15.0000    0    30.974    0.000000    0.000000   -1.906356
   1 Cl   17.0000    0    35.453    0.000000    0.000000    1.906356

--------------------------------
INTERNAL COORDINATES (ANGSTROEM)
--------------------------------
 P      0   0   0     0.000000000000     0.00000000     0.00000000
 Cl     1   0   0     2.017600000000     0.00000000     0.00000000

---------------------------
INTERNAL COORDINATES (A.U.)
---------------------------
 P      0   0   0     0.000000000000     0.00000000     0.00000000
 Cl     1   0   0     3.812711447800     0.00000000     0.00000000

---------------------
BASIS SET INFORMATION
---------------------
There are 2 groups of distinct atoms

 Group   1 Type P   : 29s16p2d1f contracted to 5s4p2d1f pattern {99911/7711/11/1}
 Group   2 Type Cl  : 29s16p2d1f contracted to 5s4p2d1f pattern {99911/7711/11/1}

Atom   0P    basis set group =>   1
Atom   1Cl   basis set group =>   2


           ************************************************************
           *        Program running with 8 parallel MPI-processes     *
           *              working on a common directory               *
           ************************************************************
------------------------------------------------------------------------------
                             ORCA STARTUP CALCULATIONS
------------------------------------------------------------------------------
------------------------------------------------------------------------------
                   ___                                                        
                  /   \      - P O W E R E D   B Y -                         
                 /     \                                                     
                 |  |  |   _    _      __       _____    __    __             
                 |  |  |  | |  | |    /  \     |  _  \  |  |  /  |          
                  \  \/   | |  | |   /    \    | | | |  |  | /  /          
                 / \  \   | |__| |  /  /\  \   | |_| |  |  |/  /          
                |  |  |   |  __  | /  /__\  \  |    /   |      \           
                |  |  |   | |  | | |   __   |  |    \   |  |\   \          
                \     /   | |  | | |  |  |  |  | |\  \  |  | \   \       
                 \___/    |_|  |_| |__|  |__|  |_| \__\ |__|  \__/        
                                                                              
                      - O R C A' S   B I G   F R I E N D -                    
                                      &                                       
                       - I N T E G R A L  F E E D E R -                       
                                                                              
 v1 FN, 2020, v2 2021, v3 2022-2024                                           
------------------------------------------------------------------------------


----------------------
SHARK INTEGRAL PACKAGE
----------------------

Number of atoms                             ...      2
Number of basis functions                   ...     68
Number of shells                            ...     24
Maximum angular momentum                    ...      3
Integral batch strategy                     ... SHARK/LIBINT Hybrid
RI-J (if used) integral strategy            ... SPLIT-RIJ (Revised 2003 algorithm where possible)
Printlevel                                  ...      1
Contraction scheme used                     ... SEGMENTED contraction
Prescreening option                         ... SCHWARTZ
   Thresh                                   ... 2.500e-11
   Tcut                                     ... 2.500e-12
   Tpresel                                  ... 2.500e-12 
Coulomb Range Separation                    ... NOT USED
Exchange Range Separation                   ... NOT USED
Multipole approximations                    ... NOT USED
Finite Nucleus Model                        ... NOT USED
CABS basis                                  ... NOT available
Auxiliary Coulomb fitting basis             ... NOT available
Auxiliary J/K fitting basis                 ... NOT available
Auxiliary Correlation fitting basis         ... NOT available
Auxiliary 'external' fitting basis          ... NOT available

Checking pre-screening integrals            ... done (  0.0 sec) Dimension = 24
   => SHARK Basis and OBASIS are compatible. Storing Pre-screening
Shell pair information
Shell pair cut-off parameter TPreSel        ...   2.5e-12
Total number of shell pairs                 ...       300
Shell pairs after pre-screening             ...       294
Total number of primitive shell pairs       ...      4956
Primitive shell pairs kept                  ...      3473
          la=0 lb=0:     50 shell pairs
          la=1 lb=0:     79 shell pairs
          la=1 lb=1:     36 shell pairs
          la=2 lb=0:     40 shell pairs
          la=2 lb=1:     32 shell pairs
          la=2 lb=2:     10 shell pairs
          la=3 lb=0:     20 shell pairs
          la=3 lb=1:     16 shell pairs
          la=3 lb=2:      8 shell pairs
          la=3 lb=3:      3 shell pairs

Checking whether 4 symmetric matrices of dimension 68 fit in memory
:Max Core in MB      =   4096.00
 MB in use           =      2.67
 MB left             =   4093.33
 MB needed           =      0.07
 Data fit in memory  = YES
Calculating Nuclear repulsion               ... done (  0.0 sec) ENN=     66.881536536727 Eh

Diagonalization of the overlap matrix:
Smallest eigenvalue                        ... 1.527e-02
Time for diagonalization                   ...    0.001 sec
Threshold for overlap eigenvalues          ... 1.000e-07
Number of eigenvalues below threshold      ... 0
Time for construction of square roots      ...    0.002 sec
Total time needed                          ...    0.006 sec

-------------------
DFT GRID GENERATION
-------------------

General Integration Accuracy     IntAcc      ... 4.388
Radial Grid Type                 RadialGrid  ... OptM3 with GC (2021)
Angular Grid (max. ang.)         AngularGrid ... 4 (Lebedev-302)
Angular grid pruning method      GridPruning ... 4 (adaptive)
Weight generation scheme         WeightScheme... mBecke (2022)
Basis function cutoff            BFCut       ... 1.0000e-11
Integration weight cutoff        WCut        ... 1.0000e-14
Partially contracted basis set               ... off
Rotationally invariant grid construction     ... off
Angular grids for H and He will be reduced by one unit

Total number of grid points                  ...    14722
Total number of batches                      ...      231
Average number of points per batch           ...       63
Average number of grid points per atom       ...     7361
Grids setup in   0.0 sec
Initializing property integral containers    ... done (  0.0 sec)

SHARK setup successfully completed in   0.1 seconds

Maximum memory used throughout the entire STARTUP-calculation: 19.1 MB


           ************************************************************
           *        Program running with 8 parallel MPI-processes     *
           *              working on a common directory               *
           ************************************************************
-------------------------------------------------------------------------------
                                 ORCA GUESS
                   Start orbitals & Density for SCF / CASSCF
-------------------------------------------------------------------------------

------------
SCF SETTINGS
------------
Hamiltonian:
 Density Functional     Method          .... DFT(GTOs)
  Functional kind                       .... Exchange
  Functional name                       .... Slater exchange
  Functional family                     .... LDA
  Functional refs                              
    [ 0] P. A. M. Dirac.,  Math. Proc. Cambridge Philos. Soc. 26, 376 (1930), doi: 10.1017/S0305004100016108
    [ 1] F. Bloch.,  Z. Phys. 57, 545 (1929), doi: 10.1007/BF01340281
  Functional external parameters        .... 0
 Correlation Functional Correlation     .... No Correlation
 Gradients option       PostSCFGGA      .... off


General Settings:
 Integral files         IntName         .... /cluster/projects/nn14654k/ylvaos/basis_set_n_funcs/functionals/lda_x/PCl/inp/PCl_lda_x_pc2
 Hartree-Fock type      HFTyp           .... UHF
 Total Charge           Charge          ....    0
 Multiplicity           Mult            ....    3
 Number of Electrons    NEL             ....   32
 Basis Dimension        Dim             ....   68
 Nuclear Repulsion      ENuc            ....     66.8815365367 Eh

Convergence Acceleration:
 AO-DIIS                CNVDIIS         .... on
   Start iteration      DIISMaxIt       ....    12
   Startup error        DIISStart       ....  0.200000
   # of expansion vecs  DIISMaxEq       ....     5
   Bias factor          DIISBfac        ....   1.050
   Max. coefficient     DIISMaxC        ....  10.000
 MO-DIIS                CNVKDIIS        .... off
 Trust-Rad. Augm. Hess. CNVTRAH         .... auto
   Auto Start mean grad. ratio tolernc. ....  1.125000
   Auto Start start iteration           ....    50
   Auto Start num. interpolation iter.  ....    10
   Max. Number of Micro iterations      ....    24
   Max. Number of Macro iterations      .... Maxiter - #DIIS iter
   Number of Davidson start vectors     ....     2
   Converg. threshold    (grad. norm)   ....   1.000e-05
   Grad. Scal. Fac. for Micro threshold ....   0.100
   Minimum threshold for Micro iter.    ....   1.000e-02
   NR start threshold (gradient norm)   ....   1.000e-04
   Initial trust radius                 ....   0.400
   Minimum AH scaling param. (alpha)    ....   1.000
   Maximum AH scaling param. (alpha)    .... 1000.000
   Quad. conv. algorithm                .... NR
   White noise on init. David. guess    .... on
   Maximum white noise                  ....   0.010
   Pseudo random numbers                .... off
   Inactive MOs                         .... canonical
   Orbital update algorithm             .... Taylor
   Preconditioner                       .... Diag
   Full preconditioner red. dimension   ....   250
 SOSCF                 CNVSOSCF           .... on
   Start iteration     SOSCFMaxIt         ....   150
   Startup grad/error  SOSCFStart         ....  0.003300
   Hessian update      SOSCFHessUp        .... L-BFGS
   Autom. constraints  SOSCFAutoConstrain .... off
 Level Shifting         CNVShift        .... on
   Level shift para.    LevelShift      ....    0.2500
   Turn off err/grad.   ShiftErr        ....    0.0010
 Zerner damping         CNVZerner       .... off
 Static damping         CNVDamp         .... on
   Fraction old density DampFac         ....    0.7000
   Max. Damping (<1)    DampMax         ....    0.9800
   Min. Damping (>=0)   DampMin         ....    0.0000
   Turn off err/grad.   DampErr         ....    0.1000

SCF Procedure:
 Maximum # iterations   MaxIter         ....   125
 SCF integral mode      SCFMode         .... Direct
   Integral package                     .... SHARK and LIBINT hybrid scheme
 Reset frequency        DirectResetFreq ....    20
 Integral Threshold     Thresh          ....  2.500e-11 Eh
 Primitive CutOff       TCut            ....  2.500e-12 Eh

Convergence Tolerance:
 Convergence Check Mode ConvCheckMode   .... Total+1el-Energy
 Convergence forced     ConvForced      .... 0
 Energy Change          TolE            ....  1.000e-08 Eh
 1-El. energy change                    ....  1.000e-05 Eh
 Orbital Gradient       TolG            ....  1.000e-05
 Orbital Rotation angle TolX            ....  1.000e-05
 DIIS Error             TolErr          ....  5.000e-07

------------------------------
INITIAL GUESS: MODEL POTENTIAL
------------------------------
Loading Hartree-Fock densities                     ... done
Calculating cut-offs                               ... done
Initializing the effective Hamiltonian             ... done
Setting up the integral package (SHARK)            ... done
Starting the Coulomb interaction                   ... done (   0.0 sec)
Making the grid                                    ... done (   0.0 sec)
Mapping shells                                     ... done
Starting the XC term evaluation                    ... done (   0.0 sec)
  promolecular density results
     # of electrons  =     32.000075422
     EX              =    -46.184661019
     EC              =      0.000000000
     EX+EC           =    -46.184661019
Transforming the Hamiltonian                       ... done (   0.0 sec)
Diagonalizing the Hamiltonian                      ... done (   0.0 sec)
Back transforming the eigenvectors                 ... done (   0.0 sec)
Now organizing SCF variables                       ... done
                      ------------------
                      INITIAL GUESS DONE (   0.1 sec)
                      ------------------
             **** ENERGY FILE WAS UPDATED (/cluster/projects/nn14654k/ylvaos/basis_set_n_funcs/functionals/lda_x/PCl/inp/PCl_lda_x_pc2.en.tmp) ****
Finished Guess after   0.1 sec
Maximum memory used throughout the entire GUESS-calculation: 6.4 MB


           ************************************************************
           *        Program running with 8 parallel MPI-processes     *
           *              working on a common directory               *
           ************************************************************

-------------------------------------------------------------------------------------------
                                      ORCA LEAN-SCF
                              memory conserving SCF solver
-------------------------------------------------------------------------------------------

----------------------------------------D-I-I-S--------------------------------------------
Iteration    Energy (Eh)           Delta-E    RMSDP     MaxDP     DIISErr   Damp  Time(sec)
-------------------------------------------------------------------------------------------
               ***  Starting incremental Fock matrix formation  ***
    1    -796.3421240282443705     0.00e+00  9.96e-04  7.77e-03  1.60e-02  0.700   0.2
    2    -796.3430953919773856    -9.71e-04  8.69e-04  5.98e-03  1.29e-02  0.700   0.2
                               ***Turning on AO-DIIS***
    3    -796.3437619400477843    -6.67e-04  6.07e-04  4.77e-03  1.00e-02  0.700   0.2
    4    -796.3442624440277768    -5.01e-04  1.67e-03  1.28e-02  7.55e-03  0.000   0.2
                              *** Initializing SOSCF ***
---------------------------------------S-O-S-C-F--------------------------------------
Iteration    Energy (Eh)           Delta-E    RMSDP     MaxDP     MaxGrad    Time(sec)
--------------------------------------------------------------------------------------
    5    -796.3455625681514221    -1.30e-03  3.04e-04  1.75e-03  1.90e-03     0.3
               *** Restarting incremental Fock matrix formation ***
    6    -796.3455938467759552    -3.13e-05  2.22e-04  1.03e-03  7.08e-04     0.2
    7    -796.3455952093837595    -1.36e-06  1.70e-04  9.02e-04  9.13e-04     0.2
    8    -796.3456016136311746    -6.40e-06  9.31e-05  7.34e-04  3.19e-04     0.2
    9    -796.3456023910293879    -7.77e-07  2.30e-05  2.25e-04  9.21e-05     0.2
   10    -796.3456024945843410    -1.04e-07  9.47e-06  6.11e-05  4.56e-05     0.2
   11    -796.3456025096757003    -1.51e-08  6.35e-06  5.27e-05  1.73e-05     0.2
   12    -796.3456025144257637    -4.75e-09  1.97e-06  1.61e-05  5.58e-06     0.2
                 **** Energy Check signals convergence ****

               *****************************************************
               *                     SUCCESS                       *
               *           SCF CONVERGED AFTER  12 CYCLES          *
               *****************************************************

             **** ENERGY FILE WAS UPDATED (/cluster/projects/nn14654k/ylvaos/basis_set_n_funcs/functionals/lda_x/PCl/inp/PCl_lda_x_pc2.en.tmp) ****

----------------
TOTAL SCF ENERGY
----------------

Total Energy       :       -796.34560251491132 Eh          -21669.66551 eV

Components:
Nuclear Repulsion  :         66.88153653672681 Eh            1819.93913 eV
Electronic Energy  :       -863.22713905163812 Eh          -23489.60464 eV
One Electron Energy:      -1239.32524417228296 Eh          -33723.75438 eV
Two Electron Energy:        376.09810512064485 Eh           10234.14973 eV

Virial components:
Potential Energy   :      -1595.85151820208330 Eh          -43425.32751 eV
Kinetic Energy     :        799.50591568717209 Eh           21755.66200 eV
Virial Ratio       :          1.99604716724385

DFT components:
N(Alpha)           :       16.999998185234 electrons
N(Beta)            :       15.000000217382 electrons
N(Total)           :       31.999998402616 electrons
E(X)               :      -46.151862566348 Eh       
E(C)               :        0.000000000000 Eh       
E(XC)              :      -46.151862566348 Eh       

---------------
SCF CONVERGENCE
---------------

  Last Energy change         ...    4.7501e-09  Tolerance :   1.0000e-08
  Last MAX-Density change    ...    1.6100e-05  Tolerance :   1.0000e-07
  Last RMS-Density change    ...    1.9691e-06  Tolerance :   5.0000e-09
  Last DIIS Error            ...    1.9019e-03  Tolerance :   5.0000e-07
  Last Orbital Gradient      ...    5.5811e-06  Tolerance :   1.0000e-05
  Last Orbital Rotation      ...    1.0750e-05  Tolerance :   1.0000e-05


----------------------
UHF SPIN CONTAMINATION
----------------------

Warning: in a DFT calculation there is little theoretical justification to 
         calculate <S**2> as in Hartree-Fock theory. We will do it anyways
         but you should keep in mind that the values have only limited relevance

Expectation value of <S**2>     :     2.004281
Ideal value S*(S+1) for S=1.0   :     2.000000
Deviation                       :     0.004281

----------------
ORBITAL ENERGIES
----------------
                 SPIN UP ORBITALS
  NO   OCC          E(Eh)            E(eV) 
   0   1.0000    -100.230599     -2727.4132 
   1   1.0000     -75.940930     -2066.4577 
   2   1.0000      -9.103286      -247.7130 
   3   1.0000      -6.957543      -189.3244 
   4   1.0000      -6.951841      -189.1692 
   5   1.0000      -6.951841      -189.1692 
   6   1.0000      -6.260643      -170.3607 
   7   1.0000      -4.507988      -122.6686 
   8   1.0000      -4.507968      -122.6681 
   9   1.0000      -4.507968      -122.6681 
  10   1.0000      -0.753606       -20.5067 
  11   1.0000      -0.506315       -13.7775 
  12   1.0000      -0.320844        -8.7306 
  13   1.0000      -0.304237        -8.2787 
  14   1.0000      -0.304237        -8.2787 
  15   1.0000      -0.172761        -4.7011 
  16   1.0000      -0.172761        -4.7011 
  17   0.0000      -0.037680        -1.0253 
  18   0.0000       0.139736         3.8024 
  19   0.0000       0.152338         4.1453 
  20   0.0000       0.152338         4.1453 
  21   0.0000       0.209273         5.6946 
  22   0.0000       0.266134         7.2419 
  23   0.0000       0.266134         7.2419 
  24   0.0000       0.307972         8.3804 
  25   0.0000       0.349789         9.5182 
  26   0.0000       0.349789         9.5182 
  27   0.0000       0.413019        11.2388 

                 SPIN DOWN ORBITALS
  NO   OCC          E(Eh)            E(eV) 
   0   1.0000    -100.229036     -2727.3707 
   1   1.0000     -75.933052     -2066.2434 
   2   1.0000      -9.101386      -247.6613 
   3   1.0000      -6.956641      -189.2998 
   4   1.0000      -6.948862      -189.0881 
   5   1.0000      -6.948862      -189.0881 
   6   1.0000      -6.250354      -170.0808 
   7   1.0000      -4.500533      -122.4657 
   8   1.0000      -4.492904      -122.2581 
   9   1.0000      -4.492904      -122.2581 
  10   1.0000      -0.741054       -20.1651 
  11   1.0000      -0.455521       -12.3954 
  12   1.0000      -0.286717        -7.8020 
  13   1.0000      -0.283966        -7.7271 
  14   1.0000      -0.283966        -7.7271 
  15   0.0000      -0.098754        -2.6872 
  16   0.0000      -0.098754        -2.6872 
  17   0.0000      -0.006192        -0.1685 
  18   0.0000       0.158979         4.3260 
  19   0.0000       0.195066         5.3080 
  20   0.0000       0.195066         5.3080 
  21   0.0000       0.222773         6.0620 
  22   0.0000       0.280262         7.6263 
  23   0.0000       0.280262         7.6263 
  24   0.0000       0.351389         9.5618 
  25   0.0000       0.387449        10.5430 
*Only the first 10 virtual orbitals were printed.

                    ********************************
                    * MULLIKEN POPULATION ANALYSIS *
                    ********************************

--------------------------------------------
MULLIKEN ATOMIC CHARGES AND SPIN POPULATIONS
--------------------------------------------
   0 P :    0.129880    1.850784
   1 Cl:   -0.129880    0.149216
Sum of atomic charges         :   -0.0000000
Sum of atomic spin populations:    2.0000000

-----------------------------------------------------
MULLIKEN REDUCED ORBITAL CHARGES AND SPIN POPULATIONS
-----------------------------------------------------
CHARGE
  0 P s       :     5.952110  s :     5.952110
      pz      :     2.651283  p :     8.827129
      px      :     3.087923
      py      :     3.087923
      dz2     :     0.037511  d :     0.081767
      dxz     :     0.022128
      dyz     :     0.022128
      dx2y2   :     0.000000
      dxy     :     0.000000
      f0      :     0.003504  f :     0.009115
      f+1     :     0.002805
      f-1     :     0.002805
      f+2     :     0.000000
      f-2     :     0.000000
      f+3     :     0.000000
      f-3     :     0.000000

  1 Cls       :     5.939367  s :     5.939367
      pz      :     3.394859  p :    11.139748
      px      :     3.872445
      py      :     3.872445
      dz2     :     0.019839  d :     0.047237
      dxz     :     0.013699
      dyz     :     0.013699
      dx2y2   :     0.000000
      dxy     :     0.000000
      f0      :     0.001527  f :     0.003528
      f+1     :     0.001000
      f-1     :     0.001000
      f+2     :     0.000000
      f-2     :     0.000000
      f+3     :     0.000000
      f-3     :     0.000000


SPIN
  0 P s       :     0.012930  s :     0.012930
      pz      :     0.027613  p :     1.833548
      px      :     0.902967
      py      :     0.902967
      dz2     :     0.003098  d :     0.005947
      dxz     :     0.001425
      dyz     :     0.001425
      dx2y2   :     0.000000
      dxy     :     0.000000
      f0      :    -0.001082  f :    -0.001641
      f+1     :    -0.000279
      f-1     :    -0.000279
      f+2     :     0.000000
      f-2     :     0.000000
      f+3     :     0.000000
      f-3     :     0.000000

  1 Cls       :    -0.002063  s :    -0.002063
      pz      :    -0.040200  p :     0.137722
      px      :     0.088961
      py      :     0.088961
      dz2     :    -0.000234  d :     0.013160
      dxz     :     0.006697
      dyz     :     0.006697
      dx2y2   :     0.000000
      dxy     :     0.000000
      f0      :    -0.000062  f :     0.000398
      f+1     :     0.000230
      f-1     :     0.000230
      f+2     :     0.000000
      f-2     :     0.000000
      f+3     :     0.000000
      f-3     :     0.000000



                     *******************************
                     * LOEWDIN POPULATION ANALYSIS *
                     *******************************

-------------------------------------------
LOEWDIN ATOMIC CHARGES AND SPIN POPULATIONS
-------------------------------------------
   0 P :    0.039157    1.785063
   1 Cl:   -0.039157    0.214937

----------------------------------------------------
LOEWDIN REDUCED ORBITAL CHARGES AND SPIN POPULATIONS
----------------------------------------------------
CHARGE
  0 P s       :     5.790413  s :     5.790413
      pz      :     2.847100  p :     9.024834
      px      :     3.088867
      py      :     3.088867
      dz2     :     0.067099  d :     0.121169
      dxz     :     0.027035
      dyz     :     0.027035
      dx2y2   :     0.000000
      dxy     :     0.000000
      f0      :     0.012532  f :     0.024427
      f+1     :     0.005948
      f-1     :     0.005948
      f+2     :     0.000000
      f-2     :     0.000000
      f+3     :     0.000000
      f-3     :     0.000000

  1 Cls       :     5.771733  s :     5.771733
      pz      :     3.477520  p :    11.198409
      px      :     3.860445
      py      :     3.860445
      dz2     :     0.029863  d :     0.061464
      dxz     :     0.015801
      dyz     :     0.015801
      dx2y2   :     0.000000
      dxy     :     0.000000
      f0      :     0.003740  f :     0.007550
      f+1     :     0.001905
      f-1     :     0.001905
      f+2     :     0.000000
      f-2     :     0.000000
      f+3     :     0.000000
      f-3     :     0.000000


SPIN
  0 P s       :     0.008027  s :     0.008027
      pz      :     0.018418  p :     1.770632
      px      :     0.876107
      py      :     0.876107
      dz2     :     0.003145  d :     0.007851
      dxz     :     0.002353
      dyz     :     0.002353
      dx2y2   :     0.000000
      dxy     :     0.000000
      f0      :    -0.001536  f :    -0.001448
      f+1     :     0.000044
      f-1     :     0.000044
      f+2     :     0.000000
      f-2     :     0.000000
      f+3     :     0.000000
      f-3     :     0.000000

  1 Cls       :     0.000612  s :     0.000612
      pz      :    -0.028641  p :     0.191960
      px      :     0.110300
      py      :     0.110300
      dz2     :     0.000026  d :     0.019950
      dxz     :     0.009962
      dyz     :     0.009962
      dx2y2   :     0.000000
      dxy     :     0.000000
      f0      :    -0.000052  f :     0.002416
      f+1     :     0.001234
      f-1     :     0.001234
      f+2     :     0.000000
      f-2     :     0.000000
      f+3     :     0.000000
      f-3     :     0.000000



                      *****************************
                      * MAYER POPULATION ANALYSIS *
                      *****************************

  NA   - Mulliken gross atomic population
  ZA   - Total nuclear charge
  QA   - Mulliken gross atomic charge
  VA   - Mayer's total valence
  BVA  - Mayer's bonded valence
  FA   - Mayer's free valence

  ATOM       NA         ZA         QA         VA         BVA        FA
  0 P     14.8701    15.0000     0.1299     2.8378     1.1931     1.6447
  1 Cl    17.1299    17.0000    -0.1299     1.2182     1.1931     0.0251

  Mayer bond orders larger than 0.100000
B(  0-P ,  1-Cl) :   1.1931 

-------
TIMINGS
-------

Total SCF time: 0 days 0 hours 0 min 2 sec 

Total time                  ....       2.618 sec
Sum of individual times     ....       2.391 sec  ( 91.3%)

SCF preparation             ....       0.069 sec  (  2.6%)
Fock matrix formation       ....       1.585 sec  ( 60.5%)
  Startup                   ....       0.026 sec  (  1.6% of F)
  Coulomb formation         ....       0.782 sec  ( 49.4% of F)
  XC integration            ....       0.442 sec  ( 27.9% of F)
    XC Preparation          ....       0.000 sec  (  0.0% of XC)
    Basis function eval.    ....       0.011 sec  (  2.5% of XC)
    Density eval.           ....       0.007 sec  (  1.6% of XC)
    XC-Functional eval.     ....       0.004 sec  (  0.9% of XC)
    XC-Potential eval.      ....       0.013 sec  (  2.9% of XC)
Diagonalization             ....       0.000 sec  (  0.0%)
Density matrix formation    ....       0.195 sec  (  7.4%)
Total Energy calculation    ....       0.033 sec  (  1.3%)
Population analysis         ....       0.041 sec  (  1.6%)
Orbital Transformation      ....       0.040 sec  (  1.5%)
Orbital Orthonormalization  ....       0.000 sec  (  0.0%)
DIIS solution               ....       0.180 sec  (  6.9%)
SOSCF solution              ....       0.247 sec  (  9.4%)
Finished LeanSCF after   2.7 sec

Maximum memory used throughout the entire LEANSCF-calculation: 18.7 MB


           ************************************************************
           *        Program running with 8 parallel MPI-processes     *
           *              working on a common directory               *
           ************************************************************

------------------------------------------------------------------------------
                         ORCA PROPERTY INTEGRAL CALCULATIONS
------------------------------------------------------------------------------

GBWName                                   ... /cluster/projects/nn14654k/ylvaos/basis_set_n_funcs/functionals/lda_x/PCl/inp/PCl_lda_x_pc2.gbw
Number of atoms                           ...      2
Number of basis functions                 ...     68
Max core memory                           ...   4096 MB

Dipole integrals                          ... YES
Quadrupole integrals                      ... YES
Linear momentum integrals                 ...  NO
Angular momentum integrals                ...  NO
Higher moments length integrals           ...  NO
Higher moments velocity integrals         ...  NO
Kinetic energy integrals                  ...  NO
GIAO right hand sides                     ...  NO
GIAO dipole derivative integrals          ...  NO
SOC integrals                             ...  NO
EPR diamagnetic integrals (GIAO)          ...  NO
EPR gauge integrals                       ...  NO
Field gradient integrals                  ...  NO (   0 nuclei)
Spin-dipole/Fermi contact integrals       ...  NO (   0 nuclei)
Contact density integrals                 ...  NO (   0 nuclei)
Nucleus-orbit integrals                   ...  NO (   0 nuclei)
Geometric perturbations                   ...  NO (   2 nuclei)

Choice of electric origin   ... Center of mass
Position of electric origin ... (  0.0000,  0.0000,  0.1285) 
Choice of magnetic origin   ... GIAO
Position of magnetic origin ... (  0.0000,  0.0000,  0.0000) 

Calculating integrals                     ... Electric Dipole (Length)     done (  0.0 sec)
Calculating integrals                     ... Electric Quadrupole (Length) done (  0.0 sec)

Property integrals calculated in   0.0 sec

Maximum memory used throughout the entire PROPINT-calculation: 6.6 MB
------------------------------------------------------------------------------
                           ORCA ORBITAL LOCALIZATION
------------------------------------------------------------------------------

Input orbitals are from                  ... /cluster/projects/nn14654k/ylvaos/basis_set_n_funcs/functionals/lda_x/PCl/inp/PCl_lda_x_pc2.gbw
Output orbitals are to                   ... /cluster/projects/nn14654k/ylvaos/basis_set_n_funcs/functionals/lda_x/PCl/inp/PCl_lda_x_pc2.loc
Max. number of iterations                ... 128
Localizations seeded randomly            ... on
Convergence tolerance                    ... 1.000e-06
Threshold for strong local MOs           ... 9.500e-01
Threshold for bond MOs                   ... 8.500e-01
Operator                                 ... 0
Orbital range for localization           ... 7 to 16
Localization criterion                   ... NEW-BOYS
Doing the dipole integrals               ... o.k.
Initial value of the localization sum :    35.110089
ITERATION   0 : L=   43.4525026896 DL=  8.34e+00 (AVERGE_DL)=    0.4305658671 
ITERATION   1 : L=   44.0955702901 DL=  6.43e-01 (AVERGE_DL)=    0.1195424239 
ITERATION   2 : L=   44.1121888985 DL=  1.66e-02 (AVERGE_DL)=    0.0192172425 
ITERATION   3 : L=   44.1124423860 DL=  2.53e-04 (AVERGE_DL)=    0.0023734061 
ITERATION   4 : L=   44.1124492142 DL=  6.83e-06 (AVERGE_DL)=    0.0003895353 
ITERATION   5 : L=   44.1124494491 DL=  2.35e-07 (AVERGE_DL)=    0.0000722568 
LOCALIZATION SUM CONVERGED


--------------------------------------------------------------------------------
                    LOCALIZED MOLECULAR ORBITAL COMPOSITIONS
--------------------------------------------------------------------------------

The Mulliken populations for each LMO on each atom are computed
The LMO`s will be ordered according to atom index and type
  (A) Strongly localized MO`s have populations of >=0.950 on one atom
  (B) Two center bond orbitals have populations of >=0.850 on two atoms
  (C) Other MO`s are considered to be `delocalized`

FOUND  -   9 strongly local MO`s
       -   1 two center bond MO`s
       -   0 significantly delocalized MO`s

Rather strongly localized orbitals:
MO  15:   1Cl -   1.004864
MO  14:   1Cl -   1.004864
MO  13:   1Cl -   1.004864
MO  12:   0P  -   1.018410
MO  11:   0P  -   1.018410
MO  10:   0P  -   1.000074
MO   9:   0P  -   1.000074
MO   8:   0P  -   1.000074
MO   7:   0P  -   1.018410
Bond-like localized orbitals:
MO  16:   1Cl -   0.680871  and   0P  -   0.319129
Localized MO's were stored in: /cluster/projects/nn14654k/ylvaos/basis_set_n_funcs/functionals/lda_x/PCl/inp/PCl_lda_x_pc2.loc
------------------------------------------------------------------------------
                           ORCA ORBITAL LOCALIZATION
------------------------------------------------------------------------------

Input orbitals are from                  ... /cluster/projects/nn14654k/ylvaos/basis_set_n_funcs/functionals/lda_x/PCl/inp/PCl_lda_x_pc2.loc
Output orbitals are to                   ... /cluster/projects/nn14654k/ylvaos/basis_set_n_funcs/functionals/lda_x/PCl/inp/PCl_lda_x_pc2.loc
Max. number of iterations                ... 128
Localizations seeded randomly            ... on
Convergence tolerance                    ... 1.000e-06
Threshold for strong local MOs           ... 9.500e-01
Threshold for bond MOs                   ... 8.500e-01
Operator                                 ... 1
Orbital range for localization           ... 7 to 14
Localization criterion                   ... NEW-BOYS
Doing the dipole integrals               ... o.k.
Initial value of the localization sum :    24.638957
ITERATION   0 : L=   29.4434615969 DL=  4.80e+00 (AVERGE_DL)=    0.4142335680 
ITERATION   1 : L=   29.8753291894 DL=  4.32e-01 (AVERGE_DL)=    0.1241927638 
ITERATION   2 : L=   29.8937300940 DL=  1.84e-02 (AVERGE_DL)=    0.0256354279 
ITERATION   3 : L=   29.8958236353 DL=  2.09e-03 (AVERGE_DL)=    0.0086469262 
ITERATION   4 : L=   29.8969596624 DL=  1.14e-03 (AVERGE_DL)=    0.0063696464 
ITERATION   5 : L=   29.8974688778 DL=  5.09e-04 (AVERGE_DL)=    0.0042645359 
ITERATION   6 : L=   29.8977182007 DL=  2.49e-04 (AVERGE_DL)=    0.0029840224 
ITERATION   7 : L=   29.8978398464 DL=  1.22e-04 (AVERGE_DL)=    0.0020843438 
ITERATION   8 : L=   29.8979006264 DL=  6.08e-05 (AVERGE_DL)=    0.0014733342 
ITERATION   9 : L=   29.8979315564 DL=  3.09e-05 (AVERGE_DL)=    0.0010510189 
ITERATION  10 : L=   29.8979476082 DL=  1.61e-05 (AVERGE_DL)=    0.0007571514 
ITERATION  11 : L=   29.8979560868 DL=  8.48e-06 (AVERGE_DL)=    0.0005502792 
ITERATION  12 : L=   29.8979606324 DL=  4.55e-06 (AVERGE_DL)=    0.0004029187 
ITERATION  13 : L=   29.8979630972 DL=  2.46e-06 (AVERGE_DL)=    0.0002966964 
ITERATION  14 : L=   29.8979644444 DL=  1.35e-06 (AVERGE_DL)=    0.0002193507 
ITERATION  15 : L=   29.8979651841 DL=  7.40e-07 (AVERGE_DL)=    0.0001625319 
LOCALIZATION SUM CONVERGED


--------------------------------------------------------------------------------
                    LOCALIZED MOLECULAR ORBITAL COMPOSITIONS
--------------------------------------------------------------------------------

The Mulliken populations for each LMO on each atom are computed
The LMO`s will be ordered according to atom index and type
  (A) Strongly localized MO`s have populations of >=0.950 on one atom
  (B) Two center bond orbitals have populations of >=0.850 on two atoms
  (C) Other MO`s are considered to be `delocalized`

FOUND  -   4 strongly local MO`s
       -   4 two center bond MO`s
       -   0 significantly delocalized MO`s

Rather strongly localized orbitals:
MO  10:   0P  -   1.014366
MO   9:   0P  -   1.000400
MO   8:   0P  -   1.000400
MO   7:   0P  -   1.000400
Bond-like localized orbitals:
MO  14:   1Cl -   0.713226  and   0P  -   0.286774
MO  13:   1Cl -   0.931020  and   0P  -   0.068980
MO  12:   1Cl -   0.931139  and   0P  -   0.068861
MO  11:   1Cl -   0.931002  and   0P  -   0.068998
Localized MO's were stored in: /cluster/projects/nn14654k/ylvaos/basis_set_n_funcs/functionals/lda_x/PCl/inp/PCl_lda_x_pc2.loc

-------------------------   --------------------
FINAL SINGLE POINT ENERGY      -796.345602514911
-------------------------   --------------------



           ************************************************************
           *        Program running with 8 parallel MPI-processes     *
           *              working on a common directory               *
           ************************************************************

------------------------------------------------------------------------------
                              ORCA PROPERTY CALCULATIONS
------------------------------------------------------------------------------

GBWName                                 ... /cluster/projects/nn14654k/ylvaos/basis_set_n_funcs/functionals/lda_x/PCl/inp/PCl_lda_x_pc2.gbw
Number of atoms                         ...      2
Number of basis functions               ...     68
Max core memory                         ...   4096 MB

Electric properties:
Dipole moment                           ... YES
Quadrupole moment                       ... YES
Static polarizability (Dipole/Dipole)   ...  NO
Static polarizability (Dipole/Quad.)    ...  NO
Static polarizability (Quad./Quad.)     ...  NO
Static polarizability (Velocity)        ...  NO
Static hyperpolarizability              ...  NO

Atomic electric properties:
Dipole moment                           ...  NO
Quadrupole moment                       ...  NO
Static polarizability                   ...  NO

Choice of electric origin               ... Center of mass
Position of electric origin             ...     0.000000     0.000000     0.128541

General magnetic properties:
Magnetizability                         ...  NO

EPR properties:
g-Tensor (aka g-matrix)                 ...  NO
Zero-Field splitting spin-orbit         ...  NO
Zero-field splitting spin-spin          ...  NO
Hyperfine couplings                     ...  NO (   0 nuclei)
Quadrupole couplings                    ...  NO (   0 nuclei)
Contact density                         ...  NO (   0 nuclei)

NMR properties:
Chemical shifts                         ...  NO (   0 nuclei)
Spin-rotation constants                 ...  NO (   0 nuclei)
Spin-spin couplings                     ...  NO (   0 nuclei,    0 pairs)

Choice of magnetic origin               ... GIAO
Position of magnetic origin             ...     0.000000     0.000000     0.000000

Properties with geometric perturbations:
SCF Hessian                             ...  NO
IR spectrum                             ...  NO
VCD spectrum                            ...  NO
X-ray spectroscopy properties:
SCF XES/XAS/RIXS spectra                ...  NO

SCF SOC stabilization energy            ...  NO
Diagonal Born-Oppenheimer correction    ...  NO

-------------
DIPOLE MOMENT
-------------

Method             : SCF
Type of density    : Electron Density
Multiplicity       :   3
Irrep              :   0
Energy             :  -796.3456025149113202 Eh
Basis              : AO
                                X                 Y                 Z
Electronic contribution:     -0.000000000      -0.000000000       0.156839521
Nuclear contribution   :      0.000000000       0.000000000      -0.300588162
                        -----------------------------------------
Total Dipole Moment    :     -0.000000000      -0.000000000      -0.143748642
                        -----------------------------------------
Magnitude (a.u.)       :      0.143748642
Magnitude (Debye)      :      0.365380010



--------------------
Rotational spectrum 
--------------------
 
Rotational constants in cm-1:             0.000000             0.250508             0.250508 
Rotational constants in MHz :             0.000000          7510.026026          7510.026026 

Dipole components along the rotational axes: 
x,y,z [a.u.] :    -0.143749    -0.000000    -0.000000 
x,y,z [Debye]:    -0.365380    -0.000000    -0.000000 

 

Dipole moment calculation done in   0.1 sec 

-----------------
QUADRUPOLE MOMENT
-----------------

Method             : SCF
Type of density    : Electron Density
Multiplicity       :   3
Irrep              :   0
Energy             :  -796.3456025149113202 Eh
Basis              : AO

                XX              YY              ZZ              XY              XZ              YZ
  NUC        0.000000000     0.000000000   115.842698194     0.000000000     0.000000000     0.000000000
  EL       -19.725078367   -19.725078369  -134.706902195     0.000000001     0.000000000     0.000000001
  TOT      -19.725078367   -19.725078369   -18.864204000     0.000000001     0.000000000     0.000000001 (a.u.)
           -26.530905001   -26.530905004   -25.372999536     0.000000001     0.000000001     0.000000001 (Buckingham)

diagonalized tensor:
           -19.725078369   -19.725078367   -18.864204000 (a.u.)
           -26.530905004   -26.530905001   -25.372999536 (Buckingham)
            -1.157905471    -1.157905461     2.315810932 (traceless form in Buckingham)

            -0.210117027     0.977676242     0.000000000
             0.977676242     0.210117027     0.000000001
            -0.000000001    -0.000000001     1.000000000
        
Isotropic quadrupole :   -19.438120245

Quadrupole moment calculation done in   0.0 sec (  0.0 sec for integrals)

Maximum memory used throughout the entire PROP-calculation: 3.1 MB

--------------------------------
SUGGESTED CITATIONS FOR THIS RUN
--------------------------------

Below you find a list of papers that are relevant to this ORCA run
We neither can nor want to force you to cite these papers, but we appreciate if you do
You receive ORCA, which is the product of decades of hard work by many enthusiastic individuals, for free
The only thing we kindly ask in return is that you cite our papers,
We deeply appreciate it, if you show your appreciation for ORCA by not just citing the generic ORCA reference.

Please note that relegating all ORCA citations to the supporting information does *not* help us.
SI sections are not indexed - citations you put there will not count into any citation statistics
But we need these citations in order to attract the funding resources that allow us to do what we are doing

Therefore, if you are a happy ORCA user, please consider citing a few of the papers listed below in the main body of your paper

In addition to the list printed below, the program has created the file /cluster/projects/nn14654k/ylvaos/basis_set_n_funcs/functionals/lda_x/PCl/inp/PCl_lda_x_pc2.bibtex that contains the list in bibtex format
You can import this file easily into all common literature databanks and citation aid programs

It goes without saying that in many instances, there are alternative algorithms to achieve similar
results as the ones you have gotten from ORCA. It is, of course, also the case that in some instances
ORCA just re-implements algorithms worked out by others. We are fully aware of that and we are also
fully appreciative of our colleagues work. Hence this citation list should not be read as indicating
that the listed papers, which are focused on our own work, are the only ones worth citing. It simply
meant to make it easier for users to cite ORCA specific papers. It is not a substitute for doing your
own literature research and citing the relevant literature in a scientifically appropriate manner.

List of essential papers. We consider these as the minimum necessary citations

  1. Neese, F.
     Software update: the ORCA program system, version 6.0
     WIRES Comput. Molec. Sci. 2025 15(1), e70019
     doi.org/10.1002/wcms.70019

List of papers to cite with high priority. The work reported in these papers was absolutely
necessary for this run to complete.
Our perspective: the developers of density functionals and basis sets usually get cited in chemistry papers
Good! But without the algorithms to do something with them, the functionals or basis sets would not do anything.
Hence, in our opinion, the algorithm design and method developments papers are equally worthy of getting cited

  1. Lehtola, S.; Steigemann, C.; Oliveira, M.; Marques, M.
     Recent developments in Libxc - A comprehensive library of functionals for density functional theory
     Software X 2018 7 , 
     doi.org/10.1016/j.softx.2017.11.002
  2. Neese, F.
     The SHARK Integral Generation and Digestion System
     J. Comp. Chem. 2022 44(3), 381
     doi.org/10.1002/jcc.26942

List of suggested additional citations. These are papers that are important in the 'surrounding' of 
of this run, or papers that preceded the highly important papers. If you like your results we are grateful for a citation.

  1. Neese, F.
     The ORCA program system
     WIRES Comput. Molec. Sci. 2012 2(1), 73-78
     doi.org/10.1002/wcms.81
  2. Neese, F.
     Software update: the ORCA program system, version 4.0
     WIRES Comput. Molec. Sci. 2018 8(1), 1-6
     doi.org/10.1002/wcms.1327
  3. Neese, F.; Wennmohs, F.; Becker, U.; Riplinger, C.
     The ORCA quantum chemistry program package
     J. Chem. Phys. 2020 152(22), 224108
     doi.org/10.1063/5.0004608
  4. Neese, F.
     Software update: The ORCA program system—Version 5.0
     WIRES Comput. Molec. Sci. 2022 12(1), e1606
     doi.org/10.1002/wcms.1606

List of optional additional citations

  1. Neese, F.
     Approximate second-order SCF convergence for spin unrestricted wavefunctions
     Chem. Phys. Lett. 2000 325(1-3), 93-98
     doi.org/10.1016/s0009-2614(00)00662-x

Timings for individual modules:

Sum of individual times          ...        4.381 sec (=   0.073 min)
Startup calculation              ...        0.397 sec (=   0.007 min)   9.1 %
SCF iterations                   ...        3.369 sec (=   0.056 min)  76.9 %
Property integrals               ...        0.267 sec (=   0.004 min)   6.1 %
Property calculations            ...        0.329 sec (=   0.005 min)   7.5 %
Orbital localization             ...        0.019 sec (=   0.000 min)   0.4 %
                             ****ORCA TERMINATED NORMALLY****
TOTAL RUN TIME: 0 days 0 hours 0 minutes 5 seconds 415 msec
