
                                 *****************
                                 * O   R   C   A *
                                 *****************

                                            #,                                       
                                            ###                                      
                                            ####                                     
                                            #####                                    
                                            ######                                   
                                           ########,                                 
                                     ,,################,,,,,                         
                               ,,#################################,,                 
                          ,,##########################################,,             
                       ,#########################################, ''#####,          
                    ,#############################################,,   '####,        
                  ,##################################################,,,,####,       
                ,###########''''           ''''###############################       
              ,#####''   ,,,,##########,,,,          '''####'''          '####       
            ,##' ,,,,###########################,,,                        '##       
           ' ,,###''''                  '''############,,,                           
         ,,##''                                '''############,,,,        ,,,,,,###''
      ,#''                                            '''#######################'''  
     '                                                          ''''####''''         
             ,#######,   #######,   ,#######,      ##                                
            ,#'     '#,  ##    ##  ,#'     '#,    #''#        ,####,    ,#,          
            ##       ##  ##   ,#'  ##            #'  '#       #'       ,# #          
            ##       ##  #######   ##           ,######,      #####,      #          
            '#,     ,#'  ##    ##  '#,     ,#' ,#      #,     #,   #      #          
             '#######'   ##     ##  '#######'  #'      '#     '####' #    #          



                #########################################################
                #                        -***-                          #
                #          Department of theory and spectroscopy        #
                #                                                       #
                #                      Frank Neese                      #
                #                                                       #
                #     Directorship, Architecture, Infrastructure        #
                #                    SHARK, DRIVERS                     #
                #        Core code/Algorithms in most modules           #
                #                                                       #
                #        Max Planck Institute fuer Kohlenforschung      #
                #                Kaiser Wilhelm Platz 1                 #
                #                 D-45470 Muelheim/Ruhr                 #
                #                      Germany                          #
                #                                                       #
                #                  All rights reserved                  #
                #                        -***-                          #
                #########################################################


                         Program Version 6.1.1  -  RELEASE   -
                                (GIT: $487d211c$)
                          ($2025-11-21 10:33:24 +0100$)


 With contributions from (in alphabetic order):
[Max-Planck-Institut fuer Kohlenforschung]                               
  Daniel Aravena         : Magnetic Suceptibility                        
  Michael Atanasov       : Ab Initio Ligand Field Theory (pilot matlab implementation)
  Alexander A. Auer      : GIAO ZORA, VPT2 properties, NMR spectrum      
  Ute Becker             : All parallelization in ORCA, NUMFREQ, NUMCALC 
  Giovanni Bistoni       : ED, misc. LED, open-shell LED, HFLD           
  Dmytro Bykov           : pre 5.0 version of the SCF Hessian            
  Marcos Casanova-Páez   : Triplet and SCS-CIS(D). UHF-(DLPNO)-IP/EA/STEOM-CCSD. UHF-CVS-IP/STEOM-CCSD   
  Vijay G. Chilkuri      : MRCI spin determinant printing, contributions to CSF-ICE 
  Pauline Colinet        : FMM embedding                                 
  Dipayan Datta          : RHF DLPNO-CCSD density                        
  Achintya Kumar Dutta   : EOM-CC, STEOM-CC                              
  Nicolas Foglia         : Exact transition moments, OPA infrastructure, MCD improvements    
  Dmitry Ganyushin       : Spin-Orbit,Spin-Spin,Magnetic field MRCI      
  Miquel Garcia-Rates    : C-PCM and meta-GGA Hessian, CCSD/C-PCM, Gaussian charge scheme 
  Tiago L. C. Gouveia    : GS-ROHF, GS-ROCIS                             
  Yang Guo               : DLPNO-NEVPT2, F12-NEVPT2, CIM, IAO-localization        
  Andreas Hansen         : Spin unrestricted coupled pair/coupled cluster methods 
  Ingolf Harden          : AUTO-CI MPn and infrastructure                
  Benjamin Helmich-Paris : MC-RPA, TRAH-(SCF,CASSCF), AVAS, COSX integrals, SCF dyn. polar., MC-PDFT, srDFT 
  Lee Huntington         : MR-EOM, pCC                                   
  Robert Izsak           : Overlap fitted RIJCOSX, COSX-SCS-MP3, EOM     
  Riya Kayal             : Wick's Theorem for AUTO-CI, AUTO-CI UHF-CCSDT 
  Emily Kempfer          : AUTO-CI RHF CISDT and CCSDT, approximate NEVPT4
  Christian Kollmar      : KDIIS, OOCD, Brueckner-CCSD(T), CCSD density, CASPT2, CASPT2-K, improved NEVPT2 
  Axel Koslowski         : Symmetry handling                             
  Simone Kossmann        : meta-GGA functionals, TD-DFT gradient, OOMP2, (MP2 Hessian; deprecated post 5.0) 
  Lucas Lang             : DCDCAS, Hyperfine gauge corrections, ICE-SOC+SSC
  Marvin Lechner         : AUTO-CI (C++ implementation), FIC-MRCC        
  Spencer Leger          : CASSCF response                               
  Dagmar Lenk            : GEPOL surface, SMD, ORCA-2-JSON               
  Dimitrios Liakos       : Extrapolation schemes; Compound Job, Property file
  Dimitrios Manganas     : Further ROCIS development; embedding schemes. LFT, Crystal Embedding 
  Dimitrios Pantazis     : SARC Basis sets                               
  Anastasios Papadopoulos: AUTO-CI, single reference methods and gradients 
  Taras Petrenko         : pre 6.0 DFT Hessian and TD-DFT gradient,  ECA, NRVS 
  Petra Pikulova         : Analytic Raman intensities                    
  Peter Pinski           : DLPNO-MP2, DLPNO-MP2 Gradient                 
  Shashank Vittal Rao    : ES-AILFT, MagRelax                            
  Christoph Reimann      : Effective Core Potentials                     
  Marius Retegan         : Local ZFS, SOC                                
  Christoph Riplinger    : Optimizer, TS searches, QM/MM, DLPNO-CCSD(T), (RO)-DLPNO pert. Triples 
  Michael Roemelt        : Original ROCIS implementation, recursive CI coupling coefficients
  Masaaki Saitow         : Open-shell DLPNO-CCSD energy and density      
  Barbara Sandhoefer     : DKH picture change effects                    
  Yorick L. A. Schmerwitz: GMF and freeze-and-release deltaSCF, NEB S-IDPP initial path                    
  Kantharuban Sivalingam : CASSCF convergence/infrastructure, NEVPT2, NEVPT3, NEVPT4(SD), FIC-MRCI and CEPA variants
  Bernardo de Souza      : ESD, SOC TD-DFT                               
  Georgi L. Stoychev     : AutoAux, RI-MP2 NMR, DLPNO-MP2 response, X2C  
  Van Anh Tran           : RI-MP2 g-tensors                              
  Willem Van den Heuvel  : Paramagnetic NMR                              
  Zikuan Wang            : NOTCH, Electric field optimization            
  Frank Wennmohs         : Technical directorship and infrastructure     
  Hang Xu                : AUTO-CI-Response properties                   
                                                                         
[FACCTs GmbH]                                                            
  Markus Bursch, Nicolas Foglia, Miquel Garcia-Rates, Ingolf Harden, Hagen Neugebauer, Anastasios Papadopoulos, 
  Christoph Riplinger, Bernardo de Souza, Georgi L. Stoychev                                                    
                                                                 
  APM, various basis sets, CI-OPT, improved COSX, DLPNO-Multilevel,           
  DOCKER, DRACO, updates on ESD, Fragmentator, GOAT, IRC, LR-CPCM, L-BFGS, MBIS, meta-GGA TD-DFT gradient, ML-optimized integration grids, 
  MM, NACMEs, nearIR, NEB, NEB-TS, NL-DFT gradient (VV10), 2- and 3-layer-ONIOM, interface openCOSMO-RS, QMMM,   
  Crystal-QMMM, RESP, rigid body optimization, SF, symmetry and pop. for TD-DFT, various functionals, SOLVATOR                                   
                                                                         
[Other institutions]                                                     
  V. Asgeirsson          : NEB                                           
  Christoph Bannwarth    : sTDA-DFT, sTD-DFT, PBEh-3c, B97-3c, D3        
  Giovanni Bistoni       : ETS/NOCV, ADLD/ADEX, COVALED                  
  Martin Brehm           : Molecular dynamics                            
  Ronald Cardenas        : ETS/NOCV                                      
  Martina Colucci        : COVALED                                       
  Sebastian Ehlert       : rSCAN, r2SCAN, r2SCAN-3c, D4, dhf basis sets  
  Marvin Friede          : D4 for Fr, Ra, Ac-Lr                          
  Lars Goerigk           : TD-DFT with DH, B97 family of functionals     
  Stefan Grimme          : VdW corrections, initial TS optimization, DFT functionals, gCP, sTDA/sTD-DF 
  Waldemar Hujo          : DFT-NL                                        
  H. Jonsson             : NEB                                           
  Holger Kruse           : gCP                                           
  Marcel Mueller         : wB97X-3c, vDZP basis set                      
  Hagen Neugebauer       : wr2SCAN, Native XTB                           
  Gianluca Regni         : ADLD/ADEX                                     
  Tobias Risthaus        : pre 6.0 range-separated hybrid DFT and stability analysis
  Lukas Wittmann         : regularized MP2, r2SCAN double-hybrids, wr2SCAN        
                                                                         
We gratefully acknowledge several colleagues who have allowed us to      
interface, adapt or use parts of their codes:                            
  Ed Valeev, F. Pavosevic, A. Kumar             : LibInt (2-el integral package), F12 methods 
  Garnet Chan, S. Sharma, J. Yang, R. Olivares  : DMRG                   
  Ulf Ekstrom                                   : XCFun DFT Library      
  Mihaly Kallay                                 : mrcc  (arbitrary order and MRCC methods)
  Frank Weinhold                                : gennbo (NPA and NBO analysis)           
  Simon Mueller                                 : openCOSMO-RS                            
  Christopher J. Cramer and Donald G. Truhlar   : smd solvation model                     
  S Lehtola, MJT Oliveira, MAL Marques          : LibXC Library                           
  Liviu Ungur et al                             : ANISO software                          


 Your calculation uses the libint2 library for the computation of 2-el integrals
 For citations please refer to: http://libint.valeyev.net

 Your ORCA version has been built with support for libXC version: 7.0.0
 For citations please refer to: https://libxc.gitlab.io

 This ORCA versions uses:
   CBLAS   interface :  Fast vector & matrix operations
   LAPACKE interface :  Fast linear algebra routines
   SCALAPACK package :  Parallel linear algebra routines
   Shared memory     :  Shared parallel matrices
   BLAS/LAPACK       :  OpenBLAS 0.3.29  USE64BITINT DYNAMIC_ARCH NO_AFFINITY Cooperlake SINGLE_THREADED
        Core in use  :  Cooperlake
   Copyright (c) 2011-2014, The OpenBLAS Project


  ***********************************
  * Starting time: Wed May 20 12:34:32 2026
  * Host name:     c1-47
  * Process ID:    3490597
  * Working dir.:  /cluster/projects/nn14654k/ylvaos/basis_set_n_funcs/functionals/gga_x_N12/H2O2/out
  ***********************************

Using LibXC functional ID  82 : Minnesota N12 exchange functional
[ 1]  R. Peverati and D. G. Truhlar.,  J. Chem. Theory Comput. 8, 2310 (2012)
Using LibXC functional ID  82 : Minnesota N12 exchange functional
[ 1]  R. Peverati and D. G. Truhlar.,  J. Chem. Theory Comput. 8, 2310 (2012)
Your calculation utilizes LibXC
by S. Lehtola, C. Steigemann, M. J. T. Oliveira & M. A. L. Marques
Please cite in your paper:
Lehtola, S.; Steigemann, C.; Oliveira, M.J.T.; Marques, M. A. L. Software X, 7, (2018), 1.
   

================================================================================

----- Orbital basis set information -----
Your calculation utilizes the basis: aug-cc-pVQZ 
    H, B-Ne : Obtained from the ccRepo (grant-hill.group.shef.ac.uk/ccrepo) Feb. 2017
              R. A. Kendall, T. H. Dunning, Jr., R. J. Harrison, J. Chem. Phys. 96, 6796 (1992)
         He : Obtained from the ccRepo (grant-hill.group.shef.ac.uk/ccrepo) Feb. 2017
              D. E. Woon, T. H. Dunning, Jr., J. Chem. Phys. 100, 2975 (1994)
  Li-Be, Na : Obtained from the ccRepo (grant-hill.group.shef.ac.uk/ccrepo) Feb. 2017
              B. P. Prascher, D. E. Woon, K. A. Peterson, T. H. Dunning, Jr., A. K. Wilson, Theor. Chem. Acc. 128, 69 (2011)
         Mg : Obtained from the Peterson Research Group Website (tyr0.chem.wsu.edu/~kipeters) Feb. 2017
              B. P. Prascher, D. E. Woon, K. A. Peterson, T. H. Dunning, Jr., A. K. Wilson, Theor. Chem. Acc. 128, 69 (2011)
      Al-Ar : Obtained from the ccRepo (grant-hill.group.shef.ac.uk/ccrepo) Feb. 2017
              D. E. Woon, T. H. Dunning, Jr., J. Chem. Phys. 98, 1358 (1993)
      Sc-Zn : Obtained from the ccRepo (grant-hill.group.shef.ac.uk/ccrepo) Feb. 2017
              N. B. Balabanov, K. A. Peterson, J. Chem. Phys. 123, 064107 (2005)
              N. B. Balabanov, K. A. Peterson, J. Chem. Phys. 125, 074110 (2006)
      Ga-Kr : Obtained from the ccRepo (grant-hill.group.shef.ac.uk/ccrepo) Feb. 2017
              A. K. Wilson, D. E. Woon, K. A. Peterson, T. H. Dunning, Jr., J. Chem. Phys. 110, 7667 (1999)

================================================================================
                                        WARNINGS
                       Please study these warnings very carefully!
================================================================================


================================================================================
                                       INPUT FILE
================================================================================
NAME = /cluster/projects/nn14654k/ylvaos/basis_set_n_funcs/functionals/gga_x_N12/H2O2/inp/H2O2_gga_x_N12_augccpvqz.inp
|  1> ! dft aug-cc-pVQZ TightSCF
|  2> %pal nprocs 8 end
|  3> 
|  4> %loc
|  5>   LocMet NewBoys
|  6>   Occ true
|  7> end
|  8> 
|  9> %method
| 10>   exchange gga_x_N12
| 11>   correlation None
| 12> end
| 13> 
| 14> %elprop
| 15>   Dipole true
| 16>   Quadrupole true
| 17> end
| 18> 
| 19> * xyz 0 1
| 20> O    0.000000000000   0.737500000000  -0.052800000000
| 21> O    0.000000000000  -0.737500000000  -0.052800000000
| 22> H    0.819000000000   0.817000000000   0.422000000000
| 23> H   -0.819000000000  -0.817000000000   0.422000000000
| 24> *
| 25> 
| 26> 
| 27>                          ****END OF INPUT****
================================================================================

                       ****************************
                       * Single Point Calculation *
                       ****************************

---------------------------------
CARTESIAN COORDINATES (ANGSTROEM)
---------------------------------
  O      0.000000    0.737500   -0.052800
  O      0.000000   -0.737500   -0.052800
  H      0.819000    0.817000    0.422000
  H     -0.819000   -0.817000    0.422000

----------------------------
CARTESIAN COORDINATES (A.U.)
----------------------------
  NO LB      ZA    FRAG     MASS         X           Y           Z
   0 O     8.0000    0    15.999    0.000000    1.393673   -0.099778
   1 O     8.0000    0    15.999    0.000000   -1.393673   -0.099778
   2 H     1.0000    0     1.008    1.547686    1.543906    0.797464
   3 H     1.0000    0     1.008   -1.547686   -1.543906    0.797464

--------------------------------
INTERNAL COORDINATES (ANGSTROEM)
--------------------------------
 O      0   0   0     0.000000000000     0.00000000     0.00000000
 O      1   0   0     1.475000000000     0.00000000     0.00000000
 H      1   2   0     0.950008573646    94.80032267     0.00000000
 H      2   1   3     0.950008573646    94.80032267   119.79556962

---------------------------
INTERNAL COORDINATES (A.U.)
---------------------------
 O      0   0   0     0.000000000000     0.00000000     0.00000000
 O      1   0   0     2.787346047534     0.00000000     0.00000000
 H      1   2   0     1.795256029067    94.80032267     0.00000000
 H      2   1   3     1.795256029067    94.80032267   119.79556962

---------------------
BASIS SET INFORMATION
---------------------
There are 2 groups of distinct atoms

 Group   1 Type O   : 22s7p4d3f2g contracted to 6s5p4d3f2g pattern {991111/31111/1111/111/11}
 Group   2 Type H   : 7s4p3d2f contracted to 5s4p3d2f pattern {31111/1111/111/11}

Atom   0O    basis set group =>   1
Atom   1O    basis set group =>   1
Atom   2H    basis set group =>   2
Atom   3H    basis set group =>   2


           ************************************************************
           *        Program running with 8 parallel MPI-processes     *
           *              working on a common directory               *
           ************************************************************
------------------------------------------------------------------------------
                             ORCA STARTUP CALCULATIONS
------------------------------------------------------------------------------
------------------------------------------------------------------------------
                   ___                                                        
                  /   \      - P O W E R E D   B Y -                         
                 /     \                                                     
                 |  |  |   _    _      __       _____    __    __             
                 |  |  |  | |  | |    /  \     |  _  \  |  |  /  |          
                  \  \/   | |  | |   /    \    | | | |  |  | /  /          
                 / \  \   | |__| |  /  /\  \   | |_| |  |  |/  /          
                |  |  |   |  __  | /  /__\  \  |    /   |      \           
                |  |  |   | |  | | |   __   |  |    \   |  |\   \          
                \     /   | |  | | |  |  |  |  | |\  \  |  | \   \       
                 \___/    |_|  |_| |__|  |__|  |_| \__\ |__|  \__/        
                                                                              
                      - O R C A' S   B I G   F R I E N D -                    
                                      &                                       
                       - I N T E G R A L  F E E D E R -                       
                                                                              
 v1 FN, 2020, v2 2021, v3 2022-2024                                           
------------------------------------------------------------------------------


----------------------
SHARK INTEGRAL PACKAGE
----------------------

Number of atoms                             ...      4
Number of basis functions                   ...    266
Number of shells                            ...     82
Maximum angular momentum                    ...      4
Integral batch strategy                     ... SHARK/LIBINT Hybrid
RI-J (if used) integral strategy            ... SPLIT-RIJ (Revised 2003 algorithm where possible)
Printlevel                                  ...      1
Contraction scheme used                     ... PARTIAL GENERAL contraction
Prescreening option                         ... SCHWARTZ
   Thresh                                   ... 2.500e-11
   Tcut                                     ... 2.500e-12
   Tpresel                                  ... 2.500e-12 
Coulomb Range Separation                    ... NOT USED
Exchange Range Separation                   ... NOT USED
Multipole approximations                    ... NOT USED
Finite Nucleus Model                        ... NOT USED
CABS basis                                  ... NOT available
Auxiliary Coulomb fitting basis             ... NOT available
Auxiliary J/K fitting basis                 ... NOT available
Auxiliary Correlation fitting basis         ... NOT available
Auxiliary 'external' fitting basis          ... NOT available

Checking pre-screening integrals            ... done (  0.0 sec) Dimension = 82
Save PGC pre-screening integrals            ... done (  0.0 sec) Dimension = 82
Calculate PGC overlap integrals             ... done (  0.0 sec) Dimension = 68
Calculating pre-screening integrals (ORCA)  ... done (  0.1 sec) Dimension = 68
Shell pair information
Shell pair cut-off parameter TPreSel        ...   2.5e-12
Total number of shell pairs                 ...      3403
Shell pairs after pre-screening             ...      3282
Total number of primitive shell pairs       ...      4107
Primitive shell pairs kept                  ...      3844
          la=0 lb=0:    573 shell pairs
          la=1 lb=0:    628 shell pairs
          la=1 lb=1:    171 shell pairs
          la=2 lb=0:    498 shell pairs
          la=2 lb=1:    252 shell pairs
          la=2 lb=2:    105 shell pairs
          la=3 lb=0:    360 shell pairs
          la=3 lb=1:    180 shell pairs
          la=3 lb=2:    140 shell pairs
          la=3 lb=3:     55 shell pairs
          la=4 lb=0:    142 shell pairs
          la=4 lb=1:     72 shell pairs
          la=4 lb=2:     56 shell pairs
          la=4 lb=3:     40 shell pairs
          la=4 lb=4:     10 shell pairs

Checking whether 4 symmetric matrices of dimension 266 fit in memory
:Max Core in MB      =   4096.00
 MB in use           =      7.20
 MB left             =   4088.80
 MB needed           =      1.08
 Data fit in memory  = YES
Calculating Nuclear repulsion               ... done (  0.0 sec) ENN=     36.753926669986 Eh

Diagonalization of the overlap matrix:
Smallest eigenvalue                        ... 6.683e-05
Time for diagonalization                   ...    0.004 sec
Threshold for overlap eigenvalues          ... 1.000e-07
Number of eigenvalues below threshold      ... 0
Time for construction of square roots      ...    0.005 sec
Total time needed                          ...    0.011 sec

-------------------
DFT GRID GENERATION
-------------------

General Integration Accuracy     IntAcc      ... 4.388
Radial Grid Type                 RadialGrid  ... OptM3 with GC (2021)
Angular Grid (max. ang.)         AngularGrid ... 4 (Lebedev-302)
Angular grid pruning method      GridPruning ... 4 (adaptive)
Weight generation scheme         WeightScheme... mBecke (2022)
Basis function cutoff            BFCut       ... 1.0000e-11
Integration weight cutoff        WCut        ... 1.0000e-14
Partially contracted basis set               ... off
Rotationally invariant grid construction     ... off
Angular grids for H and He will be reduced by one unit
Diffuse basis detected: some atoms will have their outermost
                        angular grid increased by 1.

Total number of grid points                  ...    19972
Total number of batches                      ...      314
Average number of points per batch           ...       63
Average number of grid points per atom       ...     4993

---------------------
SHARK GRID GENERATION
---------------------

General Integration Accuracy     IntAcc      ... 4.388
Radial Grid Type                 RadialGrid  ... OptM3 with GC (2021)
Angular Grid (max. ang.)         AngularGrid ... 4 (Lebedev-302)
Angular grid pruning method      GridPruning ... 4 (adaptive)
Weight generation scheme         WeightScheme... mBecke (2022)
Basis function cutoff            BFCut       ... 1.0000e-11
Integration weight cutoff        WCut        ... 1.0000e-14
Partially contracted basis set               ... off
Rotationally invariant grid construction     ... off
Angular grids for H and He will be reduced by one unit
Diffuse basis detected: some atoms will have their outermost
                        angular grid increased by 1.
Steep s-basis detected: some atoms will have their radial
                        grid points doubled.

Total number of grid points                  ...    33054
Total number of batches                      ...      520
Average number of points per batch           ...       63
Average number of grid points per atom       ...     8264
Grids setup in   0.3 sec
Initializing property integral containers    ... done (  0.0 sec)

SHARK setup successfully completed in   0.5 seconds

Maximum memory used throughout the entire STARTUP-calculation: 33.2 MB


           ************************************************************
           *        Program running with 8 parallel MPI-processes     *
           *              working on a common directory               *
           ************************************************************
-------------------------------------------------------------------------------
                                 ORCA GUESS
                   Start orbitals & Density for SCF / CASSCF
-------------------------------------------------------------------------------

------------
SCF SETTINGS
------------
Hamiltonian:
 Density Functional     Method          .... DFT(GTOs)
  Functional kind                       .... Exchange
  Functional name                       .... Minnesota N12 exchange functional
  Functional family                     .... GGA
  Functional refs                              
    [ 0] R. Peverati and D. G. Truhlar.,  J. Chem. Theory Comput. 8, 2310 (2012), doi: 10.1021/ct3002656
  Functional external parameters        .... 16
    Parameter  0 _CC00      =  1.000000e+00 : _CC00               
    Parameter  1 _CC01      =  5.078800e-01 : _CC01               
    Parameter  2 _CC02      =  1.682330e-01 : _CC02               
    Parameter  3 _CC03      =  1.288870e-01 : _CC03               
    Parameter  4 _CC10      =  8.602110e-02 : _CC10               
    Parameter  5 _CC11      = -1.710080e+01 : _CC11               
    Parameter  6 _CC12      =  6.508140e+01 : _CC12               
    Parameter  7 _CC13      = -7.017260e+01 : _CC13               
    Parameter  8 _CC20      = -3.907550e-01 : _CC20               
    Parameter  9 _CC21      =  5.133920e+01 : _CC21               
    Parameter 10 _CC22      = -1.662200e+02 : _CC22               
    Parameter 11 _CC23      =  1.427380e+02 : _CC23               
    Parameter 12 _CC30      =  4.036110e-01 : _CC30               
    Parameter 13 _CC31      = -3.446310e+01 : _CC31               
    Parameter 14 _CC32      =  7.616610e+01 : _CC32               
    Parameter 15 _CC33      = -2.418340e+00 : _CC33               
 Correlation Functional Correlation     .... No Correlation
 Gradients option       PostSCFGGA      .... off


General Settings:
 Integral files         IntName         .... /cluster/projects/nn14654k/ylvaos/basis_set_n_funcs/functionals/gga_x_N12/H2O2/inp/H2O2_gga_x_N12_augccpvqz
 Hartree-Fock type      HFTyp           .... RHF
 Total Charge           Charge          ....    0
 Multiplicity           Mult            ....    1
 Number of Electrons    NEL             ....   18
 Basis Dimension        Dim             ....  252
 Nuclear Repulsion      ENuc            ....     36.7539266700 Eh

Convergence Acceleration:
 AO-DIIS                CNVDIIS         .... on
   Start iteration      DIISMaxIt       ....    12
   Startup error        DIISStart       ....  0.200000
   # of expansion vecs  DIISMaxEq       ....     5
   Bias factor          DIISBfac        ....   1.050
   Max. coefficient     DIISMaxC        ....  10.000
 MO-DIIS                CNVKDIIS        .... off
 Trust-Rad. Augm. Hess. CNVTRAH         .... auto
   Auto Start mean grad. ratio tolernc. ....  1.125000
   Auto Start start iteration           ....    50
   Auto Start num. interpolation iter.  ....    10
   Max. Number of Micro iterations      ....    24
   Max. Number of Macro iterations      .... Maxiter - #DIIS iter
   Number of Davidson start vectors     ....     2
   Converg. threshold    (grad. norm)   ....   1.000e-05
   Grad. Scal. Fac. for Micro threshold ....   0.100
   Minimum threshold for Micro iter.    ....   1.000e-02
   NR start threshold (gradient norm)   ....   1.000e-04
   Initial trust radius                 ....   0.400
   Minimum AH scaling param. (alpha)    ....   1.000
   Maximum AH scaling param. (alpha)    .... 1000.000
   Quad. conv. algorithm                .... NR
   White noise on init. David. guess    .... on
   Maximum white noise                  ....   0.010
   Pseudo random numbers                .... off
   Inactive MOs                         .... canonical
   Orbital update algorithm             .... Taylor
   Preconditioner                       .... Diag
   Full preconditioner red. dimension   ....   250
 SOSCF                 CNVSOSCF           .... on
   Start iteration     SOSCFMaxIt         ....   150
   Startup grad/error  SOSCFStart         ....  0.003300
   Hessian update      SOSCFHessUp        .... L-BFGS
   Autom. constraints  SOSCFAutoConstrain .... off
 Level Shifting         CNVShift        .... on
   Level shift para.    LevelShift      ....    0.2500
   Turn off err/grad.   ShiftErr        ....    0.0010
 Zerner damping         CNVZerner       .... off
 Static damping         CNVDamp         .... on
   Fraction old density DampFac         ....    0.7000
   Max. Damping (<1)    DampMax         ....    0.9800
   Min. Damping (>=0)   DampMin         ....    0.0000
   Turn off err/grad.   DampErr         ....    0.1000

SCF Procedure:
 Maximum # iterations   MaxIter         ....   125
 SCF integral mode      SCFMode         .... Direct
   Integral package                     .... SHARK and LIBINT hybrid scheme
 Reset frequency        DirectResetFreq ....    20
 Integral Threshold     Thresh          ....  2.500e-11 Eh
 Primitive CutOff       TCut            ....  2.500e-12 Eh

Convergence Tolerance:
 Convergence Check Mode ConvCheckMode   .... Total+1el-Energy
 Convergence forced     ConvForced      .... 0
 Energy Change          TolE            ....  1.000e-08 Eh
 1-El. energy change                    ....  1.000e-05 Eh
 Orbital Gradient       TolG            ....  1.000e-05
 Orbital Rotation angle TolX            ....  1.000e-05
 DIIS Error             TolErr          ....  5.000e-07

------------------------------
INITIAL GUESS: MODEL POTENTIAL
------------------------------
Loading Hartree-Fock densities                     ... done
Calculating cut-offs                               ... done
Initializing the effective Hamiltonian             ... done
Setting up the integral package (SHARK)            ... done
Starting the Coulomb interaction                   ... done (   0.0 sec)
Making the grid                                    ... done (   0.0 sec)
Mapping shells                                     ... done
Starting the XC term evaluation                    ... done (   0.0 sec)
  promolecular density results
     # of electrons  =     17.999004873
     EX              =    -16.501940664
     EC              =      0.000000000
     EX+EC           =    -16.501940664
Transforming the Hamiltonian                       ... done (   0.0 sec)
Diagonalizing the Hamiltonian                      ... done (   0.0 sec)
Back transforming the eigenvectors                 ... done (   0.0 sec)
Now organizing SCF variables                       ... done
                      ------------------
                      INITIAL GUESS DONE (   0.1 sec)
                      ------------------
             **** ENERGY FILE WAS UPDATED (/cluster/projects/nn14654k/ylvaos/basis_set_n_funcs/functionals/gga_x_N12/H2O2/inp/H2O2_gga_x_N12_augccpvqz.en.tmp) ****
Finished Guess after   0.2 sec
Maximum memory used throughout the entire GUESS-calculation: 14.8 MB


           ************************************************************
           *        Program running with 8 parallel MPI-processes     *
           *              working on a common directory               *
           ************************************************************

-------------------------------------------------------------------------------------------
                                      ORCA LEAN-SCF
                              memory conserving SCF solver
-------------------------------------------------------------------------------------------

----------------------------------------D-I-I-S--------------------------------------------
Iteration    Energy (Eh)           Delta-E    RMSDP     MaxDP     DIISErr   Damp  Time(sec)
-------------------------------------------------------------------------------------------
               ***  Starting incremental Fock matrix formation  ***
    1    -150.4832135792303234     0.00e+00  2.53e-03  2.64e-02  1.78e-01  0.700   1.2
    2    -150.5181280360989149    -3.49e-02  1.48e-03  1.31e-02  6.93e-02  0.700   1.2
                               ***Turning on AO-DIIS***
    3    -150.5285730800098349    -1.04e-02  7.56e-04  7.77e-03  2.00e-02  0.700   1.2
    4    -150.5355927766910895    -7.02e-03  1.60e-03  1.94e-02  1.11e-02  0.000   1.0
    5    -150.5523496344961245    -1.68e-02  2.35e-04  2.98e-03  4.69e-03  0.000   1.0
                              *** Initializing SOSCF ***
---------------------------------------S-O-S-C-F--------------------------------------
Iteration    Energy (Eh)           Delta-E    RMSDP     MaxDP     MaxGrad    Time(sec)
--------------------------------------------------------------------------------------
    6    -150.5524518482306462    -1.02e-04  1.12e-04  1.01e-03  1.05e-03     1.0
               *** Restarting incremental Fock matrix formation ***
    7    -150.5524584864846815    -6.64e-06  6.49e-05  7.87e-04  2.38e-04     1.0
    8    -150.5524591251622724    -6.39e-07  2.98e-05  4.02e-04  1.24e-04     1.0
    9    -150.5524593275183634    -2.02e-07  1.62e-05  1.66e-04  9.54e-05     0.9
   10    -150.5524594591469736    -1.32e-07  2.36e-06  2.44e-05  2.74e-05     0.9
   11    -150.5524594657167086    -6.57e-09  1.26e-06  1.26e-05  7.79e-06     0.9
                 **** Energy Check signals convergence ****

               *****************************************************
               *                     SUCCESS                       *
               *           SCF CONVERGED AFTER  11 CYCLES          *
               *****************************************************

             **** ENERGY FILE WAS UPDATED (/cluster/projects/nn14654k/ylvaos/basis_set_n_funcs/functionals/gga_x_N12/H2O2/inp/H2O2_gga_x_N12_augccpvqz.en.tmp) ****

----------------
TOTAL SCF ENERGY
----------------

Total Energy       :       -150.55245946738211 Eh           -4096.74070 eV

Components:
Nuclear Repulsion  :         36.75392666998557 Eh            1000.12519 eV
Electronic Energy  :       -187.30638613736770 Eh           -5096.86589 eV
One Electron Energy:       -281.29231736262943 Eh           -7654.35310 eV
Two Electron Energy:         93.98593122526174 Eh            2557.48721 eV

Virial components:
Potential Energy   :       -300.89059546790241 Eh           -8187.64935 eV
Kinetic Energy     :        150.33813600052031 Eh            4090.90866 eV
Virial Ratio       :          2.00142560944657

DFT components:
N(Alpha)           :        8.999953945893 electrons
N(Beta)            :        8.999953945893 electrons
N(Total)           :       17.999907891787 electrons
E(X)               :      -16.771246520591 Eh       
E(C)               :        0.000000000000 Eh       
E(XC)              :      -16.771246520591 Eh       

---------------
SCF CONVERGENCE
---------------

  Last Energy change         ...    6.5697e-09  Tolerance :   1.0000e-08
  Last MAX-Density change    ...    1.2569e-05  Tolerance :   1.0000e-07
  Last RMS-Density change    ...    1.2598e-06  Tolerance :   5.0000e-09
  Last DIIS Error            ...    1.0540e-03  Tolerance :   5.0000e-07
  Last Orbital Gradient      ...    7.7863e-06  Tolerance :   1.0000e-05
  Last Orbital Rotation      ...    8.9337e-06  Tolerance :   1.0000e-05


----------------
ORBITAL ENERGIES
----------------

  NO   OCC          E(Eh)            E(eV) 
   0   2.0000     -18.766566      -510.6642 
   1   2.0000     -18.766561      -510.6641 
   2   2.0000      -0.985561       -26.8185 
   3   2.0000      -0.784662       -21.3517 
   4   2.0000      -0.435849       -11.8600 
   5   2.0000      -0.414080       -11.2677 
   6   2.0000      -0.342436        -9.3181 
   7   2.0000      -0.253789        -6.9060 
   8   2.0000      -0.204440        -5.5631 
   9   0.0000      -0.032731        -0.8907 
  10   0.0000      -0.029382        -0.7995 
  11   0.0000       0.014687         0.3996 
  12   0.0000       0.054339         1.4786 
  13   0.0000       0.059265         1.6127 
  14   0.0000       0.076040         2.0691 
  15   0.0000       0.084561         2.3010 
  16   0.0000       0.098567         2.6821 
  17   0.0000       0.111753         3.0409 
  18   0.0000       0.113344         3.0843 
  19   0.0000       0.123312         3.3555 
*Only the first 10 virtual orbitals were printed.

                    ********************************
                    * MULLIKEN POPULATION ANALYSIS *
                    ********************************

-----------------------
MULLIKEN ATOMIC CHARGES
-----------------------
   0 O :   -0.461110
   1 O :   -0.461110
   2 H :    0.461110
   3 H :    0.461110
Sum of atomic charges:   -0.0000000

--------------------------------
MULLIKEN REDUCED ORBITAL CHARGES
--------------------------------
  0 O s       :     3.747986  s :     3.747986
      pz      :     1.893920  p :     4.623308
      px      :     1.653892
      py      :     1.075495
      dz2     :     0.009471  d :     0.080610
      dxz     :     0.012438
      dyz     :     0.014279
      dx2y2   :     0.028377
      dxy     :     0.016044
      f0      :     0.000947  f :     0.007844
      f+1     :     0.000521
      f-1     :     0.001744
      f+2     :     0.000508
      f-2     :     0.000385
      f+3     :     0.001571
      f-3     :     0.002169
      g0      :     0.000166  g :     0.001362
      g+1     :     0.000052
      g-1     :    -0.000033
      g+2     :     0.000332
      g-2     :     0.000021
      g+3     :     0.000091
      g-3     :     0.000054
      g+4     :     0.000532
      g-4     :     0.000147

  1 O s       :     3.747985  s :     3.747985
      pz      :     1.893920  p :     4.623308
      px      :     1.653892
      py      :     1.075495
      dz2     :     0.009471  d :     0.080610
      dxz     :     0.012438
      dyz     :     0.014279
      dx2y2   :     0.028377
      dxy     :     0.016044
      f0      :     0.000947  f :     0.007844
      f+1     :     0.000521
      f-1     :     0.001744
      f+2     :     0.000508
      f-2     :     0.000385
      f+3     :     0.001571
      f-3     :     0.002169
      g0      :     0.000166  g :     0.001362
      g+1     :     0.000052
      g-1     :    -0.000033
      g+2     :     0.000332
      g-2     :     0.000021
      g+3     :     0.000091
      g-3     :     0.000054
      g+4     :     0.000532
      g-4     :     0.000147

  2 H s       :     0.531354  s :     0.531354
      pz      :     0.007679  p :     0.038454
      px      :     0.024273
      py      :     0.006502
      dz2     :    -0.010880  d :    -0.023717
      dxz     :    -0.007879
      dyz     :     0.000065
      dx2y2   :    -0.001393
      dxy     :    -0.003631
      f0      :    -0.000571  f :    -0.007201
      f+1     :    -0.002690
      f-1     :     0.000074
      f+2     :    -0.001208
      f-2     :    -0.001149
      f+3     :    -0.000685
      f-3     :    -0.000972

  3 H s       :     0.531354  s :     0.531354
      pz      :     0.007679  p :     0.038454
      px      :     0.024273
      py      :     0.006502
      dz2     :    -0.010880  d :    -0.023717
      dxz     :    -0.007879
      dyz     :     0.000065
      dx2y2   :    -0.001393
      dxy     :    -0.003631
      f0      :    -0.000571  f :    -0.007201
      f+1     :    -0.002690
      f-1     :     0.000074
      f+2     :    -0.001208
      f-2     :    -0.001149
      f+3     :    -0.000685
      f-3     :    -0.000972



                     *******************************
                     * LOEWDIN POPULATION ANALYSIS *
                     *******************************

----------------------
LOEWDIN ATOMIC CHARGES
----------------------
   0 O :    0.946384
   1 O :    0.946384
   2 H :   -0.946384
   3 H :   -0.946384

-------------------------------
LOEWDIN REDUCED ORBITAL CHARGES
-------------------------------
  0 O s       :     2.979429  s :     2.979429
      pz      :     1.349705  p :     3.489014
      px      :     1.272925
      py      :     0.866384
      dz2     :     0.030634  d :     0.355075
      dxz     :     0.018243
      dyz     :     0.097432
      dx2y2   :     0.107439
      dxy     :     0.101327
      f0      :     0.023596  f :     0.190293
      f+1     :     0.005314
      f-1     :     0.021510
      f+2     :     0.042320
      f-2     :     0.001719
      f+3     :     0.060449
      f-3     :     0.035385
      g0      :     0.001764  g :     0.039805
      g+1     :     0.000326
      g-1     :     0.007989
      g+2     :     0.003452
      g-2     :     0.001676
      g+3     :     0.000964
      g-3     :     0.006000
      g+4     :     0.005962
      g-4     :     0.011671

  1 O s       :     2.979429  s :     2.979429
      pz      :     1.349705  p :     3.489014
      px      :     1.272925
      py      :     0.866384
      dz2     :     0.030634  d :     0.355075
      dxz     :     0.018243
      dyz     :     0.097432
      dx2y2   :     0.107439
      dxy     :     0.101327
      f0      :     0.023596  f :     0.190293
      f+1     :     0.005314
      f-1     :     0.021510
      f+2     :     0.042320
      f-2     :     0.001719
      f+3     :     0.060449
      f-3     :     0.035385
      g0      :     0.001764  g :     0.039805
      g+1     :     0.000326
      g-1     :     0.007989
      g+2     :     0.003452
      g-2     :     0.001676
      g+3     :     0.000964
      g-3     :     0.006000
      g+4     :     0.005962
      g-4     :     0.011671

  2 H s       :     0.616234  s :     0.616234
      pz      :     0.215064  p :     0.616704
      px      :     0.261080
      py      :     0.140560
      dz2     :     0.093773  d :     0.467660
      dxz     :     0.119071
      dyz     :     0.045357
      dx2y2   :     0.113579
      dxy     :     0.095880
      f0      :     0.016397  f :     0.245786
      f+1     :     0.067112
      f-1     :     0.007674
      f+2     :     0.041470
      f-2     :     0.031507
      f+3     :     0.044787
      f-3     :     0.036838

  3 H s       :     0.616234  s :     0.616234
      pz      :     0.215064  p :     0.616704
      px      :     0.261080
      py      :     0.140560
      dz2     :     0.093773  d :     0.467660
      dxz     :     0.119071
      dyz     :     0.045357
      dx2y2   :     0.113579
      dxy     :     0.095880
      f0      :     0.016397  f :     0.245786
      f+1     :     0.067112
      f-1     :     0.007674
      f+2     :     0.041470
      f-2     :     0.031507
      f+3     :     0.044787
      f-3     :     0.036838



                      *****************************
                      * MAYER POPULATION ANALYSIS *
                      *****************************

  NA   - Mulliken gross atomic population
  ZA   - Total nuclear charge
  QA   - Mulliken gross atomic charge
  VA   - Mayer's total valence
  BVA  - Mayer's bonded valence
  FA   - Mayer's free valence

  ATOM       NA         ZA         QA         VA         BVA        FA
  0 O      8.4611     8.0000    -0.4611     1.9662     1.9662    -0.0000
  1 O      8.4611     8.0000    -0.4611     1.9662     1.9662     0.0000
  2 H      0.5389     1.0000     0.4611     0.7625     0.7625    -0.0000
  3 H      0.5389     1.0000     0.4611     0.7625     0.7625    -0.0000

  Mayer bond orders larger than 0.100000
B(  0-O ,  1-O ) :   1.2060 B(  0-O ,  2-H ) :   0.7315 B(  1-O ,  3-H ) :   0.7315 


-------
TIMINGS
-------

Total SCF time: 0 days 0 hours 0 min 12 sec 

Total time                  ....      12.307 sec
Sum of individual times     ....      11.468 sec  ( 93.2%)

SCF preparation             ....       0.137 sec  (  1.1%)
Fock matrix formation       ....      10.878 sec  ( 88.4%)
  Startup                   ....       0.011 sec  (  0.1% of F)
  Coulomb formation         ....      10.805 sec  ( 99.3% of F)
  XC integration            ....       0.694 sec  (  6.4% of F)
    XC Preparation          ....       0.000 sec  (  0.0% of XC)
    Basis function eval.    ....       0.089 sec  ( 12.9% of XC)
    Density eval.           ....       0.118 sec  ( 17.1% of XC)
    XC-Functional eval.     ....       0.012 sec  (  1.7% of XC)
    XC-Potential eval.      ....       0.285 sec  ( 41.1% of XC)
Diagonalization             ....       0.000 sec  (  0.0%)
Density matrix formation    ....       0.063 sec  (  0.5%)
Total Energy calculation    ....       0.019 sec  (  0.2%)
Population analysis         ....       0.017 sec  (  0.1%)
Orbital Transformation      ....       0.032 sec  (  0.3%)
Orbital Orthonormalization  ....       0.000 sec  (  0.0%)
DIIS solution               ....       0.229 sec  (  1.9%)
SOSCF solution              ....       0.093 sec  (  0.8%)
Finished LeanSCF after  12.3 sec

Maximum memory used throughout the entire LEANSCF-calculation: 24.7 MB


           ************************************************************
           *        Program running with 8 parallel MPI-processes     *
           *              working on a common directory               *
           ************************************************************

------------------------------------------------------------------------------
                         ORCA PROPERTY INTEGRAL CALCULATIONS
------------------------------------------------------------------------------

GBWName                                   ... /cluster/projects/nn14654k/ylvaos/basis_set_n_funcs/functionals/gga_x_N12/H2O2/inp/H2O2_gga_x_N12_augccpvqz.gbw
Number of atoms                           ...      4
Number of basis functions                 ...    266
Max core memory                           ...   4096 MB

Dipole integrals                          ... YES
Quadrupole integrals                      ... YES
Linear momentum integrals                 ...  NO
Angular momentum integrals                ...  NO
Higher moments length integrals           ...  NO
Higher moments velocity integrals         ...  NO
Kinetic energy integrals                  ...  NO
GIAO right hand sides                     ...  NO
GIAO dipole derivative integrals          ...  NO
SOC integrals                             ...  NO
EPR diamagnetic integrals (GIAO)          ...  NO
EPR gauge integrals                       ...  NO
Field gradient integrals                  ...  NO (   0 nuclei)
Spin-dipole/Fermi contact integrals       ...  NO (   0 nuclei)
Contact density integrals                 ...  NO (   0 nuclei)
Nucleus-orbit integrals                   ...  NO (   0 nuclei)
Geometric perturbations                   ...  NO (   4 nuclei)

Choice of electric origin   ... Center of mass
Position of electric origin ... (  0.0000,  0.0000, -0.0466) 
Choice of magnetic origin   ... GIAO
Position of magnetic origin ... (  0.0000,  0.0000,  0.0000) 

Calculating integrals                     ... Electric Dipole (Length)     done (  0.0 sec)
Calculating integrals                     ... Electric Quadrupole (Length) done (  0.0 sec)

Property integrals calculated in   0.0 sec

Maximum memory used throughout the entire PROPINT-calculation: 16.1 MB
------------------------------------------------------------------------------
                           ORCA ORBITAL LOCALIZATION
------------------------------------------------------------------------------

Input orbitals are from                  ... /cluster/projects/nn14654k/ylvaos/basis_set_n_funcs/functionals/gga_x_N12/H2O2/inp/H2O2_gga_x_N12_augccpvqz.gbw
Output orbitals are to                   ... /cluster/projects/nn14654k/ylvaos/basis_set_n_funcs/functionals/gga_x_N12/H2O2/inp/H2O2_gga_x_N12_augccpvqz.loc
Max. number of iterations                ... 128
Localizations seeded randomly            ... on
Convergence tolerance                    ... 1.000e-06
Threshold for strong local MOs           ... 9.500e-01
Threshold for bond MOs                   ... 8.500e-01
Operator                                 ... 0
Orbital range for localization           ... 2 to 8
Localization criterion                   ... NEW-BOYS
Doing the dipole integrals               ... o.k.
Initial value of the localization sum :    13.685233
ITERATION   0 : L=   16.9498171488 DL=  3.26e+00 (AVERGE_DL)=    0.3942795770 
ITERATION   1 : L=   17.1662012280 DL=  2.16e-01 (AVERGE_DL)=    0.1015086389 
ITERATION   2 : L=   17.1888412631 DL=  2.26e-02 (AVERGE_DL)=    0.0328343861 
ITERATION   3 : L=   17.1907848898 DL=  1.94e-03 (AVERGE_DL)=    0.0096204808 
ITERATION   4 : L=   17.1909587424 DL=  1.74e-04 (AVERGE_DL)=    0.0028772724 
ITERATION   5 : L=   17.1909740764 DL=  1.53e-05 (AVERGE_DL)=    0.0008545119 
ITERATION   6 : L=   17.1909754420 DL=  1.37e-06 (AVERGE_DL)=    0.0002550059 
ITERATION   7 : L=   17.1909755638 DL=  1.22e-07 (AVERGE_DL)=    0.0000761548 
LOCALIZATION SUM CONVERGED


--------------------------------------------------------------------------------
                    LOCALIZED MOLECULAR ORBITAL COMPOSITIONS
--------------------------------------------------------------------------------

The Mulliken populations for each LMO on each atom are computed
The LMO`s will be ordered according to atom index and type
  (A) Strongly localized MO`s have populations of >=0.950 on one atom
  (B) Two center bond orbitals have populations of >=0.850 on two atoms
  (C) Other MO`s are considered to be `delocalized`

FOUND  -   4 strongly local MO`s
       -   3 two center bond MO`s
       -   0 significantly delocalized MO`s

Rather strongly localized orbitals:
MO   5:   1O  -   0.995325
MO   4:   1O  -   1.003117
MO   3:   0O  -   0.995325
MO   2:   0O  -   1.003117
Bond-like localized orbitals:
MO   8:   3H  -   0.285962  and   1O  -   0.719027
MO   7:   2H  -   0.285962  and   0O  -   0.719027
MO   6:   1O  -   0.508642  and   0O  -   0.508642
Localized MO's were stored in: /cluster/projects/nn14654k/ylvaos/basis_set_n_funcs/functionals/gga_x_N12/H2O2/inp/H2O2_gga_x_N12_augccpvqz.loc

-------------------------   --------------------
FINAL SINGLE POINT ENERGY      -150.552459467382
-------------------------   --------------------



           ************************************************************
           *        Program running with 8 parallel MPI-processes     *
           *              working on a common directory               *
           ************************************************************

------------------------------------------------------------------------------
                              ORCA PROPERTY CALCULATIONS
------------------------------------------------------------------------------

GBWName                                 ... /cluster/projects/nn14654k/ylvaos/basis_set_n_funcs/functionals/gga_x_N12/H2O2/inp/H2O2_gga_x_N12_augccpvqz.gbw
Number of atoms                         ...      4
Number of basis functions               ...    266
Max core memory                         ...   4096 MB

Electric properties:
Dipole moment                           ... YES
Quadrupole moment                       ... YES
Static polarizability (Dipole/Dipole)   ...  NO
Static polarizability (Dipole/Quad.)    ...  NO
Static polarizability (Quad./Quad.)     ...  NO
Static polarizability (Velocity)        ...  NO
Static hyperpolarizability              ...  NO

Atomic electric properties:
Dipole moment                           ...  NO
Quadrupole moment                       ...  NO
Static polarizability                   ...  NO

Choice of electric origin               ... Center of mass
Position of electric origin             ...     0.000000     0.000000    -0.046598

General magnetic properties:
Magnetizability                         ...  NO

EPR properties:
g-Tensor (aka g-matrix)                 ...  NO
Zero-Field splitting spin-orbit         ...  NO
Zero-field splitting spin-spin          ...  NO
Hyperfine couplings                     ...  NO (   0 nuclei)
Quadrupole couplings                    ...  NO (   0 nuclei)
Contact density                         ...  NO (   0 nuclei)

NMR properties:
Chemical shifts                         ...  NO (   0 nuclei)
Spin-rotation constants                 ...  NO (   0 nuclei)
Spin-spin couplings                     ...  NO (   0 nuclei,    0 pairs)

Choice of magnetic origin               ... GIAO
Position of magnetic origin             ...     0.000000     0.000000     0.000000

Properties with geometric perturbations:
SCF Hessian                             ...  NO
IR spectrum                             ...  NO
VCD spectrum                            ...  NO
X-ray spectroscopy properties:
SCF XES/XAS/RIXS spectra                ...  NO

SCF SOC stabilization energy            ...  NO
Diagonal Born-Oppenheimer correction    ...  NO

-------------
DIPOLE MOMENT
-------------

Method             : SCF
Type of density    : Electron Density
Multiplicity       :   1
Irrep              :   0
Energy             :  -150.5524594673821071 Eh
Basis              : AO
                                X                 Y                 Z
Electronic contribution:      0.000000001       0.000000001      -0.222843394
Nuclear contribution   :      0.000000000       0.000000000       0.837257014
                        -----------------------------------------
Total Dipole Moment    :      0.000000001       0.000000001       0.614413620
                        -----------------------------------------
Magnitude (a.u.)       :      0.614413620
Magnitude (Debye)      :      1.561715310



--------------------
Rotational spectrum 
--------------------
 
Rotational constants in cm-1:            10.059327             0.874309             0.838612 
Rotational constants in MHz :        301571.027575         26211.132260         25140.954138 

Dipole components along the rotational axes: 
x,y,z [a.u.] :    -0.000000    -0.000000     0.614414 
x,y,z [Debye]:    -0.000000    -0.000000     1.561715 

 

Dipole moment calculation done in   0.0 sec 

-----------------
QUADRUPOLE MOMENT
-----------------

Method             : SCF
Type of density    : Electron Density
Multiplicity       :   1
Irrep              :   0
Energy             :  -150.5524594673821071 Eh
Basis              : AO

                XX              YY              ZZ              XY              XZ              YZ
  NUC        4.790662075    35.844484981     1.470132228     4.778963266     0.000000000     0.000000000
  EL       -12.165641652   -45.115478208   -10.682338900    -2.792766059     0.000000001    -0.000000000
  TOT       -7.374979577    -9.270993227    -9.212206672     1.986197207     0.000000001    -0.000000000 (a.u.)
            -9.919599756   -12.469802958   -12.390733032     2.671503171     0.000000001    -0.000000001 (Buckingham)

diagonalized tensor:
           -10.523826307    -9.212206672    -6.122146498 (a.u.)
           -14.154906297   -12.390733032    -8.234496417 (Buckingham)
            -7.684583146    -2.392063349    10.076646495 (traceless form in Buckingham)

            -0.533503634    -0.000000000     0.845797773
             0.845797773     0.000000000     0.533503634
             0.000000001    -1.000000000     0.000000000
        
Isotropic quadrupole :    -8.619393159

Quadrupole moment calculation done in   0.0 sec (  0.0 sec for integrals)

Maximum memory used throughout the entire PROP-calculation: 11.3 MB

--------------------------------
SUGGESTED CITATIONS FOR THIS RUN
--------------------------------

Below you find a list of papers that are relevant to this ORCA run
We neither can nor want to force you to cite these papers, but we appreciate if you do
You receive ORCA, which is the product of decades of hard work by many enthusiastic individuals, for free
The only thing we kindly ask in return is that you cite our papers,
We deeply appreciate it, if you show your appreciation for ORCA by not just citing the generic ORCA reference.

Please note that relegating all ORCA citations to the supporting information does *not* help us.
SI sections are not indexed - citations you put there will not count into any citation statistics
But we need these citations in order to attract the funding resources that allow us to do what we are doing

Therefore, if you are a happy ORCA user, please consider citing a few of the papers listed below in the main body of your paper

In addition to the list printed below, the program has created the file /cluster/projects/nn14654k/ylvaos/basis_set_n_funcs/functionals/gga_x_N12/H2O2/inp/H2O2_gga_x_N12_augccpvqz.bibtex that contains the list in bibtex format
You can import this file easily into all common literature databanks and citation aid programs

It goes without saying that in many instances, there are alternative algorithms to achieve similar
results as the ones you have gotten from ORCA. It is, of course, also the case that in some instances
ORCA just re-implements algorithms worked out by others. We are fully aware of that and we are also
fully appreciative of our colleagues work. Hence this citation list should not be read as indicating
that the listed papers, which are focused on our own work, are the only ones worth citing. It simply
meant to make it easier for users to cite ORCA specific papers. It is not a substitute for doing your
own literature research and citing the relevant literature in a scientifically appropriate manner.

List of essential papers. We consider these as the minimum necessary citations

  1. Neese, F.
     Software update: the ORCA program system, version 6.0
     WIRES Comput. Molec. Sci. 2025 15(1), e70019
     doi.org/10.1002/wcms.70019

List of papers to cite with high priority. The work reported in these papers was absolutely
necessary for this run to complete.
Our perspective: the developers of density functionals and basis sets usually get cited in chemistry papers
Good! But without the algorithms to do something with them, the functionals or basis sets would not do anything.
Hence, in our opinion, the algorithm design and method developments papers are equally worthy of getting cited

  1. Lehtola, S.; Steigemann, C.; Oliveira, M.; Marques, M.
     Recent developments in Libxc - A comprehensive library of functionals for density functional theory
     Software X 2018 7 , 
     doi.org/10.1016/j.softx.2017.11.002
  2. Neese, F.
     The SHARK Integral Generation and Digestion System
     J. Comp. Chem. 2022 44(3), 381
     doi.org/10.1002/jcc.26942

List of suggested additional citations. These are papers that are important in the 'surrounding' of 
of this run, or papers that preceded the highly important papers. If you like your results we are grateful for a citation.

  1. Neese, F.
     The ORCA program system
     WIRES Comput. Molec. Sci. 2012 2(1), 73-78
     doi.org/10.1002/wcms.81
  2. Neese, F.
     Software update: the ORCA program system, version 4.0
     WIRES Comput. Molec. Sci. 2018 8(1), 1-6
     doi.org/10.1002/wcms.1327
  3. Neese, F.; Wennmohs, F.; Becker, U.; Riplinger, C.
     The ORCA quantum chemistry program package
     J. Chem. Phys. 2020 152(22), 224108
     doi.org/10.1063/5.0004608
  4. Neese, F.
     Software update: The ORCA program system—Version 5.0
     WIRES Comput. Molec. Sci. 2022 12(1), e1606
     doi.org/10.1002/wcms.1606

List of optional additional citations

  1. Neese, F.
     Approximate second-order SCF convergence for spin unrestricted wavefunctions
     Chem. Phys. Lett. 2000 325(1-3), 93-98
     doi.org/10.1016/s0009-2614(00)00662-x

Timings for individual modules:

Sum of individual times          ...       14.424 sec (=   0.240 min)
Startup calculation              ...        0.915 sec (=   0.015 min)   6.3 %
SCF iterations                   ...       12.929 sec (=   0.215 min)  89.6 %
Property integrals               ...        0.277 sec (=   0.005 min)   1.9 %
Property calculations            ...        0.296 sec (=   0.005 min)   2.1 %
Orbital localization             ...        0.006 sec (=   0.000 min)   0.0 %
                             ****ORCA TERMINATED NORMALLY****
TOTAL RUN TIME: 0 days 0 hours 0 minutes 15 seconds 121 msec
