
                                 *****************
                                 * O   R   C   A *
                                 *****************

                                            #,                                       
                                            ###                                      
                                            ####                                     
                                            #####                                    
                                            ######                                   
                                           ########,                                 
                                     ,,################,,,,,                         
                               ,,#################################,,                 
                          ,,##########################################,,             
                       ,#########################################, ''#####,          
                    ,#############################################,,   '####,        
                  ,##################################################,,,,####,       
                ,###########''''           ''''###############################       
              ,#####''   ,,,,##########,,,,          '''####'''          '####       
            ,##' ,,,,###########################,,,                        '##       
           ' ,,###''''                  '''############,,,                           
         ,,##''                                '''############,,,,        ,,,,,,###''
      ,#''                                            '''#######################'''  
     '                                                          ''''####''''         
             ,#######,   #######,   ,#######,      ##                                
            ,#'     '#,  ##    ##  ,#'     '#,    #''#        ,####,    ,#,          
            ##       ##  ##   ,#'  ##            #'  '#       #'       ,# #          
            ##       ##  #######   ##           ,######,      #####,      #          
            '#,     ,#'  ##    ##  '#,     ,#' ,#      #,     #,   #      #          
             '#######'   ##     ##  '#######'  #'      '#     '####' #    #          



                #########################################################
                #                        -***-                          #
                #          Department of theory and spectroscopy        #
                #                                                       #
                #                      Frank Neese                      #
                #                                                       #
                #     Directorship, Architecture, Infrastructure        #
                #                    SHARK, DRIVERS                     #
                #        Core code/Algorithms in most modules           #
                #                                                       #
                #        Max Planck Institute fuer Kohlenforschung      #
                #                Kaiser Wilhelm Platz 1                 #
                #                 D-45470 Muelheim/Ruhr                 #
                #                      Germany                          #
                #                                                       #
                #                  All rights reserved                  #
                #                        -***-                          #
                #########################################################


                         Program Version 6.1.1  -  RELEASE   -
                                (GIT: $487d211c$)
                          ($2025-11-21 10:33:24 +0100$)


 With contributions from (in alphabetic order):
[Max-Planck-Institut fuer Kohlenforschung]                               
  Daniel Aravena         : Magnetic Suceptibility                        
  Michael Atanasov       : Ab Initio Ligand Field Theory (pilot matlab implementation)
  Alexander A. Auer      : GIAO ZORA, VPT2 properties, NMR spectrum      
  Ute Becker             : All parallelization in ORCA, NUMFREQ, NUMCALC 
  Giovanni Bistoni       : ED, misc. LED, open-shell LED, HFLD           
  Dmytro Bykov           : pre 5.0 version of the SCF Hessian            
  Marcos Casanova-Páez   : Triplet and SCS-CIS(D). UHF-(DLPNO)-IP/EA/STEOM-CCSD. UHF-CVS-IP/STEOM-CCSD   
  Vijay G. Chilkuri      : MRCI spin determinant printing, contributions to CSF-ICE 
  Pauline Colinet        : FMM embedding                                 
  Dipayan Datta          : RHF DLPNO-CCSD density                        
  Achintya Kumar Dutta   : EOM-CC, STEOM-CC                              
  Nicolas Foglia         : Exact transition moments, OPA infrastructure, MCD improvements    
  Dmitry Ganyushin       : Spin-Orbit,Spin-Spin,Magnetic field MRCI      
  Miquel Garcia-Rates    : C-PCM and meta-GGA Hessian, CCSD/C-PCM, Gaussian charge scheme 
  Tiago L. C. Gouveia    : GS-ROHF, GS-ROCIS                             
  Yang Guo               : DLPNO-NEVPT2, F12-NEVPT2, CIM, IAO-localization        
  Andreas Hansen         : Spin unrestricted coupled pair/coupled cluster methods 
  Ingolf Harden          : AUTO-CI MPn and infrastructure                
  Benjamin Helmich-Paris : MC-RPA, TRAH-(SCF,CASSCF), AVAS, COSX integrals, SCF dyn. polar., MC-PDFT, srDFT 
  Lee Huntington         : MR-EOM, pCC                                   
  Robert Izsak           : Overlap fitted RIJCOSX, COSX-SCS-MP3, EOM     
  Riya Kayal             : Wick's Theorem for AUTO-CI, AUTO-CI UHF-CCSDT 
  Emily Kempfer          : AUTO-CI RHF CISDT and CCSDT, approximate NEVPT4
  Christian Kollmar      : KDIIS, OOCD, Brueckner-CCSD(T), CCSD density, CASPT2, CASPT2-K, improved NEVPT2 
  Axel Koslowski         : Symmetry handling                             
  Simone Kossmann        : meta-GGA functionals, TD-DFT gradient, OOMP2, (MP2 Hessian; deprecated post 5.0) 
  Lucas Lang             : DCDCAS, Hyperfine gauge corrections, ICE-SOC+SSC
  Marvin Lechner         : AUTO-CI (C++ implementation), FIC-MRCC        
  Spencer Leger          : CASSCF response                               
  Dagmar Lenk            : GEPOL surface, SMD, ORCA-2-JSON               
  Dimitrios Liakos       : Extrapolation schemes; Compound Job, Property file
  Dimitrios Manganas     : Further ROCIS development; embedding schemes. LFT, Crystal Embedding 
  Dimitrios Pantazis     : SARC Basis sets                               
  Anastasios Papadopoulos: AUTO-CI, single reference methods and gradients 
  Taras Petrenko         : pre 6.0 DFT Hessian and TD-DFT gradient,  ECA, NRVS 
  Petra Pikulova         : Analytic Raman intensities                    
  Peter Pinski           : DLPNO-MP2, DLPNO-MP2 Gradient                 
  Shashank Vittal Rao    : ES-AILFT, MagRelax                            
  Christoph Reimann      : Effective Core Potentials                     
  Marius Retegan         : Local ZFS, SOC                                
  Christoph Riplinger    : Optimizer, TS searches, QM/MM, DLPNO-CCSD(T), (RO)-DLPNO pert. Triples 
  Michael Roemelt        : Original ROCIS implementation, recursive CI coupling coefficients
  Masaaki Saitow         : Open-shell DLPNO-CCSD energy and density      
  Barbara Sandhoefer     : DKH picture change effects                    
  Yorick L. A. Schmerwitz: GMF and freeze-and-release deltaSCF, NEB S-IDPP initial path                    
  Kantharuban Sivalingam : CASSCF convergence/infrastructure, NEVPT2, NEVPT3, NEVPT4(SD), FIC-MRCI and CEPA variants
  Bernardo de Souza      : ESD, SOC TD-DFT                               
  Georgi L. Stoychev     : AutoAux, RI-MP2 NMR, DLPNO-MP2 response, X2C  
  Van Anh Tran           : RI-MP2 g-tensors                              
  Willem Van den Heuvel  : Paramagnetic NMR                              
  Zikuan Wang            : NOTCH, Electric field optimization            
  Frank Wennmohs         : Technical directorship and infrastructure     
  Hang Xu                : AUTO-CI-Response properties                   
                                                                         
[FACCTs GmbH]                                                            
  Markus Bursch, Nicolas Foglia, Miquel Garcia-Rates, Ingolf Harden, Hagen Neugebauer, Anastasios Papadopoulos, 
  Christoph Riplinger, Bernardo de Souza, Georgi L. Stoychev                                                    
                                                                 
  APM, various basis sets, CI-OPT, improved COSX, DLPNO-Multilevel,           
  DOCKER, DRACO, updates on ESD, Fragmentator, GOAT, IRC, LR-CPCM, L-BFGS, MBIS, meta-GGA TD-DFT gradient, ML-optimized integration grids, 
  MM, NACMEs, nearIR, NEB, NEB-TS, NL-DFT gradient (VV10), 2- and 3-layer-ONIOM, interface openCOSMO-RS, QMMM,   
  Crystal-QMMM, RESP, rigid body optimization, SF, symmetry and pop. for TD-DFT, various functionals, SOLVATOR                                   
                                                                         
[Other institutions]                                                     
  V. Asgeirsson          : NEB                                           
  Christoph Bannwarth    : sTDA-DFT, sTD-DFT, PBEh-3c, B97-3c, D3        
  Giovanni Bistoni       : ETS/NOCV, ADLD/ADEX, COVALED                  
  Martin Brehm           : Molecular dynamics                            
  Ronald Cardenas        : ETS/NOCV                                      
  Martina Colucci        : COVALED                                       
  Sebastian Ehlert       : rSCAN, r2SCAN, r2SCAN-3c, D4, dhf basis sets  
  Marvin Friede          : D4 for Fr, Ra, Ac-Lr                          
  Lars Goerigk           : TD-DFT with DH, B97 family of functionals     
  Stefan Grimme          : VdW corrections, initial TS optimization, DFT functionals, gCP, sTDA/sTD-DF 
  Waldemar Hujo          : DFT-NL                                        
  H. Jonsson             : NEB                                           
  Holger Kruse           : gCP                                           
  Marcel Mueller         : wB97X-3c, vDZP basis set                      
  Hagen Neugebauer       : wr2SCAN, Native XTB                           
  Gianluca Regni         : ADLD/ADEX                                     
  Tobias Risthaus        : pre 6.0 range-separated hybrid DFT and stability analysis
  Lukas Wittmann         : regularized MP2, r2SCAN double-hybrids, wr2SCAN        
                                                                         
We gratefully acknowledge several colleagues who have allowed us to      
interface, adapt or use parts of their codes:                            
  Ed Valeev, F. Pavosevic, A. Kumar             : LibInt (2-el integral package), F12 methods 
  Garnet Chan, S. Sharma, J. Yang, R. Olivares  : DMRG                   
  Ulf Ekstrom                                   : XCFun DFT Library      
  Mihaly Kallay                                 : mrcc  (arbitrary order and MRCC methods)
  Frank Weinhold                                : gennbo (NPA and NBO analysis)           
  Simon Mueller                                 : openCOSMO-RS                            
  Christopher J. Cramer and Donald G. Truhlar   : smd solvation model                     
  S Lehtola, MJT Oliveira, MAL Marques          : LibXC Library                           
  Liviu Ungur et al                             : ANISO software                          


 Your calculation uses the libint2 library for the computation of 2-el integrals
 For citations please refer to: http://libint.valeyev.net

 Your ORCA version has been built with support for libXC version: 7.0.0
 For citations please refer to: https://libxc.gitlab.io

 This ORCA versions uses:
   CBLAS   interface :  Fast vector & matrix operations
   LAPACKE interface :  Fast linear algebra routines
   SCALAPACK package :  Parallel linear algebra routines
   Shared memory     :  Shared parallel matrices
   BLAS/LAPACK       :  OpenBLAS 0.3.29  USE64BITINT DYNAMIC_ARCH NO_AFFINITY Cooperlake SINGLE_THREADED
        Core in use  :  Cooperlake
   Copyright (c) 2011-2014, The OpenBLAS Project


  ***********************************
  * Starting time: Wed May 20 12:38:34 2026
  * Host name:     c1-4
  * Process ID:    564864
  * Working dir.:  /cluster/projects/nn14654k/ylvaos/basis_set_n_funcs/functionals/gga_c_pw91/PO2/out
  ***********************************

Using LibXC functional ID 134 : Perdew & Wang 91
[ 1]  J. P. Perdew. In P. Ziesche and H. Eschrig, editors, Proceedings of the 75. WE-Heraeus-Seminar and 21st Annual International Symposium on Electronic Structure of Solids, 11. Berlin, 1991. Akademie Verlag.
[ 2]  J. P. Perdew, J. A. Chevary, S. H. Vosko, K. A. Jackson, M. R. Pederson, D. J. Singh, and C. Fiolhais.,  Phys. Rev. B 46, 6671 (1992)
[ 3]  J. P. Perdew, J. A. Chevary, S. H. Vosko, K. A. Jackson, M. R. Pederson, D. J. Singh, and C. Fiolhais.,  Phys. Rev. B 48, 4978 (1993)
Using LibXC functional ID 134 : Perdew & Wang 91
[ 1]  J. P. Perdew. In P. Ziesche and H. Eschrig, editors, Proceedings of the 75. WE-Heraeus-Seminar and 21st Annual International Symposium on Electronic Structure of Solids, 11. Berlin, 1991. Akademie Verlag.
[ 2]  J. P. Perdew, J. A. Chevary, S. H. Vosko, K. A. Jackson, M. R. Pederson, D. J. Singh, and C. Fiolhais.,  Phys. Rev. B 46, 6671 (1992)
[ 3]  J. P. Perdew, J. A. Chevary, S. H. Vosko, K. A. Jackson, M. R. Pederson, D. J. Singh, and C. Fiolhais.,  Phys. Rev. B 48, 4978 (1993)
Your calculation utilizes LibXC
by S. Lehtola, C. Steigemann, M. J. T. Oliveira & M. A. L. Marques
Please cite in your paper:
Lehtola, S.; Steigemann, C.; Oliveira, M.J.T.; Marques, M. A. L. Software X, 7, (2018), 1.
   

================================================================================

----- Orbital basis set information -----
Your calculation utilizes the basis: aug-cc-pVTZ 
    H, B-Ne : Obtained from the ccRepo (grant-hill.group.shef.ac.uk/ccrepo) Feb. 2017
              R. A. Kendall, T. H. Dunning, Jr., R. J. Harrison, J. Chem. Phys. 96, 6796 (1992)
         He : Obtained from the ccRepo (grant-hill.group.shef.ac.uk/ccrepo) Feb. 2017
              D. E. Woon, T. H. Dunning, Jr., J. Chem. Phys. 100, 2975 (1994)
  Li-Be, Na : Obtained from the ccRepo (grant-hill.group.shef.ac.uk/ccrepo) Feb. 2017
              B. P. Prascher, D. E. Woon, K. A. Peterson, T. H. Dunning, Jr., A. K. Wilson, Theor. Chem. Acc. 128, 69 (2011)
         Mg : Obtained from the Peterson Research Group Website (tyr0.chem.wsu.edu/~kipeters) Feb. 2017
              B. P. Prascher, D. E. Woon, K. A. Peterson, T. H. Dunning, Jr., A. K. Wilson, Theor. Chem. Acc. 128, 69 (2011)
      Al-Ar : Obtained from the ccRepo (grant-hill.group.shef.ac.uk/ccrepo) Feb. 2017
              D. E. Woon, T. H. Dunning, Jr., J. Chem. Phys. 98, 1358 (1993)
      Sc-Zn : Obtained from the ccRepo (grant-hill.group.shef.ac.uk/ccrepo) Feb. 2017
              N. B. Balabanov, K. A. Peterson, J. Chem. Phys. 123, 064107 (2005)
              N. B. Balabanov, K. A. Peterson, J. Chem. Phys. 125, 074110 (2006)
      Ga-Kr : Obtained from the ccRepo (grant-hill.group.shef.ac.uk/ccrepo) Feb. 2017
              A. K. Wilson, D. E. Woon, K. A. Peterson, T. H. Dunning, Jr., J. Chem. Phys. 110, 7667 (1999)
     Ag, Au : Obtained from the Peterson Research Group Website (tyr0.chem.wsu.edu/~kipeters) Feb. 2017
              K. A. Peterson, C. Puzzarini, Theor. Chem. Acc. 114, 283 (2005)

================================================================================
                                        WARNINGS
                       Please study these warnings very carefully!
================================================================================


WARNING: your system is open-shell and RHF/RKS was chosen
  ===> : WILL SWITCH to UHF/UKS


================================================================================
                                       INPUT FILE
================================================================================
NAME = /cluster/projects/nn14654k/ylvaos/basis_set_n_funcs/functionals/gga_c_pw91/PO2/inp/PO2_gga_c_pw91_augccpvtz.inp
|  1> ! dft aug-cc-pVTZ TightSCF
|  2> %pal nprocs 8 end
|  3> 
|  4> %loc
|  5>   LocMet NewBoys
|  6>   Occ true
|  7> end
|  8> 
|  9> %method
| 10>   exchange None
| 11>   correlation gga_c_pw91
| 12> end
| 13> 
| 14> %elprop
| 15>   Dipole true
| 16>   Quadrupole true
| 17> end
| 18> 
| 19> * xyz 0 2
| 20> P    0.000000000000   0.000000000000   0.287900000000
| 21> O    0.000000000000   1.356300000000  -0.269900000000
| 22> O    0.000000000000  -1.356300000000  -0.269900000000
| 23> *
| 24> 
| 25> 
| 26>                          ****END OF INPUT****
================================================================================

                       ****************************
                       * Single Point Calculation *
                       ****************************

---------------------------------
CARTESIAN COORDINATES (ANGSTROEM)
---------------------------------
  P      0.000000    0.000000    0.287900
  O      0.000000    1.356300   -0.269900
  O      0.000000   -1.356300   -0.269900

----------------------------
CARTESIAN COORDINATES (A.U.)
----------------------------
  NO LB      ZA    FRAG     MASS         X           Y           Z
   0 P    15.0000    0    30.974    0.000000    0.000000    0.544052
   1 O     8.0000    0    15.999    0.000000    2.563036   -0.510037
   2 O     8.0000    0    15.999    0.000000   -2.563036   -0.510037

--------------------------------
INTERNAL COORDINATES (ANGSTROEM)
--------------------------------
 P      0   0   0     0.000000000000     0.00000000     0.00000000
 O      1   0   0     1.466523279733     0.00000000     0.00000000
 O      1   2   0     1.466523279733   135.28860674     0.00000000

---------------------------
INTERNAL COORDINATES (A.U.)
---------------------------
 P      0   0   0     0.000000000000     0.00000000     0.00000000
 O      1   0   0     2.771327367716     0.00000000     0.00000000
 O      1   2   0     2.771327367716   135.28860674     0.00000000

---------------------
BASIS SET INFORMATION
---------------------
There are 2 groups of distinct atoms

 Group   1 Type P   : 42s17p3d2f contracted to 6s5p3d2f pattern {131313111/77111/111/11}
 Group   2 Type O   : 19s6p3d2f contracted to 5s4p3d2f pattern {88111/3111/111/11}

Atom   0P    basis set group =>   1
Atom   1O    basis set group =>   2
Atom   2O    basis set group =>   2


           ************************************************************
           *        Program running with 8 parallel MPI-processes     *
           *              working on a common directory               *
           ************************************************************
------------------------------------------------------------------------------
                             ORCA STARTUP CALCULATIONS
------------------------------------------------------------------------------
------------------------------------------------------------------------------
                   ___                                                        
                  /   \      - P O W E R E D   B Y -                         
                 /     \                                                     
                 |  |  |   _    _      __       _____    __    __             
                 |  |  |  | |  | |    /  \     |  _  \  |  |  /  |          
                  \  \/   | |  | |   /    \    | | | |  |  | /  /          
                 / \  \   | |__| |  /  /\  \   | |_| |  |  |/  /          
                |  |  |   |  __  | /  /__\  \  |    /   |      \           
                |  |  |   | |  | | |   __   |  |    \   |  |\   \          
                \     /   | |  | | |  |  |  |  | |\  \  |  | \   \       
                 \___/    |_|  |_| |__|  |__|  |_| \__\ |__|  \__/        
                                                                              
                      - O R C A' S   B I G   F R I E N D -                    
                                      &                                       
                       - I N T E G R A L  F E E D E R -                       
                                                                              
 v1 FN, 2020, v2 2021, v3 2022-2024                                           
------------------------------------------------------------------------------


----------------------
SHARK INTEGRAL PACKAGE
----------------------

Number of atoms                             ...      3
Number of basis functions                   ...    179
Number of shells                            ...     71
Maximum angular momentum                    ...      3
Integral batch strategy                     ... SHARK/LIBINT Hybrid
RI-J (if used) integral strategy            ... SPLIT-RIJ (Revised 2003 algorithm where possible)
Printlevel                                  ...      1
Contraction scheme used                     ... PARTIAL GENERAL contraction
Prescreening option                         ... SCHWARTZ
   Thresh                                   ... 2.500e-11
   Tcut                                     ... 2.500e-12
   Tpresel                                  ... 2.500e-12 
Coulomb Range Separation                    ... NOT USED
Exchange Range Separation                   ... NOT USED
Multipole approximations                    ... NOT USED
Finite Nucleus Model                        ... NOT USED
CABS basis                                  ... NOT available
Auxiliary Coulomb fitting basis             ... NOT available
Auxiliary J/K fitting basis                 ... NOT available
Auxiliary Correlation fitting basis         ... NOT available
Auxiliary 'external' fitting basis          ... NOT available

Checking pre-screening integrals            ... done (  0.0 sec) Dimension = 71
Save PGC pre-screening integrals            ... done (  0.0 sec) Dimension = 71
Calculate PGC overlap integrals             ... done (  0.0 sec) Dimension = 44
Calculating pre-screening integrals (ORCA)  ... done (  0.1 sec) Dimension = 44
Shell pair information
Shell pair cut-off parameter TPreSel        ...   2.5e-12
Total number of shell pairs                 ...      2556
Shell pairs after pre-screening             ...      2233
Total number of primitive shell pairs       ...      2856
Primitive shell pairs kept                  ...      2429
          la=0 lb=0:    528 shell pairs
          la=1 lb=0:    602 shell pairs
          la=1 lb=1:    171 shell pairs
          la=2 lb=0:    328 shell pairs
          la=2 lb=1:    162 shell pairs
          la=2 lb=2:     45 shell pairs
          la=3 lb=0:    214 shell pairs
          la=3 lb=1:    108 shell pairs
          la=3 lb=2:     54 shell pairs
          la=3 lb=3:     21 shell pairs

Checking whether 4 symmetric matrices of dimension 179 fit in memory
:Max Core in MB      =   4096.00
 MB in use           =      4.38
 MB left             =   4091.62
 MB needed           =      0.49
 Data fit in memory  = YES
Calculating Nuclear repulsion               ... done (  0.0 sec) ENN=     99.086296046297 Eh

Diagonalization of the overlap matrix:
Smallest eigenvalue                        ... 2.902e-04
Time for diagonalization                   ...    0.001 sec
Threshold for overlap eigenvalues          ... 1.000e-07
Number of eigenvalues below threshold      ... 0
Time for construction of square roots      ...    0.002 sec
Total time needed                          ...    0.005 sec

-------------------
DFT GRID GENERATION
-------------------

General Integration Accuracy     IntAcc      ... 4.388
Radial Grid Type                 RadialGrid  ... OptM3 with GC (2021)
Angular Grid (max. ang.)         AngularGrid ... 4 (Lebedev-302)
Angular grid pruning method      GridPruning ... 4 (adaptive)
Weight generation scheme         WeightScheme... mBecke (2022)
Basis function cutoff            BFCut       ... 1.0000e-11
Integration weight cutoff        WCut        ... 1.0000e-14
Partially contracted basis set               ... off
Rotationally invariant grid construction     ... off
Angular grids for H and He will be reduced by one unit
Diffuse basis detected: some atoms will have their outermost
                        angular grid increased by 1.

Total number of grid points                  ...    20582
Total number of batches                      ...      323
Average number of points per batch           ...       63
Average number of grid points per atom       ...     6861

---------------------
SHARK GRID GENERATION
---------------------

General Integration Accuracy     IntAcc      ... 4.388
Radial Grid Type                 RadialGrid  ... OptM3 with GC (2021)
Angular Grid (max. ang.)         AngularGrid ... 4 (Lebedev-302)
Angular grid pruning method      GridPruning ... 4 (adaptive)
Weight generation scheme         WeightScheme... mBecke (2022)
Basis function cutoff            BFCut       ... 1.0000e-11
Integration weight cutoff        WCut        ... 1.0000e-14
Partially contracted basis set               ... off
Rotationally invariant grid construction     ... off
Angular grids for H and He will be reduced by one unit
Diffuse basis detected: some atoms will have their outermost
                        angular grid increased by 1.
Core-polarized basis detected: some atoms will have their core
                               angular grid increased.
Steep s-basis detected: some atoms will have their radial
                        grid points doubled.

Total number of grid points                  ...    46090
Total number of batches                      ...      722
Average number of points per batch           ...       63
Average number of grid points per atom       ...    15363
Grids setup in   0.5 sec
Initializing property integral containers    ... done (  0.0 sec)

SHARK setup successfully completed in   0.6 seconds

Maximum memory used throughout the entire STARTUP-calculation: 49.2 MB


           ************************************************************
           *        Program running with 8 parallel MPI-processes     *
           *              working on a common directory               *
           ************************************************************
-------------------------------------------------------------------------------
                                 ORCA GUESS
                   Start orbitals & Density for SCF / CASSCF
-------------------------------------------------------------------------------

------------
SCF SETTINGS
------------
Hamiltonian:
 Density Functional     Method          .... DFT(GTOs)
 Exchange Functional    Exchange        .... no Exchange
  Functional kind                       .... Correlation
  Functional name                       .... Perdew & Wang 91
  Functional family                     .... GGA
  Functional refs                              
    [ 0] J. P. Perdew. In P. Ziesche and H. Eschrig, editors, Proceedings of the 75. WE-Heraeus-Seminar and 21st Annual International Symposium on Electronic Structure of Solids, 11. Berlin, 1991. Akademie Verlag.
    [ 1] J. P. Perdew, J. A. Chevary, S. H. Vosko, K. A. Jackson, M. R. Pederson, D. J. Singh, and C. Fiolhais.,  Phys. Rev. B 46, 6671 (1992), doi: 10.1103/PhysRevB.46.6671
    [ 2] J. P. Perdew, J. A. Chevary, S. H. Vosko, K. A. Jackson, M. R. Pederson, D. J. Singh, and C. Fiolhais.,  Phys. Rev. B 48, 4978 (1993), doi: 10.1103/PhysRevB.48.4978.2
  Functional external parameters        .... 0
 Gradients option       PostSCFGGA      .... off


General Settings:
 Integral files         IntName         .... /cluster/projects/nn14654k/ylvaos/basis_set_n_funcs/functionals/gga_c_pw91/PO2/inp/PO2_gga_c_pw91_augccpvtz
 Hartree-Fock type      HFTyp           .... UHF
 Total Charge           Charge          ....    0
 Multiplicity           Mult            ....    2
 Number of Electrons    NEL             ....   31
 Basis Dimension        Dim             ....  142
 Nuclear Repulsion      ENuc            ....     99.0862960463 Eh

Convergence Acceleration:
 AO-DIIS                CNVDIIS         .... on
   Start iteration      DIISMaxIt       ....    12
   Startup error        DIISStart       ....  0.200000
   # of expansion vecs  DIISMaxEq       ....     5
   Bias factor          DIISBfac        ....   1.050
   Max. coefficient     DIISMaxC        ....  10.000
 MO-DIIS                CNVKDIIS        .... off
 Trust-Rad. Augm. Hess. CNVTRAH         .... auto
   Auto Start mean grad. ratio tolernc. ....  1.125000
   Auto Start start iteration           ....    50
   Auto Start num. interpolation iter.  ....    10
   Max. Number of Micro iterations      ....    24
   Max. Number of Macro iterations      .... Maxiter - #DIIS iter
   Number of Davidson start vectors     ....     2
   Converg. threshold    (grad. norm)   ....   1.000e-05
   Grad. Scal. Fac. for Micro threshold ....   0.100
   Minimum threshold for Micro iter.    ....   1.000e-02
   NR start threshold (gradient norm)   ....   1.000e-04
   Initial trust radius                 ....   0.400
   Minimum AH scaling param. (alpha)    ....   1.000
   Maximum AH scaling param. (alpha)    .... 1000.000
   Quad. conv. algorithm                .... NR
   White noise on init. David. guess    .... on
   Maximum white noise                  ....   0.010
   Pseudo random numbers                .... off
   Inactive MOs                         .... canonical
   Orbital update algorithm             .... Taylor
   Preconditioner                       .... Diag
   Full preconditioner red. dimension   ....   250
 SOSCF                 CNVSOSCF           .... on
   Start iteration     SOSCFMaxIt         ....   150
   Startup grad/error  SOSCFStart         ....  0.003300
   Hessian update      SOSCFHessUp        .... L-BFGS
   Autom. constraints  SOSCFAutoConstrain .... off
 Level Shifting         CNVShift        .... on
   Level shift para.    LevelShift      ....    0.2500
   Turn off err/grad.   ShiftErr        ....    0.0010
 Zerner damping         CNVZerner       .... off
 Static damping         CNVDamp         .... on
   Fraction old density DampFac         ....    0.7000
   Max. Damping (<1)    DampMax         ....    0.9800
   Min. Damping (>=0)   DampMin         ....    0.0000
   Turn off err/grad.   DampErr         ....    0.1000

SCF Procedure:
 Maximum # iterations   MaxIter         ....   125
 SCF integral mode      SCFMode         .... Direct
   Integral package                     .... SHARK and LIBINT hybrid scheme
 Reset frequency        DirectResetFreq ....    20
 Integral Threshold     Thresh          ....  2.500e-11 Eh
 Primitive CutOff       TCut            ....  2.500e-12 Eh

Convergence Tolerance:
 Convergence Check Mode ConvCheckMode   .... Total+1el-Energy
 Convergence forced     ConvForced      .... 0
 Energy Change          TolE            ....  1.000e-08 Eh
 1-El. energy change                    ....  1.000e-05 Eh
 Orbital Gradient       TolG            ....  1.000e-05
 Orbital Rotation angle TolX            ....  1.000e-05
 DIIS Error             TolErr          ....  5.000e-07

------------------------------
INITIAL GUESS: MODEL POTENTIAL
------------------------------
Loading Hartree-Fock densities                     ... done
Calculating cut-offs                               ... done
Initializing the effective Hamiltonian             ... done
Setting up the integral package (SHARK)            ... done
Starting the Coulomb interaction                   ... done (   0.0 sec)
Making the grid                                    ... done (   0.0 sec)
Mapping shells                                     ... done
Starting the XC term evaluation                    ... done (   0.0 sec)
  promolecular density results
     # of electrons  =     31.000240993
     EX              =      0.000000000
     EC              =     -1.203277034
     EX+EC           =     -1.203277034
Transforming the Hamiltonian                       ... done (   0.0 sec)
Diagonalizing the Hamiltonian                      ... done (   0.0 sec)
Back transforming the eigenvectors                 ... done (   0.0 sec)
Now organizing SCF variables                       ... done
                      ------------------
                      INITIAL GUESS DONE (   0.1 sec)
                      ------------------
             **** ENERGY FILE WAS UPDATED (/cluster/projects/nn14654k/ylvaos/basis_set_n_funcs/functionals/gga_c_pw91/PO2/inp/PO2_gga_c_pw91_augccpvtz.en.tmp) ****
Finished Guess after   0.2 sec
Maximum memory used throughout the entire GUESS-calculation: 8.6 MB


           ************************************************************
           *        Program running with 8 parallel MPI-processes     *
           *              working on a common directory               *
           ************************************************************

-------------------------------------------------------------------------------------------
                                      ORCA LEAN-SCF
                              memory conserving SCF solver
-------------------------------------------------------------------------------------------

----------------------------------------D-I-I-S--------------------------------------------
Iteration    Energy (Eh)           Delta-E    RMSDP     MaxDP     DIISErr   Damp  Time(sec)
-------------------------------------------------------------------------------------------
               ***  Starting incremental Fock matrix formation  ***
    1    -445.2306836048691707     0.00e+00  4.50e-01  6.72e+00  5.72e-01  0.700   0.2
Warning: op=0 Small HOMO/LUMO gap (  -0.088) - skipping pre-diagonalization
         Will do a full diagonalization
    2    -449.8777045805204011    -4.65e+00  3.17e-01  4.71e+00  2.67e-01  0.700   0.3
                               ***Turning on AO-DIIS***
    3    -451.5366347265049285    -1.66e+00  2.21e-01  3.29e+00  1.27e-01  0.700   0.2
    4    -452.3535374057773311    -8.17e-01  1.55e-01  2.31e+00  1.09e-01  0.700   0.2
    5    -452.8051812864840144    -4.52e-01  1.08e-01  1.61e+00  9.93e-02  0.700   0.2
    6    -453.0866938979291376    -2.82e-01  2.50e-01  3.76e+00  8.55e-02  0.000   0.2
    7    -453.6930784042231721    -6.06e-01  6.43e-03  2.10e-01  1.55e-02  0.000   0.2
    8    -453.7018903950193476    -8.81e-03  9.04e-03  2.95e-01  6.94e-03  0.000   0.2
    9    -453.7045340019237187    -2.64e-03  9.63e-03  2.89e-01  3.49e-03  0.000   0.2
                              *** Initializing SOSCF ***
---------------------------------------S-O-S-C-F--------------------------------------
Iteration    Energy (Eh)           Delta-E    RMSDP     MaxDP     MaxGrad    Time(sec)
--------------------------------------------------------------------------------------
   10    -453.7052346691318121    -7.01e-04  7.15e-03  1.95e-01  2.69e-03     0.2
               *** Restarting incremental Fock matrix formation ***
   11    -453.7054749143388221    -2.40e-04  1.09e-02  2.81e-01  3.00e-03     0.2
   12    -453.7055794318258108    -1.05e-04  9.93e-03  2.55e-01  1.05e-03     0.2
   13    -453.7055180775938084     6.14e-05  5.55e-03  1.44e-01  2.06e-03     0.2
   14    -453.7055944976174828    -7.64e-05  8.21e-04  2.25e-02  2.21e-04     0.2
   15    -453.7055937306552664     7.67e-07  5.60e-04  1.51e-02  3.04e-04     0.4
   16    -453.7055953206420895    -1.59e-06  1.04e-05  1.94e-04  7.54e-06     0.2
   17    -453.7055953215597697    -9.18e-10  8.70e-07  9.99e-06  9.33e-06     0.2
                 **** Energy Check signals convergence ****

               *****************************************************
               *                     SUCCESS                       *
               *           SCF CONVERGED AFTER  17 CYCLES          *
               *****************************************************

             **** ENERGY FILE WAS UPDATED (/cluster/projects/nn14654k/ylvaos/basis_set_n_funcs/functionals/gga_c_pw91/PO2/inp/PO2_gga_c_pw91_augccpvtz.en.tmp) ****

----------------
TOTAL SCF ENERGY
----------------

Total Energy       :       -453.70559532318401 Eh          -12345.95691 eV

Components:
Nuclear Repulsion  :         99.08629604629714 Eh            2696.27519 eV
Electronic Energy  :       -552.79189136948116 Eh          -15042.23210 eV
One Electron Energy:       -857.69965360254059 Eh          -23339.19412 eV
Two Electron Energy:        304.90776223305949 Eh            8296.96202 eV

Virial components:
Potential Energy   :       -918.35089615532411 Eh          -24989.59833 eV
Kinetic Energy     :        464.64530083214015 Eh           12643.64143 eV
Virial Ratio       :          1.97645579221534

DFT components:
N(Alpha)           :       15.994719101699 electrons
N(Beta)            :       14.999509622050 electrons
N(Total)           :       30.994228723749 electrons
E(X)               :        0.000000000000 Eh       
E(C)               :       -1.166931329564 Eh       
E(XC)              :       -1.166931329564 Eh       

---------------
SCF CONVERGENCE
---------------

  Last Energy change         ...    9.1768e-10  Tolerance :   1.0000e-08
  Last MAX-Density change    ...    9.9917e-06  Tolerance :   1.0000e-07
  Last RMS-Density change    ...    8.7031e-07  Tolerance :   5.0000e-09
  Last DIIS Error            ...    2.6881e-03  Tolerance :   5.0000e-07
  Last Orbital Gradient      ...    9.3300e-06  Tolerance :   1.0000e-05
  Last Orbital Rotation      ...    8.2821e-06  Tolerance :   1.0000e-05


----------------------
UHF SPIN CONTAMINATION
----------------------

Warning: in a DFT calculation there is little theoretical justification to 
         calculate <S**2> as in Hartree-Fock theory. We will do it anyways
         but you should keep in mind that the values have only limited relevance

Expectation value of <S**2>     :     0.750082
Ideal value S*(S+1) for S=0.5   :     0.750000
Deviation                       :     0.000082

----------------
ORBITAL ENERGIES
----------------
                 SPIN UP ORBITALS
  NO   OCC          E(Eh)            E(eV) 
   0   1.0000     -71.749621     -1952.4064 
   1   1.0000     -16.826153      -457.8629 
   2   1.0000     -16.825946      -457.8573 
   3   1.0000      -5.296859      -144.1349 
   4   1.0000      -3.558985       -96.8449 
   5   1.0000      -3.555481       -96.7496 
   6   1.0000      -3.554865       -96.7328 
   7   1.0000      -0.678218       -18.4553 
   8   1.0000      -0.622949       -16.9513 
   9   1.0000      -0.224696        -6.1143 
  10   1.0000      -0.167648        -4.5619 
  11   1.0000      -0.160634        -4.3711 
  12   1.0000      -0.137740        -3.7481 
  13   1.0000      -0.091123        -2.4796 
  14   1.0000      -0.077031        -2.0961 
  15   1.0000      -0.026275        -0.7150 
  16   0.0000       0.058905         1.6029 
  17   0.0000       0.062083         1.6894 
  18   0.0000       0.067069         1.8250 
  19   0.0000       0.079157         2.1540 
  20   0.0000       0.118491         3.2243 
  21   0.0000       0.153828         4.1859 
  22   0.0000       0.154389         4.2011 
  23   0.0000       0.157845         4.2952 
  24   0.0000       0.165983         4.5166 
  25   0.0000       0.199859         5.4384 
  26   0.0000       0.203885         5.5480 

                 SPIN DOWN ORBITALS
  NO   OCC          E(Eh)            E(eV) 
   0   1.0000     -71.749645     -1952.4071 
   1   1.0000     -16.826456      -457.8711 
   2   1.0000     -16.826249      -457.8655 
   3   1.0000      -5.297015      -144.1391 
   4   1.0000      -3.559129       -96.8488 
   5   1.0000      -3.555645       -96.7540 
   6   1.0000      -3.555132       -96.7401 
   7   1.0000      -0.680302       -18.5120 
   8   1.0000      -0.625019       -17.0076 
   9   1.0000      -0.227923        -6.2021 
  10   1.0000      -0.169544        -4.6135 
  11   1.0000      -0.162719        -4.4278 
  12   1.0000      -0.140055        -3.8111 
  13   1.0000      -0.092306        -2.5118 
  14   1.0000      -0.078384        -2.1329 
  15   0.0000      -0.031311        -0.8520 
  16   0.0000       0.057195         1.5564 
  17   0.0000       0.060568         1.6481 
  18   0.0000       0.066485         1.8091 
  19   0.0000       0.076913         2.0929 
  20   0.0000       0.114884         3.1262 
  21   0.0000       0.150841         4.1046 
  22   0.0000       0.153325         4.1722 
  23   0.0000       0.156629         4.2621 
  24   0.0000       0.165273         4.4973 
  25   0.0000       0.197954         5.3866 
*Only the first 10 virtual orbitals were printed.

                    ********************************
                    * MULLIKEN POPULATION ANALYSIS *
                    ********************************

--------------------------------------------
MULLIKEN ATOMIC CHARGES AND SPIN POPULATIONS
--------------------------------------------
   0 P :   -0.927989    1.292829
   1 O :    0.463993   -0.146414
   2 O :    0.463995   -0.146416
Sum of atomic charges         :    0.0000000
Sum of atomic spin populations:    1.0000000

-----------------------------------------------------
MULLIKEN REDUCED ORBITAL CHARGES AND SPIN POPULATIONS
-----------------------------------------------------
CHARGE
  0 P s       :     6.571239  s :     6.571239
      pz      :     2.875301  p :     8.540704
      px      :     2.834537
      py      :     2.830865
      dz2     :     0.064862  d :     0.726180
      dxz     :     0.018362
      dyz     :     0.266309
      dx2y2   :     0.155965
      dxy     :     0.220682
      f0      :     0.008236  f :     0.089866
      f+1     :     0.000169
      f-1     :     0.026652
      f+2     :     0.018795
      f-2     :     0.006289
      f+3     :     0.012131
      f-3     :     0.017595

  1 O s       :     3.290126  s :     3.290126
      pz      :     1.415940  p :     4.193997
      px      :     1.436637
      py      :     1.341420
      dz2     :     0.007190  d :     0.050541
      dxz     :     0.002523
      dyz     :     0.014371
      dx2y2   :     0.013993
      dxy     :     0.012464
      f0      :    -0.000437  f :     0.001343
      f+1     :     0.000031
      f-1     :     0.001363
      f+2     :    -0.000680
      f-2     :     0.000822
      f+3     :     0.001439
      f-3     :    -0.001195

  2 O s       :     3.290124  s :     3.290124
      pz      :     1.415940  p :     4.193997
      px      :     1.436637
      py      :     1.341420
      dz2     :     0.007190  d :     0.050541
      dxz     :     0.002523
      dyz     :     0.014371
      dx2y2   :     0.013993
      dxy     :     0.012464
      f0      :    -0.000437  f :     0.001343
      f+1     :     0.000031
      f-1     :     0.001363
      f+2     :    -0.000680
      f-2     :     0.000822
      f+3     :     0.001439
      f-3     :    -0.001195


SPIN
  0 P s       :     1.198172  s :     1.198172
      pz      :     0.049059  p :     0.047447
      px      :    -0.005507
      py      :     0.003895
      dz2     :     0.012461  d :     0.041060
      dxz     :     0.000689
      dyz     :    -0.001668
      dx2y2   :     0.031389
      dxy     :    -0.001810
      f0      :     0.001430  f :     0.006150
      f+1     :     0.000017
      f-1     :     0.000768
      f+2     :     0.003208
      f-2     :     0.000087
      f+3     :     0.000460
      f-3     :     0.000180

  1 O s       :    -0.268134  s :    -0.268134
      pz      :     0.122291  p :     0.124174
      px      :     0.003013
      py      :    -0.001130
      dz2     :    -0.000240  d :    -0.002376
      dxz     :     0.000033
      dyz     :    -0.002234
      dx2y2   :     0.000072
      dxy     :    -0.000008
      f0      :     0.000003  f :    -0.000078
      f+1     :     0.000001
      f-1     :    -0.000075
      f+2     :     0.000001
      f-2     :    -0.000004
      f+3     :    -0.000004
      f-3     :    -0.000001

  2 O s       :    -0.268135  s :    -0.268135
      pz      :     0.122292  p :     0.124174
      px      :     0.003013
      py      :    -0.001131
      dz2     :    -0.000240  d :    -0.002376
      dxz     :     0.000033
      dyz     :    -0.002234
      dx2y2   :     0.000072
      dxy     :    -0.000008
      f0      :     0.000003  f :    -0.000078
      f+1     :     0.000001
      f-1     :    -0.000075
      f+2     :     0.000001
      f-2     :    -0.000004
      f+3     :    -0.000004
      f-3     :    -0.000001



                     *******************************
                     * LOEWDIN POPULATION ANALYSIS *
                     *******************************

-------------------------------------------
LOEWDIN ATOMIC CHARGES AND SPIN POPULATIONS
-------------------------------------------
   0 P :   -0.316762    0.572207
   1 O :    0.158381    0.213897
   2 O :    0.158381    0.213897

----------------------------------------------------
LOEWDIN REDUCED ORBITAL CHARGES AND SPIN POPULATIONS
----------------------------------------------------
CHARGE
  0 P s       :     4.962887  s :     4.962887
      pz      :     2.743330  p :     8.235417
      px      :     2.652057
      py      :     2.840030
      dz2     :     0.178448  d :     1.624999
      dxz     :     0.018109
      dyz     :     0.541129
      dx2y2   :     0.425717
      dxy     :     0.461595
      f0      :     0.044523  f :     0.493458
      f+1     :     0.000566
      f-1     :     0.144484
      f+2     :     0.093116
      f-2     :     0.063297
      f+3     :     0.048807
      f-3     :     0.098665

  1 O s       :     3.429474  s :     3.429474
      pz      :     1.324533  p :     4.141190
      px      :     1.308650
      py      :     1.508007
      dz2     :     0.024426  d :     0.203860
      dxz     :     0.005566
      dyz     :     0.070249
      dx2y2   :     0.054611
      dxy     :     0.049009
      f0      :     0.008132  f :     0.067095
      f+1     :     0.000452
      f-1     :     0.010662
      f+2     :     0.017622
      f-2     :     0.004155
      f+3     :     0.009952
      f-3     :     0.016120

  2 O s       :     3.429474  s :     3.429474
      pz      :     1.324533  p :     4.141190
      px      :     1.308650
      py      :     1.508007
      dz2     :     0.024426  d :     0.203860
      dxz     :     0.005566
      dyz     :     0.070249
      dx2y2   :     0.054611
      dxy     :     0.049009
      f0      :     0.008132  f :     0.067095
      f+1     :     0.000452
      f-1     :     0.010662
      f+2     :     0.017622
      f-2     :     0.004155
      f+3     :     0.009952
      f-3     :     0.016120


SPIN
  0 P s       :     0.324783  s :     0.324783
      pz      :     0.064137  p :     0.061578
      px      :    -0.003144
      py      :     0.000585
      dz2     :     0.069655  d :     0.178387
      dxz     :     0.000605
      dyz     :    -0.000512
      dx2y2   :     0.109078
      dxy     :    -0.000439
      f0      :     0.001562  f :     0.007459
      f+1     :     0.000025
      f-1     :     0.000475
      f+2     :     0.004560
      f-2     :     0.000161
      f+3     :     0.000671
      f-3     :     0.000003

  1 O s       :     0.065965  s :     0.065965
      pz      :     0.106970  p :     0.141845
      px      :     0.001349
      py      :     0.033526
      dz2     :     0.001747  d :     0.005492
      dxz     :    -0.000045
      dyz     :     0.003758
      dx2y2   :     0.000245
      dxy     :    -0.000213
      f0      :     0.000007  f :     0.000595
      f+1     :     0.000002
      f-1     :     0.000360
      f+2     :     0.000020
      f-2     :    -0.000022
      f+3     :    -0.000011
      f-3     :     0.000239

  2 O s       :     0.065965  s :     0.065965
      pz      :     0.106970  p :     0.141845
      px      :     0.001349
      py      :     0.033526
      dz2     :     0.001747  d :     0.005492
      dxz     :    -0.000045
      dyz     :     0.003758
      dx2y2   :     0.000245
      dxy     :    -0.000213
      f0      :     0.000007  f :     0.000595
      f+1     :     0.000002
      f-1     :     0.000360
      f+2     :     0.000020
      f-2     :    -0.000022
      f+3     :    -0.000011
      f-3     :     0.000239



                      *****************************
                      * MAYER POPULATION ANALYSIS *
                      *****************************

  NA   - Mulliken gross atomic population
  ZA   - Total nuclear charge
  QA   - Mulliken gross atomic charge
  VA   - Mayer's total valence
  BVA  - Mayer's bonded valence
  FA   - Mayer's free valence

  ATOM       NA         ZA         QA         VA         BVA        FA
  0 P     15.9280    15.0000    -0.9280     4.9969     3.3120     1.6849
  1 O      7.5360     8.0000     0.4640     1.9129     1.8865     0.0263
  2 O      7.5360     8.0000     0.4640     1.9129     1.8865     0.0263

  Mayer bond orders larger than 0.100000
B(  0-P ,  1-O ) :   1.6560 B(  0-P ,  2-O ) :   1.6560 B(  1-O ,  2-O ) :   0.2305 


-------
TIMINGS
-------

Total SCF time: 0 days 0 hours 0 min 4 sec 

Total time                  ....       4.338 sec
Sum of individual times     ....       4.149 sec  ( 95.6%)

SCF preparation             ....       0.065 sec  (  1.5%)
Fock matrix formation       ....       3.501 sec  ( 80.7%)
  Startup                   ....       0.017 sec  (  0.5% of F)
  Coulomb formation         ....       2.533 sec  ( 72.4% of F)
  XC integration            ....       0.641 sec  ( 18.3% of F)
    Basis function eval.    ....       0.068 sec  ( 10.6% of XC)
    Density eval.           ....       0.080 sec  ( 12.4% of XC)
    XC-Functional eval.     ....       0.020 sec  (  3.1% of XC)
    XC-Potential eval.      ....       0.207 sec  ( 32.3% of XC)
Diagonalization             ....       0.000 sec  (  0.0%)
Density matrix formation    ....       0.122 sec  (  2.8%)
Total Energy calculation    ....       0.029 sec  (  0.7%)
Population analysis         ....       0.012 sec  (  0.3%)
Orbital Transformation      ....       0.025 sec  (  0.6%)
Orbital Orthonormalization  ....       0.000 sec  (  0.0%)
DIIS solution               ....       0.268 sec  (  6.2%)
SOSCF solution              ....       0.127 sec  (  2.9%)
Finished LeanSCF after   4.4 sec

Maximum memory used throughout the entire LEANSCF-calculation: 13.1 MB


           ************************************************************
           *        Program running with 8 parallel MPI-processes     *
           *              working on a common directory               *
           ************************************************************

------------------------------------------------------------------------------
                         ORCA PROPERTY INTEGRAL CALCULATIONS
------------------------------------------------------------------------------

GBWName                                   ... /cluster/projects/nn14654k/ylvaos/basis_set_n_funcs/functionals/gga_c_pw91/PO2/inp/PO2_gga_c_pw91_augccpvtz.gbw
Number of atoms                           ...      3
Number of basis functions                 ...    179
Max core memory                           ...   4096 MB

Dipole integrals                          ... YES
Quadrupole integrals                      ... YES
Linear momentum integrals                 ...  NO
Angular momentum integrals                ...  NO
Higher moments length integrals           ...  NO
Higher moments velocity integrals         ...  NO
Kinetic energy integrals                  ...  NO
GIAO right hand sides                     ...  NO
GIAO dipole derivative integrals          ...  NO
SOC integrals                             ...  NO
EPR diamagnetic integrals (GIAO)          ...  NO
EPR gauge integrals                       ...  NO
Field gradient integrals                  ...  NO (   0 nuclei)
Spin-dipole/Fermi contact integrals       ...  NO (   0 nuclei)
Contact density integrals                 ...  NO (   0 nuclei)
Nucleus-orbit integrals                   ...  NO (   0 nuclei)
Geometric perturbations                   ...  NO (   3 nuclei)

Choice of electric origin   ... Center of mass
Position of electric origin ... (  0.0000,  0.0000,  0.0084) 
Choice of magnetic origin   ... GIAO
Position of magnetic origin ... (  0.0000,  0.0000,  0.0000) 

Calculating integrals                     ... Electric Dipole (Length)     done (  0.0 sec)
Calculating integrals                     ... Electric Quadrupole (Length) done (  0.0 sec)

Property integrals calculated in   0.0 sec

Maximum memory used throughout the entire PROPINT-calculation: 9.3 MB
------------------------------------------------------------------------------
                           ORCA ORBITAL LOCALIZATION
------------------------------------------------------------------------------

Input orbitals are from                  ... /cluster/projects/nn14654k/ylvaos/basis_set_n_funcs/functionals/gga_c_pw91/PO2/inp/PO2_gga_c_pw91_augccpvtz.gbw
Output orbitals are to                   ... /cluster/projects/nn14654k/ylvaos/basis_set_n_funcs/functionals/gga_c_pw91/PO2/inp/PO2_gga_c_pw91_augccpvtz.loc
Max. number of iterations                ... 128
Localizations seeded randomly            ... on
Convergence tolerance                    ... 1.000e-06
Threshold for strong local MOs           ... 9.500e-01
Threshold for bond MOs                   ... 8.500e-01
Operator                                 ... 0
Orbital range for localization           ... 4 to 15
Localization criterion                   ... NEW-BOYS
Doing the dipole integrals               ... o.k.
Initial value of the localization sum :    23.748325
ITERATION   0 : L=   41.5229489151 DL=  1.78e+01 (AVERGE_DL)=    0.5189532603 
ITERATION   1 : L=   50.4339858084 DL=  8.91e+00 (AVERGE_DL)=    0.3674448401 
ITERATION   2 : L=   50.5665122311 DL=  1.33e-01 (AVERGE_DL)=    0.0448104463 
ITERATION   3 : L=   50.5778767975 DL=  1.14e-02 (AVERGE_DL)=    0.0131221340 
ITERATION   4 : L=   50.5839787853 DL=  6.10e-03 (AVERGE_DL)=    0.0096153190 
ITERATION   5 : L=   50.5894071204 DL=  5.43e-03 (AVERGE_DL)=    0.0090690408 
ITERATION   6 : L=   50.5948488502 DL=  5.44e-03 (AVERGE_DL)=    0.0090802231 
ITERATION   7 : L=   50.6003350229 DL=  5.49e-03 (AVERGE_DL)=    0.0091172270 
ITERATION   8 : L=   50.6058193183 DL=  5.48e-03 (AVERGE_DL)=    0.0091156670 
ITERATION   9 : L=   50.6112440216 DL=  5.42e-03 (AVERGE_DL)=    0.0090660065 
ITERATION  10 : L=   50.6165564841 DL=  5.31e-03 (AVERGE_DL)=    0.0089717254 
ITERATION  11 : L=   50.6216885068 DL=  5.13e-03 (AVERGE_DL)=    0.0088180451 
ITERATION  12 : L=   50.6265428714 DL=  4.85e-03 (AVERGE_DL)=    0.0085761867 
ITERATION  13 : L=   50.6310011465 DL=  4.46e-03 (AVERGE_DL)=    0.0082188577 
ITERATION  14 : L=   50.6349507549 DL=  3.95e-03 (AVERGE_DL)=    0.0077357968 
ITERATION  15 : L=   50.6383155535 DL=  3.36e-03 (AVERGE_DL)=    0.0071401538 
ITERATION  16 : L=   50.6410735804 DL=  2.76e-03 (AVERGE_DL)=    0.0064643860 
ITERATION  17 : L=   50.6432556962 DL=  2.18e-03 (AVERGE_DL)=    0.0057499879 
ITERATION  18 : L=   50.6449302304 DL=  1.67e-03 (AVERGE_DL)=    0.0050370360 
ITERATION  19 : L=   50.6461833054 DL=  1.25e-03 (AVERGE_DL)=    0.0043572910 
ITERATION  20 : L=   50.6471023998 DL=  9.19e-04 (AVERGE_DL)=    0.0037317117 
ITERATION  21 : L=   50.6477661294 DL=  6.64e-04 (AVERGE_DL)=    0.0031712000 
ITERATION  22 : L=   50.6482398004 DL=  4.74e-04 (AVERGE_DL)=    0.0026789611 
ITERATION  23 : L=   50.6485748292 DL=  3.35e-04 (AVERGE_DL)=    0.0022530412 
ITERATION  24 : L=   50.6488102084 DL=  2.35e-04 (AVERGE_DL)=    0.0018884785 
ITERATION  25 : L=   50.6489747474 DL=  1.65e-04 (AVERGE_DL)=    0.0015789286 
ITERATION  26 : L=   50.6490893325 DL=  1.15e-04 (AVERGE_DL)=    0.0013176258 
ITERATION  27 : L=   50.6491689035 DL=  7.96e-05 (AVERGE_DL)=    0.0010980078 
ITERATION  28 : L=   50.6492240412 DL=  5.51e-05 (AVERGE_DL)=    0.0009140133 
ITERATION  29 : L=   50.6492621836 DL=  3.81e-05 (AVERGE_DL)=    0.0007602070 
ITERATION  30 : L=   50.6492885366 DL=  2.64e-05 (AVERGE_DL)=    0.0006318921 
ITERATION  31 : L=   50.6493067296 DL=  1.82e-05 (AVERGE_DL)=    0.0005250259 
ITERATION  32 : L=   50.6493192787 DL=  1.25e-05 (AVERGE_DL)=    0.0004360471 
ITERATION  33 : L=   50.6493279311 DL=  8.65e-06 (AVERGE_DL)=    0.0003620737 
ITERATION  34 : L=   50.6493338928 DL=  5.96e-06 (AVERGE_DL)=    0.0003005489 
ITERATION  35 : L=   50.6493379995 DL=  4.11e-06 (AVERGE_DL)=    0.0002494425 
ITERATION  36 : L=   50.6493408268 DL=  2.83e-06 (AVERGE_DL)=    0.0002069748 
ITERATION  37 : L=   50.6493427750 DL=  1.95e-06 (AVERGE_DL)=    0.0001718096 
ITERATION  38 : L=   50.6493441155 DL=  1.34e-06 (AVERGE_DL)=    0.0001425155 
ITERATION  39 : L=   50.6493450387 DL=  9.23e-07 (AVERGE_DL)=    0.0001182692 
LOCALIZATION SUM CONVERGED


--------------------------------------------------------------------------------
                    LOCALIZED MOLECULAR ORBITAL COMPOSITIONS
--------------------------------------------------------------------------------

The Mulliken populations for each LMO on each atom are computed
The LMO`s will be ordered according to atom index and type
  (A) Strongly localized MO`s have populations of >=0.950 on one atom
  (B) Two center bond orbitals have populations of >=0.850 on two atoms
  (C) Other MO`s are considered to be `delocalized`

FOUND  -   4 strongly local MO`s
       -   8 two center bond MO`s
       -   0 significantly delocalized MO`s

Rather strongly localized orbitals:
MO   7:   0P  -   0.980536
MO   6:   0P  -   0.988376
MO   5:   0P  -   0.988375
MO   4:   0P  -   1.575845
Bond-like localized orbitals:
MO  15:   2O  -   0.652688  and   0P  -   0.364764
MO  14:   2O  -   0.652705  and   0P  -   0.364656
MO  13:   2O  -   0.847462  and   0P  -   0.152862
MO  12:   2O  -   0.805506  and   0P  -   0.197499
MO  11:   1O  -   0.652684  and   0P  -   0.364904
MO  10:   1O  -   0.652689  and   0P  -   0.364521
MO   9:   1O  -   0.805534  and   0P  -   0.197480
MO   8:   1O  -   0.847452  and   0P  -   0.152876
Localized MO's were stored in: /cluster/projects/nn14654k/ylvaos/basis_set_n_funcs/functionals/gga_c_pw91/PO2/inp/PO2_gga_c_pw91_augccpvtz.loc
------------------------------------------------------------------------------
                           ORCA ORBITAL LOCALIZATION
------------------------------------------------------------------------------

Input orbitals are from                  ... /cluster/projects/nn14654k/ylvaos/basis_set_n_funcs/functionals/gga_c_pw91/PO2/inp/PO2_gga_c_pw91_augccpvtz.loc
Output orbitals are to                   ... /cluster/projects/nn14654k/ylvaos/basis_set_n_funcs/functionals/gga_c_pw91/PO2/inp/PO2_gga_c_pw91_augccpvtz.loc
Max. number of iterations                ... 128
Localizations seeded randomly            ... on
Convergence tolerance                    ... 1.000e-06
Threshold for strong local MOs           ... 9.500e-01
Threshold for bond MOs                   ... 8.500e-01
Operator                                 ... 1
Orbital range for localization           ... 4 to 14
Localization criterion                   ... NEW-BOYS
Doing the dipole integrals               ... o.k.
Initial value of the localization sum :    23.414611
ITERATION   0 : L=   38.4064445367 DL=  1.50e+01 (AVERGE_DL)=    0.5220907923 
ITERATION   1 : L=   43.0767074677 DL=  4.67e+00 (AVERGE_DL)=    0.2913998481 
ITERATION   2 : L=   43.2885878475 DL=  2.12e-01 (AVERGE_DL)=    0.0620674677 
ITERATION   3 : L=   43.2982693700 DL=  9.68e-03 (AVERGE_DL)=    0.0132675424 
ITERATION   4 : L=   43.3032494051 DL=  4.98e-03 (AVERGE_DL)=    0.0095155711 
ITERATION   5 : L=   43.3077220819 DL=  4.47e-03 (AVERGE_DL)=    0.0090178377 
ITERATION   6 : L=   43.3120902166 DL=  4.37e-03 (AVERGE_DL)=    0.0089118253 
ITERATION   7 : L=   43.3162696309 DL=  4.18e-03 (AVERGE_DL)=    0.0087171871 
ITERATION   8 : L=   43.3201884570 DL=  3.92e-03 (AVERGE_DL)=    0.0084410535 
ITERATION   9 : L=   43.3237858664 DL=  3.60e-03 (AVERGE_DL)=    0.0080874869 
ITERATION  10 : L=   43.3270245685 DL=  3.24e-03 (AVERGE_DL)=    0.0076736882 
ITERATION  11 : L=   43.3298893153 DL=  2.86e-03 (AVERGE_DL)=    0.0072170844 
ITERATION  12 : L=   43.3323836907 DL=  2.49e-03 (AVERGE_DL)=    0.0067344101 
ITERATION  13 : L=   43.3345256526 DL=  2.14e-03 (AVERGE_DL)=    0.0062405738 
ITERATION  14 : L=   43.3363428940 DL=  1.82e-03 (AVERGE_DL)=    0.0057481086 
ITERATION  15 : L=   43.3378686512 DL=  1.53e-03 (AVERGE_DL)=    0.0052669765 
ITERATION  16 : L=   43.3391383285 DL=  1.27e-03 (AVERGE_DL)=    0.0048046894 
ITERATION  17 : L=   43.3401870011 DL=  1.05e-03 (AVERGE_DL)=    0.0043665519 
ITERATION  18 : L=   43.3410476895 DL=  8.61e-04 (AVERGE_DL)=    0.0039558664 
ITERATION  19 : L=   43.3417503907 DL=  7.03e-04 (AVERGE_DL)=    0.0035744071 
ITERATION  20 : L=   43.3423216142 DL=  5.71e-04 (AVERGE_DL)=    0.0032227133 
ITERATION  21 : L=   43.3427843097 DL=  4.63e-04 (AVERGE_DL)=    0.0029004563 
ITERATION  22 : L=   43.3431580075 DL=  3.74e-04 (AVERGE_DL)=    0.0026066271 
ITERATION  23 : L=   43.3434591184 DL=  3.01e-04 (AVERGE_DL)=    0.0023398168 
ITERATION  24 : L=   43.3437012940 DL=  2.42e-04 (AVERGE_DL)=    0.0020983786 
ITERATION  25 : L=   43.3438957846 DL=  1.94e-04 (AVERGE_DL)=    0.0018804768 
ITERATION  26 : L=   43.3440517871 DL=  1.56e-04 (AVERGE_DL)=    0.0016841642 
ITERATION  27 : L=   43.3441767969 DL=  1.25e-04 (AVERGE_DL)=    0.0015076159 
ITERATION  28 : L=   43.3442769063 DL=  1.00e-04 (AVERGE_DL)=    0.0013491368 
ITERATION  29 : L=   43.3443570363 DL=  8.01e-05 (AVERGE_DL)=    0.0012070254 
ITERATION  30 : L=   43.3444211544 DL=  6.41e-05 (AVERGE_DL)=    0.0010797145 
ITERATION  31 : L=   43.3444724532 DL=  5.13e-05 (AVERGE_DL)=    0.0009657664 
ITERATION  32 : L=   43.3445134897 DL=  4.10e-05 (AVERGE_DL)=    0.0008637810 
ITERATION  33 : L=   43.3445463207 DL=  3.28e-05 (AVERGE_DL)=    0.0007726107 
ITERATION  34 : L=   43.3445725882 DL=  2.63e-05 (AVERGE_DL)=    0.0006910793 
ITERATION  35 : L=   43.3445936076 DL=  2.10e-05 (AVERGE_DL)=    0.0006181999 
ITERATION  36 : L=   43.3446104362 DL=  1.68e-05 (AVERGE_DL)=    0.0005531503 
ITERATION  37 : L=   43.3446239108 DL=  1.35e-05 (AVERGE_DL)=    0.0004949680 
ITERATION  38 : L=   43.3446347043 DL=  1.08e-05 (AVERGE_DL)=    0.0004429944 
ITERATION  39 : L=   43.3446433546 DL=  8.65e-06 (AVERGE_DL)=    0.0003965838 
ITERATION  40 : L=   43.3446502918 DL=  6.94e-06 (AVERGE_DL)=    0.0003551487 
ITERATION  41 : L=   43.3446558557 DL=  5.56e-06 (AVERGE_DL)=    0.0003180596 
ITERATION  42 : L=   43.3446603224 DL=  4.47e-06 (AVERGE_DL)=    0.0002849778 
ITERATION  43 : L=   43.3446639096 DL=  3.59e-06 (AVERGE_DL)=    0.0002553872 
ITERATION  44 : L=   43.3446667919 DL=  2.88e-06 (AVERGE_DL)=    0.0002289235 
ITERATION  45 : L=   43.3446691106 DL=  2.32e-06 (AVERGE_DL)=    0.0002053222 
ITERATION  46 : L=   43.3446709769 DL=  1.87e-06 (AVERGE_DL)=    0.0001842097 
ITERATION  47 : L=   43.3446724795 DL=  1.50e-06 (AVERGE_DL)=    0.0001652882 
ITERATION  48 : L=   43.3446736919 DL=  1.21e-06 (AVERGE_DL)=    0.0001484710 
ITERATION  49 : L=   43.3446746688 DL=  9.77e-07 (AVERGE_DL)=    0.0001332708 
LOCALIZATION SUM CONVERGED


--------------------------------------------------------------------------------
                    LOCALIZED MOLECULAR ORBITAL COMPOSITIONS
--------------------------------------------------------------------------------

The Mulliken populations for each LMO on each atom are computed
The LMO`s will be ordered according to atom index and type
  (A) Strongly localized MO`s have populations of >=0.950 on one atom
  (B) Two center bond orbitals have populations of >=0.850 on two atoms
  (C) Other MO`s are considered to be `delocalized`

FOUND  -   3 strongly local MO`s
       -   8 two center bond MO`s
       -   0 significantly delocalized MO`s

Rather strongly localized orbitals:
MO   6:   0P  -   0.989523
MO   5:   0P  -   0.981371
MO   4:   0P  -   0.989555
Bond-like localized orbitals:
MO  14:   2O  -   0.666590  and   0P  -   0.342256
MO  13:   2O  -   0.666585  and   0P  -   0.342241
MO  12:   2O  -   0.921338  and   0P  -   0.071507
MO  11:   2O  -   0.523707  and   0P  -   0.463685
MO  10:   1O  -   0.666904  and   0P  -   0.341970
MO   9:   1O  -   0.666241  and   0P  -   0.342558
MO   8:   1O  -   0.523738  and   0P  -   0.463655
MO   7:   1O  -   0.921339  and   0P  -   0.071506
Localized MO's were stored in: /cluster/projects/nn14654k/ylvaos/basis_set_n_funcs/functionals/gga_c_pw91/PO2/inp/PO2_gga_c_pw91_augccpvtz.loc

-------------------------   --------------------
FINAL SINGLE POINT ENERGY      -453.705595323184
-------------------------   --------------------



           ************************************************************
           *        Program running with 8 parallel MPI-processes     *
           *              working on a common directory               *
           ************************************************************

------------------------------------------------------------------------------
                              ORCA PROPERTY CALCULATIONS
------------------------------------------------------------------------------

GBWName                                 ... /cluster/projects/nn14654k/ylvaos/basis_set_n_funcs/functionals/gga_c_pw91/PO2/inp/PO2_gga_c_pw91_augccpvtz.gbw
Number of atoms                         ...      3
Number of basis functions               ...    179
Max core memory                         ...   4096 MB

Electric properties:
Dipole moment                           ... YES
Quadrupole moment                       ... YES
Static polarizability (Dipole/Dipole)   ...  NO
Static polarizability (Dipole/Quad.)    ...  NO
Static polarizability (Quad./Quad.)     ...  NO
Static polarizability (Velocity)        ...  NO
Static hyperpolarizability              ...  NO

Atomic electric properties:
Dipole moment                           ...  NO
Quadrupole moment                       ...  NO
Static polarizability                   ...  NO

Choice of electric origin               ... Center of mass
Position of electric origin             ...     0.000000     0.000000     0.008437

General magnetic properties:
Magnetizability                         ...  NO

EPR properties:
g-Tensor (aka g-matrix)                 ...  NO
Zero-Field splitting spin-orbit         ...  NO
Zero-field splitting spin-spin          ...  NO
Hyperfine couplings                     ...  NO (   0 nuclei)
Quadrupole couplings                    ...  NO (   0 nuclei)
Contact density                         ...  NO (   0 nuclei)

NMR properties:
Chemical shifts                         ...  NO (   0 nuclei)
Spin-rotation constants                 ...  NO (   0 nuclei)
Spin-spin couplings                     ...  NO (   0 nuclei,    0 pairs)

Choice of magnetic origin               ... GIAO
Position of magnetic origin             ...     0.000000     0.000000     0.000000

Properties with geometric perturbations:
SCF Hessian                             ...  NO
IR spectrum                             ...  NO
VCD spectrum                            ...  NO
X-ray spectroscopy properties:
SCF XES/XAS/RIXS spectra                ...  NO

SCF SOC stabilization energy            ...  NO
Diagonal Born-Oppenheimer correction    ...  NO

-------------
DIPOLE MOMENT
-------------

Method             : SCF
Type of density    : Electron Density
Multiplicity       :   2
Irrep              :   0
Energy             :  -453.7055953231840135 Eh
Basis              : AO
                                X                 Y                 Z
Electronic contribution:     -0.000000001       0.000000145       0.322413773
Nuclear contribution   :      0.000000000       0.000000000      -0.261362976
                        -----------------------------------------
Total Dipole Moment    :     -0.000000001       0.000000145       0.061050797
                        -----------------------------------------
Magnitude (a.u.)       :      0.061050797
Magnitude (Debye)      :      0.155178793



--------------------
Rotational spectrum 
--------------------
 
Rotational constants in cm-1:             3.442444             0.286393             0.264396 
Rotational constants in MHz :        103201.869580          8585.841533          7926.407020 

Dipole components along the rotational axes: 
x,y,z [a.u.] :     0.000000     0.061051    -0.000000 
x,y,z [Debye]:     0.000000     0.155179    -0.000000 

 

Dipole moment calculation done in   0.0 sec 

-----------------
QUADRUPOLE MOMENT
-----------------

Method             : SCF
Type of density    : Electron Density
Multiplicity       :   2
Irrep              :   0
Energy             :  -453.7055953231840135 Eh
Basis              : AO

                XX              YY              ZZ              XY              XZ              YZ
  NUC        0.000000000   105.106420135     8.604299986     0.000000000     0.000000000     0.000000000
  EL       -24.364357757  -132.648998329   -33.863949272    -0.000000024    -0.000000001    -0.000000258
  TOT      -24.364357757   -27.542578194   -25.259649287    -0.000000024    -0.000000001    -0.000000258 (a.u.)
           -32.770894445   -37.045709627   -33.975092171    -0.000000032    -0.000000001    -0.000000347 (Buckingham)

diagonalized tensor:
           -27.542578194   -25.259649287   -24.364357757 (a.u.)
           -37.045709627   -33.975092171   -32.770894445 (Buckingham)
            -7.345432638     1.866419730     5.479012908 (traceless form in Buckingham)

             0.000000008    -0.000000001     1.000000000
             1.000000000     0.000000113    -0.000000008
             0.000000113    -1.000000000    -0.000000001
        
Isotropic quadrupole :   -25.722195079

Quadrupole moment calculation done in   0.0 sec (  0.0 sec for integrals)

Maximum memory used throughout the entire PROP-calculation: 5.7 MB

--------------------------------
SUGGESTED CITATIONS FOR THIS RUN
--------------------------------

Below you find a list of papers that are relevant to this ORCA run
We neither can nor want to force you to cite these papers, but we appreciate if you do
You receive ORCA, which is the product of decades of hard work by many enthusiastic individuals, for free
The only thing we kindly ask in return is that you cite our papers,
We deeply appreciate it, if you show your appreciation for ORCA by not just citing the generic ORCA reference.

Please note that relegating all ORCA citations to the supporting information does *not* help us.
SI sections are not indexed - citations you put there will not count into any citation statistics
But we need these citations in order to attract the funding resources that allow us to do what we are doing

Therefore, if you are a happy ORCA user, please consider citing a few of the papers listed below in the main body of your paper

In addition to the list printed below, the program has created the file /cluster/projects/nn14654k/ylvaos/basis_set_n_funcs/functionals/gga_c_pw91/PO2/inp/PO2_gga_c_pw91_augccpvtz.bibtex that contains the list in bibtex format
You can import this file easily into all common literature databanks and citation aid programs

It goes without saying that in many instances, there are alternative algorithms to achieve similar
results as the ones you have gotten from ORCA. It is, of course, also the case that in some instances
ORCA just re-implements algorithms worked out by others. We are fully aware of that and we are also
fully appreciative of our colleagues work. Hence this citation list should not be read as indicating
that the listed papers, which are focused on our own work, are the only ones worth citing. It simply
meant to make it easier for users to cite ORCA specific papers. It is not a substitute for doing your
own literature research and citing the relevant literature in a scientifically appropriate manner.

List of essential papers. We consider these as the minimum necessary citations

  1. Neese, F.
     Software update: the ORCA program system, version 6.0
     WIRES Comput. Molec. Sci. 2025 15(1), e70019
     doi.org/10.1002/wcms.70019

List of papers to cite with high priority. The work reported in these papers was absolutely
necessary for this run to complete.
Our perspective: the developers of density functionals and basis sets usually get cited in chemistry papers
Good! But without the algorithms to do something with them, the functionals or basis sets would not do anything.
Hence, in our opinion, the algorithm design and method developments papers are equally worthy of getting cited

  1. Lehtola, S.; Steigemann, C.; Oliveira, M.; Marques, M.
     Recent developments in Libxc - A comprehensive library of functionals for density functional theory
     Software X 2018 7 , 
     doi.org/10.1016/j.softx.2017.11.002
  2. Neese, F.
     The SHARK Integral Generation and Digestion System
     J. Comp. Chem. 2022 44(3), 381
     doi.org/10.1002/jcc.26942

List of suggested additional citations. These are papers that are important in the 'surrounding' of 
of this run, or papers that preceded the highly important papers. If you like your results we are grateful for a citation.

  1. Neese, F.
     The ORCA program system
     WIRES Comput. Molec. Sci. 2012 2(1), 73-78
     doi.org/10.1002/wcms.81
  2. Neese, F.
     Software update: the ORCA program system, version 4.0
     WIRES Comput. Molec. Sci. 2018 8(1), 1-6
     doi.org/10.1002/wcms.1327
  3. Neese, F.; Wennmohs, F.; Becker, U.; Riplinger, C.
     The ORCA quantum chemistry program package
     J. Chem. Phys. 2020 152(22), 224108
     doi.org/10.1063/5.0004608
  4. Neese, F.
     Software update: The ORCA program system—Version 5.0
     WIRES Comput. Molec. Sci. 2022 12(1), e1606
     doi.org/10.1002/wcms.1606

List of optional additional citations

  1. Neese, F.
     Approximate second-order SCF convergence for spin unrestricted wavefunctions
     Chem. Phys. Lett. 2000 325(1-3), 93-98
     doi.org/10.1016/s0009-2614(00)00662-x

Timings for individual modules:

Sum of individual times          ...        6.160 sec (=   0.103 min)
Startup calculation              ...        0.784 sec (=   0.013 min)  12.7 %
SCF iterations                   ...        4.900 sec (=   0.082 min)  79.5 %
Property integrals               ...        0.236 sec (=   0.004 min)   3.8 %
Property calculations            ...        0.232 sec (=   0.004 min)   3.8 %
Orbital localization             ...        0.008 sec (=   0.000 min)   0.1 %
                             ****ORCA TERMINATED NORMALLY****
TOTAL RUN TIME: 0 days 0 hours 0 minutes 6 seconds 773 msec
