
                                 *****************
                                 * O   R   C   A *
                                 *****************

                                            #,                                       
                                            ###                                      
                                            ####                                     
                                            #####                                    
                                            ######                                   
                                           ########,                                 
                                     ,,################,,,,,                         
                               ,,#################################,,                 
                          ,,##########################################,,             
                       ,#########################################, ''#####,          
                    ,#############################################,,   '####,        
                  ,##################################################,,,,####,       
                ,###########''''           ''''###############################       
              ,#####''   ,,,,##########,,,,          '''####'''          '####       
            ,##' ,,,,###########################,,,                        '##       
           ' ,,###''''                  '''############,,,                           
         ,,##''                                '''############,,,,        ,,,,,,###''
      ,#''                                            '''#######################'''  
     '                                                          ''''####''''         
             ,#######,   #######,   ,#######,      ##                                
            ,#'     '#,  ##    ##  ,#'     '#,    #''#        ,####,    ,#,          
            ##       ##  ##   ,#'  ##            #'  '#       #'       ,# #          
            ##       ##  #######   ##           ,######,      #####,      #          
            '#,     ,#'  ##    ##  '#,     ,#' ,#      #,     #,   #      #          
             '#######'   ##     ##  '#######'  #'      '#     '####' #    #          



                #########################################################
                #                        -***-                          #
                #          Department of theory and spectroscopy        #
                #                                                       #
                #                      Frank Neese                      #
                #                                                       #
                #     Directorship, Architecture, Infrastructure        #
                #                    SHARK, DRIVERS                     #
                #        Core code/Algorithms in most modules           #
                #                                                       #
                #        Max Planck Institute fuer Kohlenforschung      #
                #                Kaiser Wilhelm Platz 1                 #
                #                 D-45470 Muelheim/Ruhr                 #
                #                      Germany                          #
                #                                                       #
                #                  All rights reserved                  #
                #                        -***-                          #
                #########################################################


                         Program Version 6.1.1  -  RELEASE   -
                                (GIT: $487d211c$)
                          ($2025-11-21 10:33:24 +0100$)


 With contributions from (in alphabetic order):
[Max-Planck-Institut fuer Kohlenforschung]                               
  Daniel Aravena         : Magnetic Suceptibility                        
  Michael Atanasov       : Ab Initio Ligand Field Theory (pilot matlab implementation)
  Alexander A. Auer      : GIAO ZORA, VPT2 properties, NMR spectrum      
  Ute Becker             : All parallelization in ORCA, NUMFREQ, NUMCALC 
  Giovanni Bistoni       : ED, misc. LED, open-shell LED, HFLD           
  Dmytro Bykov           : pre 5.0 version of the SCF Hessian            
  Marcos Casanova-Páez   : Triplet and SCS-CIS(D). UHF-(DLPNO)-IP/EA/STEOM-CCSD. UHF-CVS-IP/STEOM-CCSD   
  Vijay G. Chilkuri      : MRCI spin determinant printing, contributions to CSF-ICE 
  Pauline Colinet        : FMM embedding                                 
  Dipayan Datta          : RHF DLPNO-CCSD density                        
  Achintya Kumar Dutta   : EOM-CC, STEOM-CC                              
  Nicolas Foglia         : Exact transition moments, OPA infrastructure, MCD improvements    
  Dmitry Ganyushin       : Spin-Orbit,Spin-Spin,Magnetic field MRCI      
  Miquel Garcia-Rates    : C-PCM and meta-GGA Hessian, CCSD/C-PCM, Gaussian charge scheme 
  Tiago L. C. Gouveia    : GS-ROHF, GS-ROCIS                             
  Yang Guo               : DLPNO-NEVPT2, F12-NEVPT2, CIM, IAO-localization        
  Andreas Hansen         : Spin unrestricted coupled pair/coupled cluster methods 
  Ingolf Harden          : AUTO-CI MPn and infrastructure                
  Benjamin Helmich-Paris : MC-RPA, TRAH-(SCF,CASSCF), AVAS, COSX integrals, SCF dyn. polar., MC-PDFT, srDFT 
  Lee Huntington         : MR-EOM, pCC                                   
  Robert Izsak           : Overlap fitted RIJCOSX, COSX-SCS-MP3, EOM     
  Riya Kayal             : Wick's Theorem for AUTO-CI, AUTO-CI UHF-CCSDT 
  Emily Kempfer          : AUTO-CI RHF CISDT and CCSDT, approximate NEVPT4
  Christian Kollmar      : KDIIS, OOCD, Brueckner-CCSD(T), CCSD density, CASPT2, CASPT2-K, improved NEVPT2 
  Axel Koslowski         : Symmetry handling                             
  Simone Kossmann        : meta-GGA functionals, TD-DFT gradient, OOMP2, (MP2 Hessian; deprecated post 5.0) 
  Lucas Lang             : DCDCAS, Hyperfine gauge corrections, ICE-SOC+SSC
  Marvin Lechner         : AUTO-CI (C++ implementation), FIC-MRCC        
  Spencer Leger          : CASSCF response                               
  Dagmar Lenk            : GEPOL surface, SMD, ORCA-2-JSON               
  Dimitrios Liakos       : Extrapolation schemes; Compound Job, Property file
  Dimitrios Manganas     : Further ROCIS development; embedding schemes. LFT, Crystal Embedding 
  Dimitrios Pantazis     : SARC Basis sets                               
  Anastasios Papadopoulos: AUTO-CI, single reference methods and gradients 
  Taras Petrenko         : pre 6.0 DFT Hessian and TD-DFT gradient,  ECA, NRVS 
  Petra Pikulova         : Analytic Raman intensities                    
  Peter Pinski           : DLPNO-MP2, DLPNO-MP2 Gradient                 
  Shashank Vittal Rao    : ES-AILFT, MagRelax                            
  Christoph Reimann      : Effective Core Potentials                     
  Marius Retegan         : Local ZFS, SOC                                
  Christoph Riplinger    : Optimizer, TS searches, QM/MM, DLPNO-CCSD(T), (RO)-DLPNO pert. Triples 
  Michael Roemelt        : Original ROCIS implementation, recursive CI coupling coefficients
  Masaaki Saitow         : Open-shell DLPNO-CCSD energy and density      
  Barbara Sandhoefer     : DKH picture change effects                    
  Yorick L. A. Schmerwitz: GMF and freeze-and-release deltaSCF, NEB S-IDPP initial path                    
  Kantharuban Sivalingam : CASSCF convergence/infrastructure, NEVPT2, NEVPT3, NEVPT4(SD), FIC-MRCI and CEPA variants
  Bernardo de Souza      : ESD, SOC TD-DFT                               
  Georgi L. Stoychev     : AutoAux, RI-MP2 NMR, DLPNO-MP2 response, X2C  
  Van Anh Tran           : RI-MP2 g-tensors                              
  Willem Van den Heuvel  : Paramagnetic NMR                              
  Zikuan Wang            : NOTCH, Electric field optimization            
  Frank Wennmohs         : Technical directorship and infrastructure     
  Hang Xu                : AUTO-CI-Response properties                   
                                                                         
[FACCTs GmbH]                                                            
  Markus Bursch, Nicolas Foglia, Miquel Garcia-Rates, Ingolf Harden, Hagen Neugebauer, Anastasios Papadopoulos, 
  Christoph Riplinger, Bernardo de Souza, Georgi L. Stoychev                                                    
                                                                 
  APM, various basis sets, CI-OPT, improved COSX, DLPNO-Multilevel,           
  DOCKER, DRACO, updates on ESD, Fragmentator, GOAT, IRC, LR-CPCM, L-BFGS, MBIS, meta-GGA TD-DFT gradient, ML-optimized integration grids, 
  MM, NACMEs, nearIR, NEB, NEB-TS, NL-DFT gradient (VV10), 2- and 3-layer-ONIOM, interface openCOSMO-RS, QMMM,   
  Crystal-QMMM, RESP, rigid body optimization, SF, symmetry and pop. for TD-DFT, various functionals, SOLVATOR                                   
                                                                         
[Other institutions]                                                     
  V. Asgeirsson          : NEB                                           
  Christoph Bannwarth    : sTDA-DFT, sTD-DFT, PBEh-3c, B97-3c, D3        
  Giovanni Bistoni       : ETS/NOCV, ADLD/ADEX, COVALED                  
  Martin Brehm           : Molecular dynamics                            
  Ronald Cardenas        : ETS/NOCV                                      
  Martina Colucci        : COVALED                                       
  Sebastian Ehlert       : rSCAN, r2SCAN, r2SCAN-3c, D4, dhf basis sets  
  Marvin Friede          : D4 for Fr, Ra, Ac-Lr                          
  Lars Goerigk           : TD-DFT with DH, B97 family of functionals     
  Stefan Grimme          : VdW corrections, initial TS optimization, DFT functionals, gCP, sTDA/sTD-DF 
  Waldemar Hujo          : DFT-NL                                        
  H. Jonsson             : NEB                                           
  Holger Kruse           : gCP                                           
  Marcel Mueller         : wB97X-3c, vDZP basis set                      
  Hagen Neugebauer       : wr2SCAN, Native XTB                           
  Gianluca Regni         : ADLD/ADEX                                     
  Tobias Risthaus        : pre 6.0 range-separated hybrid DFT and stability analysis
  Lukas Wittmann         : regularized MP2, r2SCAN double-hybrids, wr2SCAN        
                                                                         
We gratefully acknowledge several colleagues who have allowed us to      
interface, adapt or use parts of their codes:                            
  Ed Valeev, F. Pavosevic, A. Kumar             : LibInt (2-el integral package), F12 methods 
  Garnet Chan, S. Sharma, J. Yang, R. Olivares  : DMRG                   
  Ulf Ekstrom                                   : XCFun DFT Library      
  Mihaly Kallay                                 : mrcc  (arbitrary order and MRCC methods)
  Frank Weinhold                                : gennbo (NPA and NBO analysis)           
  Simon Mueller                                 : openCOSMO-RS                            
  Christopher J. Cramer and Donald G. Truhlar   : smd solvation model                     
  S Lehtola, MJT Oliveira, MAL Marques          : LibXC Library                           
  Liviu Ungur et al                             : ANISO software                          


 Your calculation uses the libint2 library for the computation of 2-el integrals
 For citations please refer to: http://libint.valeyev.net

 Your ORCA version has been built with support for libXC version: 7.0.0
 For citations please refer to: https://libxc.gitlab.io

 This ORCA versions uses:
   CBLAS   interface :  Fast vector & matrix operations
   LAPACKE interface :  Fast linear algebra routines
   SCALAPACK package :  Parallel linear algebra routines
   Shared memory     :  Shared parallel matrices
   BLAS/LAPACK       :  OpenBLAS 0.3.29  USE64BITINT DYNAMIC_ARCH NO_AFFINITY Cooperlake SINGLE_THREADED
        Core in use  :  Cooperlake
   Copyright (c) 2011-2014, The OpenBLAS Project


  ***********************************
  * Starting time: Wed May 20 12:38:34 2026
  * Host name:     c1-46
  * Process ID:    3973834
  * Working dir.:  /cluster/projects/nn14654k/ylvaos/basis_set_n_funcs/functionals/gga_c_pw91/PO2/out
  ***********************************

Using LibXC functional ID 134 : Perdew & Wang 91
[ 1]  J. P. Perdew. In P. Ziesche and H. Eschrig, editors, Proceedings of the 75. WE-Heraeus-Seminar and 21st Annual International Symposium on Electronic Structure of Solids, 11. Berlin, 1991. Akademie Verlag.
[ 2]  J. P. Perdew, J. A. Chevary, S. H. Vosko, K. A. Jackson, M. R. Pederson, D. J. Singh, and C. Fiolhais.,  Phys. Rev. B 46, 6671 (1992)
[ 3]  J. P. Perdew, J. A. Chevary, S. H. Vosko, K. A. Jackson, M. R. Pederson, D. J. Singh, and C. Fiolhais.,  Phys. Rev. B 48, 4978 (1993)
Using LibXC functional ID 134 : Perdew & Wang 91
[ 1]  J. P. Perdew. In P. Ziesche and H. Eschrig, editors, Proceedings of the 75. WE-Heraeus-Seminar and 21st Annual International Symposium on Electronic Structure of Solids, 11. Berlin, 1991. Akademie Verlag.
[ 2]  J. P. Perdew, J. A. Chevary, S. H. Vosko, K. A. Jackson, M. R. Pederson, D. J. Singh, and C. Fiolhais.,  Phys. Rev. B 46, 6671 (1992)
[ 3]  J. P. Perdew, J. A. Chevary, S. H. Vosko, K. A. Jackson, M. R. Pederson, D. J. Singh, and C. Fiolhais.,  Phys. Rev. B 48, 4978 (1993)
Your calculation utilizes LibXC
by S. Lehtola, C. Steigemann, M. J. T. Oliveira & M. A. L. Marques
Please cite in your paper:
Lehtola, S.; Steigemann, C.; Oliveira, M.J.T.; Marques, M. A. L. Software X, 7, (2018), 1.
   

================================================================================

----- Orbital basis set information -----
Your calculation utilizes the basis: cc-pVDZ 
       H, B-Ne : Obtained from the ccRepo (grant-hill.group.shef.ac.uk/ccrepo) Feb. 2017
                 T. H. Dunning, Jr., J. Chem. Phys. 90, 1007 (1989)
            He : Obtained from the ccRepo (grant-hill.group.shef.ac.uk/ccrepo) Feb. 2017
                 D. E. Woon, T. H. Dunning, Jr., J. Chem. Phys. 100, 2975 (1994)
  Li-Be, Na-Mg : Obtained from the ccRepo (grant-hill.group.shef.ac.uk/ccrepo) Feb. 2017
                 B. P. Prascher, D. E. Woon, K. A. Peterson, T. H. Dunning, Jr., A. K. Wilson, Theor. Chem. Acc. 128, 69 (2011)
         Al-Ar : Obtained from the ccRepo (grant-hill.group.shef.ac.uk/ccrepo) Feb. 2017
                 D. E. Woon, T. H. Dunning, Jr., J. Chem. Phys. 98, 1358 (1993)
            Ca : Obtained from the Peterson Research Group Website (tyr0.chem.wsu.edu/~kipeters) Feb. 2017
                 J. Koput, K. A. Peterson, J. Phys. Chem. 106, 9595 (2002)
         Sc-Zn : Obtained from the ccRepo (grant-hill.group.shef.ac.uk/ccrepo) Feb. 2017
                 N. B. Balabanov, K. A. Peterson, J. Chem. Phys. 123, 064107 (2005)
                 N. B. Balabanov, K. A. Peterson, J. Chem. Phys. 125, 074110 (2006)
         Ga-Kr : Obtained from the ccRepo (grant-hill.group.shef.ac.uk/ccrepo) Feb. 2017
                 A. K. Wilson, D. E. Woon, K. A. Peterson, T. H. Dunning, Jr., J. Chem. Phys. 110, 7667 (1999)

================================================================================
                                        WARNINGS
                       Please study these warnings very carefully!
================================================================================


WARNING: your system is open-shell and RHF/RKS was chosen
  ===> : WILL SWITCH to UHF/UKS


================================================================================
                                       INPUT FILE
================================================================================
NAME = /cluster/projects/nn14654k/ylvaos/basis_set_n_funcs/functionals/gga_c_pw91/PO2/inp/PO2_gga_c_pw91_ccpvdz.inp
|  1> ! dft cc-pVDZ TightSCF
|  2> %pal nprocs 8 end
|  3> 
|  4> %loc
|  5>   LocMet NewBoys
|  6>   Occ true
|  7> end
|  8> 
|  9> %method
| 10>   exchange None
| 11>   correlation gga_c_pw91
| 12> end
| 13> 
| 14> %elprop
| 15>   Dipole true
| 16>   Quadrupole true
| 17> end
| 18> 
| 19> * xyz 0 2
| 20> P    0.000000000000   0.000000000000   0.287900000000
| 21> O    0.000000000000   1.356300000000  -0.269900000000
| 22> O    0.000000000000  -1.356300000000  -0.269900000000
| 23> *
| 24> 
| 25> 
| 26>                          ****END OF INPUT****
================================================================================

                       ****************************
                       * Single Point Calculation *
                       ****************************

---------------------------------
CARTESIAN COORDINATES (ANGSTROEM)
---------------------------------
  P      0.000000    0.000000    0.287900
  O      0.000000    1.356300   -0.269900
  O      0.000000   -1.356300   -0.269900

----------------------------
CARTESIAN COORDINATES (A.U.)
----------------------------
  NO LB      ZA    FRAG     MASS         X           Y           Z
   0 P    15.0000    0    30.974    0.000000    0.000000    0.544052
   1 O     8.0000    0    15.999    0.000000    2.563036   -0.510037
   2 O     8.0000    0    15.999    0.000000   -2.563036   -0.510037

--------------------------------
INTERNAL COORDINATES (ANGSTROEM)
--------------------------------
 P      0   0   0     0.000000000000     0.00000000     0.00000000
 O      1   0   0     1.466523279733     0.00000000     0.00000000
 O      1   2   0     1.466523279733   135.28860674     0.00000000

---------------------------
INTERNAL COORDINATES (A.U.)
---------------------------
 P      0   0   0     0.000000000000     0.00000000     0.00000000
 O      1   0   0     2.771327367716     0.00000000     0.00000000
 O      1   2   0     2.771327367716   135.28860674     0.00000000

---------------------
BASIS SET INFORMATION
---------------------
There are 2 groups of distinct atoms

 Group   1 Type P   : 34s15p1d contracted to 4s3p1d pattern {1111111/771/1}
 Group   2 Type O   : 17s4p1d contracted to 3s2p1d pattern {881/31/1}

Atom   0P    basis set group =>   1
Atom   1O    basis set group =>   2
Atom   2O    basis set group =>   2


           ************************************************************
           *        Program running with 8 parallel MPI-processes     *
           *              working on a common directory               *
           ************************************************************
------------------------------------------------------------------------------
                             ORCA STARTUP CALCULATIONS
------------------------------------------------------------------------------
------------------------------------------------------------------------------
                   ___                                                        
                  /   \      - P O W E R E D   B Y -                         
                 /     \                                                     
                 |  |  |   _    _      __       _____    __    __             
                 |  |  |  | |  | |    /  \     |  _  \  |  |  /  |          
                  \  \/   | |  | |   /    \    | | | |  |  | /  /          
                 / \  \   | |__| |  /  /\  \   | |_| |  |  |/  /          
                |  |  |   |  __  | /  /__\  \  |    /   |      \           
                |  |  |   | |  | | |   __   |  |    \   |  |\   \          
                \     /   | |  | | |  |  |  |  | |\  \  |  | \   \       
                 \___/    |_|  |_| |__|  |__|  |_| \__\ |__|  \__/        
                                                                              
                      - O R C A' S   B I G   F R I E N D -                    
                                      &                                       
                       - I N T E G R A L  F E E D E R -                       
                                                                              
 v1 FN, 2020, v2 2021, v3 2022-2024                                           
------------------------------------------------------------------------------


----------------------
SHARK INTEGRAL PACKAGE
----------------------

Number of atoms                             ...      3
Number of basis functions                   ...     81
Number of shells                            ...     45
Maximum angular momentum                    ...      2
Integral batch strategy                     ... SHARK/LIBINT Hybrid
RI-J (if used) integral strategy            ... SPLIT-RIJ (Revised 2003 algorithm where possible)
Printlevel                                  ...      1
Contraction scheme used                     ... PARTIAL GENERAL contraction
Prescreening option                         ... SCHWARTZ
   Thresh                                   ... 2.500e-11
   Tcut                                     ... 2.500e-12
   Tpresel                                  ... 2.500e-12 
Coulomb Range Separation                    ... NOT USED
Exchange Range Separation                   ... NOT USED
Multipole approximations                    ... NOT USED
Finite Nucleus Model                        ... NOT USED
CABS basis                                  ... NOT available
Auxiliary Coulomb fitting basis             ... NOT available
Auxiliary J/K fitting basis                 ... NOT available
Auxiliary Correlation fitting basis         ... NOT available
Auxiliary 'external' fitting basis          ... NOT available

Checking pre-screening integrals            ... done (  0.0 sec) Dimension = 45
Save PGC pre-screening integrals            ... done (  0.0 sec) Dimension = 45
Calculate PGC overlap integrals             ... done (  0.0 sec) Dimension = 20
Calculating pre-screening integrals (ORCA)  ... done (  0.0 sec) Dimension = 20
Shell pair information
Shell pair cut-off parameter TPreSel        ...   2.5e-12
Total number of shell pairs                 ...      1035
Shell pairs after pre-screening             ...       776
Total number of primitive shell pairs       ...      1231
Primitive shell pairs kept                  ...       916
          la=0 lb=0:    282 shell pairs
          la=1 lb=0:    294 shell pairs
          la=1 lb=1:     78 shell pairs
          la=2 lb=0:     80 shell pairs
          la=2 lb=1:     36 shell pairs
          la=2 lb=2:      6 shell pairs

Checking whether 4 symmetric matrices of dimension 81 fit in memory
:Max Core in MB      =   4096.00
 MB in use           =      1.99
 MB left             =   4094.01
 MB needed           =      0.10
 Data fit in memory  = YES
Calculating Nuclear repulsion               ... done (  0.0 sec) ENN=     99.086296046297 Eh

Diagonalization of the overlap matrix:
Smallest eigenvalue                        ... 2.684e-02
Time for diagonalization                   ...    0.001 sec
Threshold for overlap eigenvalues          ... 1.000e-07
Number of eigenvalues below threshold      ... 0
Time for construction of square roots      ...    0.001 sec
Total time needed                          ...    0.004 sec

-------------------
DFT GRID GENERATION
-------------------

General Integration Accuracy     IntAcc      ... 4.388
Radial Grid Type                 RadialGrid  ... OptM3 with GC (2021)
Angular Grid (max. ang.)         AngularGrid ... 4 (Lebedev-302)
Angular grid pruning method      GridPruning ... 4 (adaptive)
Weight generation scheme         WeightScheme... mBecke (2022)
Basis function cutoff            BFCut       ... 1.0000e-11
Integration weight cutoff        WCut        ... 1.0000e-14
Partially contracted basis set               ... off
Rotationally invariant grid construction     ... off
Angular grids for H and He will be reduced by one unit

Total number of grid points                  ...    19622
Total number of batches                      ...      309
Average number of points per batch           ...       63
Average number of grid points per atom       ...     6541

---------------------
SHARK GRID GENERATION
---------------------

General Integration Accuracy     IntAcc      ... 4.388
Radial Grid Type                 RadialGrid  ... OptM3 with GC (2021)
Angular Grid (max. ang.)         AngularGrid ... 4 (Lebedev-302)
Angular grid pruning method      GridPruning ... 4 (adaptive)
Weight generation scheme         WeightScheme... mBecke (2022)
Basis function cutoff            BFCut       ... 1.0000e-11
Integration weight cutoff        WCut        ... 1.0000e-14
Partially contracted basis set               ... off
Rotationally invariant grid construction     ... off
Angular grids for H and He will be reduced by one unit
Core-polarized basis detected: some atoms will have their core
                               angular grid increased.
Steep s-basis detected: some atoms will have their radial
                        grid points doubled.

Total number of grid points                  ...    44068
Total number of batches                      ...      689
Average number of points per batch           ...       63
Average number of grid points per atom       ...    14689
Grids setup in   0.4 sec
Initializing property integral containers    ... done (  0.0 sec)

SHARK setup successfully completed in   0.5 seconds

Maximum memory used throughout the entire STARTUP-calculation: 25.2 MB


           ************************************************************
           *        Program running with 8 parallel MPI-processes     *
           *              working on a common directory               *
           ************************************************************
-------------------------------------------------------------------------------
                                 ORCA GUESS
                   Start orbitals & Density for SCF / CASSCF
-------------------------------------------------------------------------------

------------
SCF SETTINGS
------------
Hamiltonian:
 Density Functional     Method          .... DFT(GTOs)
 Exchange Functional    Exchange        .... no Exchange
  Functional kind                       .... Correlation
  Functional name                       .... Perdew & Wang 91
  Functional family                     .... GGA
  Functional refs                              
    [ 0] J. P. Perdew. In P. Ziesche and H. Eschrig, editors, Proceedings of the 75. WE-Heraeus-Seminar and 21st Annual International Symposium on Electronic Structure of Solids, 11. Berlin, 1991. Akademie Verlag.
    [ 1] J. P. Perdew, J. A. Chevary, S. H. Vosko, K. A. Jackson, M. R. Pederson, D. J. Singh, and C. Fiolhais.,  Phys. Rev. B 46, 6671 (1992), doi: 10.1103/PhysRevB.46.6671
    [ 2] J. P. Perdew, J. A. Chevary, S. H. Vosko, K. A. Jackson, M. R. Pederson, D. J. Singh, and C. Fiolhais.,  Phys. Rev. B 48, 4978 (1993), doi: 10.1103/PhysRevB.48.4978.2
  Functional external parameters        .... 0
 Gradients option       PostSCFGGA      .... off


General Settings:
 Integral files         IntName         .... /cluster/projects/nn14654k/ylvaos/basis_set_n_funcs/functionals/gga_c_pw91/PO2/inp/PO2_gga_c_pw91_ccpvdz
 Hartree-Fock type      HFTyp           .... UHF
 Total Charge           Charge          ....    0
 Multiplicity           Mult            ....    2
 Number of Electrons    NEL             ....   31
 Basis Dimension        Dim             ....   46
 Nuclear Repulsion      ENuc            ....     99.0862960463 Eh

Convergence Acceleration:
 AO-DIIS                CNVDIIS         .... on
   Start iteration      DIISMaxIt       ....    12
   Startup error        DIISStart       ....  0.200000
   # of expansion vecs  DIISMaxEq       ....     5
   Bias factor          DIISBfac        ....   1.050
   Max. coefficient     DIISMaxC        ....  10.000
 MO-DIIS                CNVKDIIS        .... off
 Trust-Rad. Augm. Hess. CNVTRAH         .... auto
   Auto Start mean grad. ratio tolernc. ....  1.125000
   Auto Start start iteration           ....    50
   Auto Start num. interpolation iter.  ....    10
   Max. Number of Micro iterations      ....    24
   Max. Number of Macro iterations      .... Maxiter - #DIIS iter
   Number of Davidson start vectors     ....     2
   Converg. threshold    (grad. norm)   ....   1.000e-05
   Grad. Scal. Fac. for Micro threshold ....   0.100
   Minimum threshold for Micro iter.    ....   1.000e-02
   NR start threshold (gradient norm)   ....   1.000e-04
   Initial trust radius                 ....   0.400
   Minimum AH scaling param. (alpha)    ....   1.000
   Maximum AH scaling param. (alpha)    .... 1000.000
   Quad. conv. algorithm                .... NR
   White noise on init. David. guess    .... on
   Maximum white noise                  ....   0.010
   Pseudo random numbers                .... off
   Inactive MOs                         .... canonical
   Orbital update algorithm             .... Taylor
   Preconditioner                       .... Diag
   Full preconditioner red. dimension   ....   250
 SOSCF                 CNVSOSCF           .... on
   Start iteration     SOSCFMaxIt         ....   150
   Startup grad/error  SOSCFStart         ....  0.003300
   Hessian update      SOSCFHessUp        .... L-BFGS
   Autom. constraints  SOSCFAutoConstrain .... off
 Level Shifting         CNVShift        .... on
   Level shift para.    LevelShift      ....    0.2500
   Turn off err/grad.   ShiftErr        ....    0.0010
 Zerner damping         CNVZerner       .... off
 Static damping         CNVDamp         .... on
   Fraction old density DampFac         ....    0.7000
   Max. Damping (<1)    DampMax         ....    0.9800
   Min. Damping (>=0)   DampMin         ....    0.0000
   Turn off err/grad.   DampErr         ....    0.1000

SCF Procedure:
 Maximum # iterations   MaxIter         ....   125
 SCF integral mode      SCFMode         .... Direct
   Integral package                     .... SHARK and LIBINT hybrid scheme
 Reset frequency        DirectResetFreq ....    20
 Integral Threshold     Thresh          ....  2.500e-11 Eh
 Primitive CutOff       TCut            ....  2.500e-12 Eh

Convergence Tolerance:
 Convergence Check Mode ConvCheckMode   .... Total+1el-Energy
 Convergence forced     ConvForced      .... 0
 Energy Change          TolE            ....  1.000e-08 Eh
 1-El. energy change                    ....  1.000e-05 Eh
 Orbital Gradient       TolG            ....  1.000e-05
 Orbital Rotation angle TolX            ....  1.000e-05
 DIIS Error             TolErr          ....  5.000e-07

------------------------------
INITIAL GUESS: MODEL POTENTIAL
------------------------------
Loading Hartree-Fock densities                     ... done
Calculating cut-offs                               ... done
Initializing the effective Hamiltonian             ... done
Setting up the integral package (SHARK)            ... done
Starting the Coulomb interaction                   ... done (   0.0 sec)
Making the grid                                    ... done (   0.0 sec)
Mapping shells                                     ... done
Starting the XC term evaluation                    ... done (   0.0 sec)
  promolecular density results
     # of electrons  =     31.000340385
     EX              =      0.000000000
     EC              =     -1.203276189
     EX+EC           =     -1.203276189
Transforming the Hamiltonian                       ... done (   0.0 sec)
Diagonalizing the Hamiltonian                      ... done (   0.0 sec)
Back transforming the eigenvectors                 ... done (   0.0 sec)
Now organizing SCF variables                       ... done
                      ------------------
                      INITIAL GUESS DONE (   0.0 sec)
                      ------------------
             **** ENERGY FILE WAS UPDATED (/cluster/projects/nn14654k/ylvaos/basis_set_n_funcs/functionals/gga_c_pw91/PO2/inp/PO2_gga_c_pw91_ccpvdz.en.tmp) ****
Finished Guess after   0.1 sec
Maximum memory used throughout the entire GUESS-calculation: 4.3 MB


           ************************************************************
           *        Program running with 8 parallel MPI-processes     *
           *              working on a common directory               *
           ************************************************************

-------------------------------------------------------------------------------------------
                                      ORCA LEAN-SCF
                              memory conserving SCF solver
-------------------------------------------------------------------------------------------

----------------------------------------D-I-I-S--------------------------------------------
Iteration    Energy (Eh)           Delta-E    RMSDP     MaxDP     DIISErr   Damp  Time(sec)
-------------------------------------------------------------------------------------------
               ***  Starting incremental Fock matrix formation  ***
    1    -452.4354538631237688     0.00e+00  4.90e-02  3.79e-01  2.73e-01  0.700   0.1
Warning: op=1 Small HOMO/LUMO gap (   0.068) - skipping pre-diagonalization
         Will do a full diagonalization
    2    -452.8452108234178581    -4.10e-01  3.26e-02  3.06e-01  8.06e-02  0.700   0.1
                               ***Turning on AO-DIIS***
    3    -452.9728121458825285    -1.28e-01  1.70e-02  1.64e-01  4.15e-02  0.700   0.1
    4    -453.0564155976723555    -8.36e-02  2.69e-02  2.46e-01  2.14e-02  0.000   0.1
    5    -453.2475149153986536    -1.91e-01  7.55e-03  7.85e-02  1.07e-02  0.000   0.1
                              *** Initializing SOSCF ***
---------------------------------------S-O-S-C-F--------------------------------------
Iteration    Energy (Eh)           Delta-E    RMSDP     MaxDP     MaxGrad    Time(sec)
--------------------------------------------------------------------------------------
    6    -453.2502554000477062    -2.74e-03  2.17e-03  2.29e-02  2.47e-03     0.1
               *** Restarting incremental Fock matrix formation ***
    7    -453.2504114571041214    -1.56e-04  1.15e-03  1.19e-02  1.41e-03     0.1
    8    -453.2504223498841043    -1.09e-05  3.52e-04  2.96e-03  9.18e-04     0.1
    9    -453.2504217957182959     5.54e-07  4.38e-04  4.84e-03  8.68e-04     0.1
   10    -453.2504285458709887    -6.75e-06  1.19e-04  9.24e-04  2.27e-04     0.1
   11    -453.2504288899601192    -3.44e-07  3.81e-05  1.41e-04  1.68e-04     0.1
   12    -453.2504290914998251    -2.02e-07  7.26e-06  2.89e-05  1.26e-05     0.1
   13    -453.2504290935921176    -2.09e-09  2.07e-06  1.54e-05  6.56e-06     0.1
                 **** Energy Check signals convergence ****

               *****************************************************
               *                     SUCCESS                       *
               *           SCF CONVERGED AFTER  13 CYCLES          *
               *****************************************************

             **** ENERGY FILE WAS UPDATED (/cluster/projects/nn14654k/ylvaos/basis_set_n_funcs/functionals/gga_c_pw91/PO2/inp/PO2_gga_c_pw91_ccpvdz.en.tmp) ****

----------------
TOTAL SCF ENERGY
----------------

Total Energy       :       -453.25042909409518 Eh          -12333.57120 eV

Components:
Nuclear Repulsion  :         99.08629604629714 Eh            2696.27519 eV
Electronic Energy  :       -552.33672514039222 Eh          -15029.84639 eV
One Electron Energy:       -862.33270781950796 Eh          -23465.26593 eV
Two Electron Energy:        309.99598267911568 Eh            8435.41954 eV

Virial components:
Potential Energy   :       -929.12957456600498 Eh          -25282.90108 eV
Kinetic Energy     :        475.87914547190985 Eh           12949.32988 eV
Virial Ratio       :          1.95244860676680

DFT components:
N(Alpha)           :       15.999993125597 electrons
N(Beta)            :       14.999997882506 electrons
N(Total)           :       30.999991008103 electrons
E(X)               :        0.000000000000 Eh       
E(C)               :       -1.193050274088 Eh       
E(XC)              :       -1.193050274088 Eh       

---------------
SCF CONVERGENCE
---------------

  Last Energy change         ...    2.0923e-09  Tolerance :   1.0000e-08
  Last MAX-Density change    ...    1.5425e-05  Tolerance :   1.0000e-07
  Last RMS-Density change    ...    2.0679e-06  Tolerance :   5.0000e-09
  Last DIIS Error            ...    2.4721e-03  Tolerance :   5.0000e-07
  Last Orbital Gradient      ...    6.5570e-06  Tolerance :   1.0000e-05
  Last Orbital Rotation      ...    1.0151e-05  Tolerance :   1.0000e-05


----------------------
UHF SPIN CONTAMINATION
----------------------

Warning: in a DFT calculation there is little theoretical justification to 
         calculate <S**2> as in Hartree-Fock theory. We will do it anyways
         but you should keep in mind that the values have only limited relevance

Expectation value of <S**2>     :     0.750055
Ideal value S*(S+1) for S=0.5   :     0.750000
Deviation                       :     0.000055

----------------
ORBITAL ENERGIES
----------------
                 SPIN UP ORBITALS
  NO   OCC          E(Eh)            E(eV) 
   0   1.0000     -71.289519     -1939.8864 
   1   1.0000     -16.561416      -450.6590 
   2   1.0000     -16.561409      -450.6589 
   3   1.0000      -5.078532      -138.1939 
   4   1.0000      -3.333653       -90.7133 
   5   1.0000      -3.321525       -90.3833 
   6   1.0000      -3.321449       -90.3812 
   7   1.0000      -0.574414       -15.6306 
   8   1.0000      -0.516570       -14.0566 
   9   1.0000      -0.119418        -3.2495 
  10   1.0000      -0.077579        -2.1110 
  11   1.0000      -0.064487        -1.7548 
  12   1.0000      -0.027541        -0.7494 
  13   1.0000       0.015797         0.4299 
  14   1.0000       0.029222         0.7952 
  15   1.0000       0.097363         2.6494 
  16   0.0000       0.210911         5.7392 
  17   0.0000       0.283822         7.7232 
  18   0.0000       0.338217         9.2033 
  19   0.0000       0.587221        15.9791 
  20   0.0000       0.621102        16.9010 
  21   0.0000       0.637850        17.3568 
  22   0.0000       0.675793        18.3893 
  23   0.0000       0.687545        18.7090 
  24   0.0000       0.720350        19.6017 
  25   0.0000       0.793514        21.5926 
  26   0.0000       0.981521        26.7085 

                 SPIN DOWN ORBITALS
  NO   OCC          E(Eh)            E(eV) 
   0   1.0000     -71.289553     -1939.8874 
   1   1.0000     -16.561802      -450.6696 
   2   1.0000     -16.561796      -450.6694 
   3   1.0000      -5.078717      -138.1989 
   4   1.0000      -3.333818       -90.7178 
   5   1.0000      -3.321880       -90.3930 
   6   1.0000      -3.321646       -90.3866 
   7   1.0000      -0.577104       -15.7038 
   8   1.0000      -0.519320       -14.1314 
   9   1.0000      -0.123809        -3.3690 
  10   1.0000      -0.079927        -2.1749 
  11   1.0000      -0.066838        -1.8188 
  12   1.0000      -0.030788        -0.8378 
  13   1.0000       0.014276         0.3885 
  14   1.0000       0.027414         0.7460 
  15   0.0000       0.090568         2.4645 
  16   0.0000       0.207065         5.6345 
  17   0.0000       0.280903         7.6438 
  18   0.0000       0.335187         9.1209 
  19   0.0000       0.582955        15.8630 
  20   0.0000       0.618972        16.8431 
  21   0.0000       0.635093        17.2818 
  22   0.0000       0.669674        18.2228 
  23   0.0000       0.682280        18.5658 
  24   0.0000       0.716835        19.5061 
  25   0.0000       0.791016        21.5246 
*Only the first 10 virtual orbitals were printed.

                    ********************************
                    * MULLIKEN POPULATION ANALYSIS *
                    ********************************

--------------------------------------------
MULLIKEN ATOMIC CHARGES AND SPIN POPULATIONS
--------------------------------------------
   0 P :   -0.142204    0.544983
   1 O :    0.071102    0.227509
   2 O :    0.071102    0.227509
Sum of atomic charges         :    0.0000000
Sum of atomic spin populations:    1.0000000

-----------------------------------------------------
MULLIKEN REDUCED ORBITAL CHARGES AND SPIN POPULATIONS
-----------------------------------------------------
CHARGE
  0 P s       :     5.634759  s :     5.634759
      pz      :     3.062031  p :     8.933129
      px      :     3.036515
      py      :     2.834583
      dz2     :     0.073726  d :     0.574315
      dxz     :     0.014314
      dyz     :     0.179750
      dx2y2   :     0.130863
      dxy     :     0.175661

  1 O s       :     3.639684  s :     3.639684
      pz      :     1.414684  p :     4.278359
      px      :     1.383226
      py      :     1.480449
      dz2     :     0.001614  d :     0.010854
      dxz     :     0.000473
      dyz     :     0.003045
      dx2y2   :     0.002667
      dxy     :     0.003055

  2 O s       :     3.639684  s :     3.639684
      pz      :     1.414684  p :     4.278359
      px      :     1.383226
      py      :     1.480449
      dz2     :     0.001614  d :     0.010854
      dxz     :     0.000473
      dyz     :     0.003045
      dx2y2   :     0.002667
      dxy     :     0.003055


SPIN
  0 P s       :     0.401275  s :     0.401275
      pz      :     0.072554  p :     0.068332
      px      :    -0.005476
      py      :     0.001255
      dz2     :     0.026393  d :     0.075376
      dxz     :     0.000524
      dyz     :    -0.000351
      dx2y2   :     0.049132
      dxy     :    -0.000322

  1 O s       :    -0.014134  s :    -0.014134
      pz      :     0.192087  p :     0.241453
      px      :     0.002647
      py      :     0.046719
      dz2     :     0.000006  d :     0.000190
      dxz     :    -0.000005
      dyz     :     0.000079
      dx2y2   :     0.000115
      dxy     :    -0.000005

  2 O s       :    -0.014134  s :    -0.014134
      pz      :     0.192087  p :     0.241453
      px      :     0.002647
      py      :     0.046719
      dz2     :     0.000006  d :     0.000190
      dxz     :    -0.000005
      dyz     :     0.000079
      dx2y2   :     0.000115
      dxy     :    -0.000005



                     *******************************
                     * LOEWDIN POPULATION ANALYSIS *
                     *******************************

-------------------------------------------
LOEWDIN ATOMIC CHARGES AND SPIN POPULATIONS
-------------------------------------------
   0 P :   -0.223875    0.550294
   1 O :    0.111937    0.224853
   2 O :    0.111937    0.224853

----------------------------------------------------
LOEWDIN REDUCED ORBITAL CHARGES AND SPIN POPULATIONS
----------------------------------------------------
CHARGE
  0 P s       :     5.340137  s :     5.340137
      pz      :     3.084682  p :     8.986744
      px      :     2.992122
      py      :     2.909940
      dz2     :     0.108587  d :     0.896994
      dxz     :     0.014306
      dyz     :     0.285967
      dx2y2   :     0.252112
      dxy     :     0.236022

  1 O s       :     3.517056  s :     3.517056
      pz      :     1.429236  p :     4.353213
      px      :     1.374905
      py      :     1.549072
      dz2     :     0.002165  d :     0.017794
      dxz     :     0.000494
      dyz     :     0.005803
      dx2y2   :     0.005956
      dxy     :     0.003376

  2 O s       :     3.517056  s :     3.517056
      pz      :     1.429236  p :     4.353213
      px      :     1.374905
      py      :     1.549072
      dz2     :     0.002165  d :     0.017794
      dxz     :     0.000494
      dyz     :     0.005803
      dx2y2   :     0.005956
      dxy     :     0.003376


SPIN
  0 P s       :     0.282612  s :     0.282612
      pz      :     0.104246  p :     0.100348
      px      :    -0.004734
      py      :     0.000835
      dz2     :     0.051389  d :     0.167334
      dxz     :     0.000492
      dyz     :    -0.000274
      dx2y2   :     0.115952
      dxy     :    -0.000225

  1 O s       :     0.006284  s :     0.006284
      pz      :     0.174286  p :     0.218448
      px      :     0.002247
      py      :     0.041915
      dz2     :     0.000053  d :     0.000122
      dxz     :    -0.000006
      dyz     :     0.000004
      dx2y2   :     0.000079
      dxy     :    -0.000008

  2 O s       :     0.006284  s :     0.006284
      pz      :     0.174286  p :     0.218448
      px      :     0.002247
      py      :     0.041915
      dz2     :     0.000053  d :     0.000122
      dxz     :    -0.000006
      dyz     :     0.000004
      dx2y2   :     0.000079
      dxy     :    -0.000008



                      *****************************
                      * MAYER POPULATION ANALYSIS *
                      *****************************

  NA   - Mulliken gross atomic population
  ZA   - Total nuclear charge
  QA   - Mulliken gross atomic charge
  VA   - Mayer's total valence
  BVA  - Mayer's bonded valence
  FA   - Mayer's free valence

  ATOM       NA         ZA         QA         VA         BVA        FA
  0 P     15.1422    15.0000    -0.1422     4.8832     4.5822     0.3010
  1 O      7.9289     8.0000     0.0711     2.6726     2.6224     0.0503
  2 O      7.9289     8.0000     0.0711     2.6726     2.6224     0.0503

  Mayer bond orders larger than 0.100000
B(  0-P ,  1-O ) :   2.2911 B(  0-P ,  2-O ) :   2.2911 B(  1-O ,  2-O ) :   0.3313 


-------
TIMINGS
-------

Total SCF time: 0 days 0 hours 0 min 1 sec 

Total time                  ....       1.017 sec
Sum of individual times     ....       0.941 sec  ( 92.5%)

SCF preparation             ....       0.049 sec  (  4.8%)
Fock matrix formation       ....       0.572 sec  ( 56.3%)
  Startup                   ....       0.018 sec  (  3.1% of F)
  Coulomb formation         ....       0.101 sec  ( 17.6% of F)
  XC integration            ....       0.286 sec  ( 49.9% of F)
    XC Preparation          ....       0.000 sec  (  0.0% of XC)
    Basis function eval.    ....       0.030 sec  ( 10.3% of XC)
    Density eval.           ....       0.013 sec  (  4.6% of XC)
    XC-Functional eval.     ....       0.017 sec  (  6.0% of XC)
    XC-Potential eval.      ....       0.019 sec  (  6.6% of XC)
Diagonalization             ....       0.000 sec  (  0.0%)
Density matrix formation    ....       0.088 sec  (  8.6%)
Total Energy calculation    ....       0.019 sec  (  1.8%)
Population analysis         ....       0.010 sec  (  1.0%)
Orbital Transformation      ....       0.020 sec  (  1.9%)
Orbital Orthonormalization  ....       0.000 sec  (  0.0%)
DIIS solution               ....       0.120 sec  ( 11.8%)
SOSCF solution              ....       0.065 sec  (  6.3%)
Finished LeanSCF after   1.0 sec

Maximum memory used throughout the entire LEANSCF-calculation: 6.3 MB


           ************************************************************
           *        Program running with 8 parallel MPI-processes     *
           *              working on a common directory               *
           ************************************************************

------------------------------------------------------------------------------
                         ORCA PROPERTY INTEGRAL CALCULATIONS
------------------------------------------------------------------------------

GBWName                                   ... /cluster/projects/nn14654k/ylvaos/basis_set_n_funcs/functionals/gga_c_pw91/PO2/inp/PO2_gga_c_pw91_ccpvdz.gbw
Number of atoms                           ...      3
Number of basis functions                 ...     81
Max core memory                           ...   4096 MB

Dipole integrals                          ... YES
Quadrupole integrals                      ... YES
Linear momentum integrals                 ...  NO
Angular momentum integrals                ...  NO
Higher moments length integrals           ...  NO
Higher moments velocity integrals         ...  NO
Kinetic energy integrals                  ...  NO
GIAO right hand sides                     ...  NO
GIAO dipole derivative integrals          ...  NO
SOC integrals                             ...  NO
EPR diamagnetic integrals (GIAO)          ...  NO
EPR gauge integrals                       ...  NO
Field gradient integrals                  ...  NO (   0 nuclei)
Spin-dipole/Fermi contact integrals       ...  NO (   0 nuclei)
Contact density integrals                 ...  NO (   0 nuclei)
Nucleus-orbit integrals                   ...  NO (   0 nuclei)
Geometric perturbations                   ...  NO (   3 nuclei)

Choice of electric origin   ... Center of mass
Position of electric origin ... (  0.0000,  0.0000,  0.0084) 
Choice of magnetic origin   ... GIAO
Position of magnetic origin ... (  0.0000,  0.0000,  0.0000) 

Calculating integrals                     ... Electric Dipole (Length)     done (  0.0 sec)
Calculating integrals                     ... Electric Quadrupole (Length) done (  0.0 sec)

Property integrals calculated in   0.0 sec

Maximum memory used throughout the entire PROPINT-calculation: 4.5 MB
------------------------------------------------------------------------------
                           ORCA ORBITAL LOCALIZATION
------------------------------------------------------------------------------

Input orbitals are from                  ... /cluster/projects/nn14654k/ylvaos/basis_set_n_funcs/functionals/gga_c_pw91/PO2/inp/PO2_gga_c_pw91_ccpvdz.gbw
Output orbitals are to                   ... /cluster/projects/nn14654k/ylvaos/basis_set_n_funcs/functionals/gga_c_pw91/PO2/inp/PO2_gga_c_pw91_ccpvdz.loc
Max. number of iterations                ... 128
Localizations seeded randomly            ... on
Convergence tolerance                    ... 1.000e-06
Threshold for strong local MOs           ... 9.500e-01
Threshold for bond MOs                   ... 8.500e-01
Operator                                 ... 0
Orbital range for localization           ... 4 to 15
Localization criterion                   ... NEW-BOYS
Doing the dipole integrals               ... o.k.
Initial value of the localization sum :    35.806806
ITERATION   0 : L=   49.3747478914 DL=  1.36e+01 (AVERGE_DL)=    0.4534036505 
ITERATION   1 : L=   49.8292137066 DL=  4.54e-01 (AVERGE_DL)=    0.0829809959 
ITERATION   2 : L=   49.8336264410 DL=  4.41e-03 (AVERGE_DL)=    0.0081767727 
ITERATION   3 : L=   49.8341330382 DL=  5.07e-04 (AVERGE_DL)=    0.0027705081 
ITERATION   4 : L=   49.8343269395 DL=  1.94e-04 (AVERGE_DL)=    0.0017140296 
ITERATION   5 : L=   49.8344052015 DL=  7.83e-05 (AVERGE_DL)=    0.0010889394 
ITERATION   6 : L=   49.8344353929 DL=  3.02e-05 (AVERGE_DL)=    0.0006763463 
ITERATION   7 : L=   49.8344466841 DL=  1.13e-05 (AVERGE_DL)=    0.0004136182 
ITERATION   8 : L=   49.8344508246 DL=  4.14e-06 (AVERGE_DL)=    0.0002504680 
ITERATION   9 : L=   49.8344523258 DL=  1.50e-06 (AVERGE_DL)=    0.0001508169 
ITERATION  10 : L=   49.8344528666 DL=  5.41e-07 (AVERGE_DL)=    0.0000905172 
LOCALIZATION SUM CONVERGED


--------------------------------------------------------------------------------
                    LOCALIZED MOLECULAR ORBITAL COMPOSITIONS
--------------------------------------------------------------------------------

The Mulliken populations for each LMO on each atom are computed
The LMO`s will be ordered according to atom index and type
  (A) Strongly localized MO`s have populations of >=0.950 on one atom
  (B) Two center bond orbitals have populations of >=0.850 on two atoms
  (C) Other MO`s are considered to be `delocalized`

FOUND  -   4 strongly local MO`s
       -   8 two center bond MO`s
       -   0 significantly delocalized MO`s

Rather strongly localized orbitals:
MO   7:   0P  -   1.000412
MO   6:   0P  -   1.004030
MO   5:   0P  -   1.017087
MO   4:   0P  -   1.037333
Bond-like localized orbitals:
MO  15:   2O  -   0.804382  and   0P  -   0.196912
MO  14:   2O  -   0.689114  and   0P  -   0.306748
MO  13:   2O  -   0.689148  and   0P  -   0.306727
MO  12:   2O  -   0.929071  and   0P  -   0.070154
MO  11:   1O  -   0.689117  and   0P  -   0.306746
MO  10:   1O  -   0.804382  and   0P  -   0.196913
MO   9:   1O  -   0.689147  and   0P  -   0.306727
MO   8:   1O  -   0.929070  and   0P  -   0.070154
Localized MO's were stored in: /cluster/projects/nn14654k/ylvaos/basis_set_n_funcs/functionals/gga_c_pw91/PO2/inp/PO2_gga_c_pw91_ccpvdz.loc
------------------------------------------------------------------------------
                           ORCA ORBITAL LOCALIZATION
------------------------------------------------------------------------------

Input orbitals are from                  ... /cluster/projects/nn14654k/ylvaos/basis_set_n_funcs/functionals/gga_c_pw91/PO2/inp/PO2_gga_c_pw91_ccpvdz.loc
Output orbitals are to                   ... /cluster/projects/nn14654k/ylvaos/basis_set_n_funcs/functionals/gga_c_pw91/PO2/inp/PO2_gga_c_pw91_ccpvdz.loc
Max. number of iterations                ... 128
Localizations seeded randomly            ... on
Convergence tolerance                    ... 1.000e-06
Threshold for strong local MOs           ... 9.500e-01
Threshold for bond MOs                   ... 8.500e-01
Operator                                 ... 1
Orbital range for localization           ... 4 to 14
Localization criterion                   ... NEW-BOYS
Doing the dipole integrals               ... o.k.
Initial value of the localization sum :    31.840170
ITERATION   0 : L=   39.8733616309 DL=  8.03e+00 (AVERGE_DL)=    0.3821753884 
ITERATION   1 : L=   41.2819750614 DL=  1.41e+00 (AVERGE_DL)=    0.1600348502 
ITERATION   2 : L=   41.3197990695 DL=  3.78e-02 (AVERGE_DL)=    0.0262242109 
ITERATION   3 : L=   41.3213340608 DL=  1.53e-03 (AVERGE_DL)=    0.0052828907 
ITERATION   4 : L=   41.3213716340 DL=  3.76e-05 (AVERGE_DL)=    0.0008265281 
ITERATION   5 : L=   41.3213809058 DL=  9.27e-06 (AVERGE_DL)=    0.0004105810 
ITERATION   6 : L=   41.3213889003 DL=  7.99e-06 (AVERGE_DL)=    0.0003812556 
ITERATION   7 : L=   41.3213959742 DL=  7.07e-06 (AVERGE_DL)=    0.0003586317 
ITERATION   8 : L=   41.3214022334 DL=  6.26e-06 (AVERGE_DL)=    0.0003373476 
ITERATION   9 : L=   41.3214077722 DL=  5.54e-06 (AVERGE_DL)=    0.0003173395 
ITERATION  10 : L=   41.3214126739 DL=  4.90e-06 (AVERGE_DL)=    0.0002985339 
ITERATION  11 : L=   41.3214170144 DL=  4.34e-06 (AVERGE_DL)=    0.0002809234 
ITERATION  12 : L=   41.3214208585 DL=  3.84e-06 (AVERGE_DL)=    0.0002643731 
ITERATION  13 : L=   41.3214242650 DL=  3.41e-06 (AVERGE_DL)=    0.0002488681 
ITERATION  14 : L=   41.3214272823 DL=  3.02e-06 (AVERGE_DL)=    0.0002342245 
ITERATION  15 : L=   41.3214299560 DL=  2.67e-06 (AVERGE_DL)=    0.0002204833 
ITERATION  16 : L=   41.3214323263 DL=  2.37e-06 (AVERGE_DL)=    0.0002075945 
ITERATION  17 : L=   41.3214344278 DL=  2.10e-06 (AVERGE_DL)=    0.0001954722 
ITERATION  18 : L=   41.3214362912 DL=  1.86e-06 (AVERGE_DL)=    0.0001840678 
ITERATION  19 : L=   41.3214379442 DL=  1.65e-06 (AVERGE_DL)=    0.0001733589 
ITERATION  20 : L=   41.3214394101 DL=  1.47e-06 (AVERGE_DL)=    0.0001632596 
ITERATION  21 : L=   41.3214407107 DL=  1.30e-06 (AVERGE_DL)=    0.0001537757 
ITERATION  22 : L=   41.3214418643 DL=  1.15e-06 (AVERGE_DL)=    0.0001448238 
ITERATION  23 : L=   41.3214428883 DL=  1.02e-06 (AVERGE_DL)=    0.0001364485 
ITERATION  24 : L=   41.3214437966 DL=  9.08e-07 (AVERGE_DL)=    0.0001285128 
LOCALIZATION SUM CONVERGED


--------------------------------------------------------------------------------
                    LOCALIZED MOLECULAR ORBITAL COMPOSITIONS
--------------------------------------------------------------------------------

The Mulliken populations for each LMO on each atom are computed
The LMO`s will be ordered according to atom index and type
  (A) Strongly localized MO`s have populations of >=0.950 on one atom
  (B) Two center bond orbitals have populations of >=0.850 on two atoms
  (C) Other MO`s are considered to be `delocalized`

FOUND  -   3 strongly local MO`s
       -   8 two center bond MO`s
       -   0 significantly delocalized MO`s

Rather strongly localized orbitals:
MO   6:   0P  -   1.001746
MO   5:   0P  -   1.001746
MO   4:   0P  -   1.015946
Bond-like localized orbitals:
MO  14:   2O  -   0.533709  and   0P  -   0.450851
MO  13:   2O  -   0.697780  and   0P  -   0.297464
MO  12:   2O  -   0.698969  and   0P  -   0.296283
MO  11:   2O  -   0.912752  and   0P  -   0.083168
MO  10:   1O  -   0.533710  and   0P  -   0.450851
MO   9:   1O  -   0.697738  and   0P  -   0.297503
MO   8:   1O  -   0.699010  and   0P  -   0.296245
MO   7:   1O  -   0.912752  and   0P  -   0.083167
Localized MO's were stored in: /cluster/projects/nn14654k/ylvaos/basis_set_n_funcs/functionals/gga_c_pw91/PO2/inp/PO2_gga_c_pw91_ccpvdz.loc

-------------------------   --------------------
FINAL SINGLE POINT ENERGY      -453.250429094095
-------------------------   --------------------



           ************************************************************
           *        Program running with 8 parallel MPI-processes     *
           *              working on a common directory               *
           ************************************************************

------------------------------------------------------------------------------
                              ORCA PROPERTY CALCULATIONS
------------------------------------------------------------------------------

GBWName                                 ... /cluster/projects/nn14654k/ylvaos/basis_set_n_funcs/functionals/gga_c_pw91/PO2/inp/PO2_gga_c_pw91_ccpvdz.gbw
Number of atoms                         ...      3
Number of basis functions               ...     81
Max core memory                         ...   4096 MB

Electric properties:
Dipole moment                           ... YES
Quadrupole moment                       ... YES
Static polarizability (Dipole/Dipole)   ...  NO
Static polarizability (Dipole/Quad.)    ...  NO
Static polarizability (Quad./Quad.)     ...  NO
Static polarizability (Velocity)        ...  NO
Static hyperpolarizability              ...  NO

Atomic electric properties:
Dipole moment                           ...  NO
Quadrupole moment                       ...  NO
Static polarizability                   ...  NO

Choice of electric origin               ... Center of mass
Position of electric origin             ...     0.000000     0.000000     0.008437

General magnetic properties:
Magnetizability                         ...  NO

EPR properties:
g-Tensor (aka g-matrix)                 ...  NO
Zero-Field splitting spin-orbit         ...  NO
Zero-field splitting spin-spin          ...  NO
Hyperfine couplings                     ...  NO (   0 nuclei)
Quadrupole couplings                    ...  NO (   0 nuclei)
Contact density                         ...  NO (   0 nuclei)

NMR properties:
Chemical shifts                         ...  NO (   0 nuclei)
Spin-rotation constants                 ...  NO (   0 nuclei)
Spin-spin couplings                     ...  NO (   0 nuclei,    0 pairs)

Choice of magnetic origin               ... GIAO
Position of magnetic origin             ...     0.000000     0.000000     0.000000

Properties with geometric perturbations:
SCF Hessian                             ...  NO
IR spectrum                             ...  NO
VCD spectrum                            ...  NO
X-ray spectroscopy properties:
SCF XES/XAS/RIXS spectra                ...  NO

SCF SOC stabilization energy            ...  NO
Diagonal Born-Oppenheimer correction    ...  NO

-------------
DIPOLE MOMENT
-------------

Method             : SCF
Type of density    : Electron Density
Multiplicity       :   2
Irrep              :   0
Energy             :  -453.2504290940951819 Eh
Basis              : AO
                                X                 Y                 Z
Electronic contribution:      0.000000000      -0.000000001       0.121890516
Nuclear contribution   :      0.000000000       0.000000000      -0.261362976
                        -----------------------------------------
Total Dipole Moment    :      0.000000000      -0.000000001      -0.139472461
                        -----------------------------------------
Magnitude (a.u.)       :      0.139472461
Magnitude (Debye)      :      0.354510822



--------------------
Rotational spectrum 
--------------------
 
Rotational constants in cm-1:             3.442444             0.286393             0.264396 
Rotational constants in MHz :        103201.869580          8585.841533          7926.407020 

Dipole components along the rotational axes: 
x,y,z [a.u.] :    -0.000000    -0.139472     0.000000 
x,y,z [Debye]:    -0.000000    -0.354511     0.000000 

 

Dipole moment calculation done in   0.0 sec 

-----------------
QUADRUPOLE MOMENT
-----------------

Method             : SCF
Type of density    : Electron Density
Multiplicity       :   2
Irrep              :   0
Energy             :  -453.2504290940951819 Eh
Basis              : AO

                XX              YY              ZZ              XY              XZ              YZ
  NUC        0.000000000   105.106420135     8.604299986     0.000000000     0.000000000     0.000000000
  EL       -19.967433281  -126.959127728   -29.215099390     0.000000000     0.000000000    -0.000000006
  TOT      -19.967433281   -21.852707593   -20.610799405     0.000000000     0.000000000    -0.000000006 (a.u.)
           -26.856880649   -29.392639075   -27.722230089     0.000000000     0.000000000    -0.000000008 (Buckingham)

diagonalized tensor:
           -21.852707593   -20.610799405   -19.967433281 (a.u.)
           -29.392639075   -27.722230089   -26.856880649 (Buckingham)
            -4.206167411     0.805059546     3.401107865 (traceless form in Buckingham)

            -0.000000000     0.000000000     1.000000000
             1.000000000     0.000000005     0.000000000
             0.000000005    -1.000000000     0.000000000
        
Isotropic quadrupole :   -20.810313426

Quadrupole moment calculation done in   0.0 sec (  0.0 sec for integrals)

Maximum memory used throughout the entire PROP-calculation: 2.1 MB

--------------------------------
SUGGESTED CITATIONS FOR THIS RUN
--------------------------------

Below you find a list of papers that are relevant to this ORCA run
We neither can nor want to force you to cite these papers, but we appreciate if you do
You receive ORCA, which is the product of decades of hard work by many enthusiastic individuals, for free
The only thing we kindly ask in return is that you cite our papers,
We deeply appreciate it, if you show your appreciation for ORCA by not just citing the generic ORCA reference.

Please note that relegating all ORCA citations to the supporting information does *not* help us.
SI sections are not indexed - citations you put there will not count into any citation statistics
But we need these citations in order to attract the funding resources that allow us to do what we are doing

Therefore, if you are a happy ORCA user, please consider citing a few of the papers listed below in the main body of your paper

In addition to the list printed below, the program has created the file /cluster/projects/nn14654k/ylvaos/basis_set_n_funcs/functionals/gga_c_pw91/PO2/inp/PO2_gga_c_pw91_ccpvdz.bibtex that contains the list in bibtex format
You can import this file easily into all common literature databanks and citation aid programs

It goes without saying that in many instances, there are alternative algorithms to achieve similar
results as the ones you have gotten from ORCA. It is, of course, also the case that in some instances
ORCA just re-implements algorithms worked out by others. We are fully aware of that and we are also
fully appreciative of our colleagues work. Hence this citation list should not be read as indicating
that the listed papers, which are focused on our own work, are the only ones worth citing. It simply
meant to make it easier for users to cite ORCA specific papers. It is not a substitute for doing your
own literature research and citing the relevant literature in a scientifically appropriate manner.

List of essential papers. We consider these as the minimum necessary citations

  1. Neese, F.
     Software update: the ORCA program system, version 6.0
     WIRES Comput. Molec. Sci. 2025 15(1), e70019
     doi.org/10.1002/wcms.70019

List of papers to cite with high priority. The work reported in these papers was absolutely
necessary for this run to complete.
Our perspective: the developers of density functionals and basis sets usually get cited in chemistry papers
Good! But without the algorithms to do something with them, the functionals or basis sets would not do anything.
Hence, in our opinion, the algorithm design and method developments papers are equally worthy of getting cited

  1. Lehtola, S.; Steigemann, C.; Oliveira, M.; Marques, M.
     Recent developments in Libxc - A comprehensive library of functionals for density functional theory
     Software X 2018 7 , 
     doi.org/10.1016/j.softx.2017.11.002
  2. Neese, F.
     The SHARK Integral Generation and Digestion System
     J. Comp. Chem. 2022 44(3), 381
     doi.org/10.1002/jcc.26942

List of suggested additional citations. These are papers that are important in the 'surrounding' of 
of this run, or papers that preceded the highly important papers. If you like your results we are grateful for a citation.

  1. Neese, F.
     The ORCA program system
     WIRES Comput. Molec. Sci. 2012 2(1), 73-78
     doi.org/10.1002/wcms.81
  2. Neese, F.
     Software update: the ORCA program system, version 4.0
     WIRES Comput. Molec. Sci. 2018 8(1), 1-6
     doi.org/10.1002/wcms.1327
  3. Neese, F.; Wennmohs, F.; Becker, U.; Riplinger, C.
     The ORCA quantum chemistry program package
     J. Chem. Phys. 2020 152(22), 224108
     doi.org/10.1063/5.0004608
  4. Neese, F.
     Software update: The ORCA program system—Version 5.0
     WIRES Comput. Molec. Sci. 2022 12(1), e1606
     doi.org/10.1002/wcms.1606

List of optional additional citations

  1. Neese, F.
     Approximate second-order SCF convergence for spin unrestricted wavefunctions
     Chem. Phys. Lett. 2000 325(1-3), 93-98
     doi.org/10.1016/s0009-2614(00)00662-x

Timings for individual modules:

Sum of individual times          ...        2.664 sec (=   0.044 min)
Startup calculation              ...        0.721 sec (=   0.012 min)  27.1 %
SCF iterations                   ...        1.500 sec (=   0.025 min)  56.3 %
Property integrals               ...        0.220 sec (=   0.004 min)   8.2 %
Property calculations            ...        0.218 sec (=   0.004 min)   8.2 %
Orbital localization             ...        0.006 sec (=   0.000 min)   0.2 %
                             ****ORCA TERMINATED NORMALLY****
TOTAL RUN TIME: 0 days 0 hours 0 minutes 3 seconds 410 msec
