
                                 *****************
                                 * O   R   C   A *
                                 *****************

                                            #,                                       
                                            ###                                      
                                            ####                                     
                                            #####                                    
                                            ######                                   
                                           ########,                                 
                                     ,,################,,,,,                         
                               ,,#################################,,                 
                          ,,##########################################,,             
                       ,#########################################, ''#####,          
                    ,#############################################,,   '####,        
                  ,##################################################,,,,####,       
                ,###########''''           ''''###############################       
              ,#####''   ,,,,##########,,,,          '''####'''          '####       
            ,##' ,,,,###########################,,,                        '##       
           ' ,,###''''                  '''############,,,                           
         ,,##''                                '''############,,,,        ,,,,,,###''
      ,#''                                            '''#######################'''  
     '                                                          ''''####''''         
             ,#######,   #######,   ,#######,      ##                                
            ,#'     '#,  ##    ##  ,#'     '#,    #''#        ,####,    ,#,          
            ##       ##  ##   ,#'  ##            #'  '#       #'       ,# #          
            ##       ##  #######   ##           ,######,      #####,      #          
            '#,     ,#'  ##    ##  '#,     ,#' ,#      #,     #,   #      #          
             '#######'   ##     ##  '#######'  #'      '#     '####' #    #          



                #########################################################
                #                        -***-                          #
                #          Department of theory and spectroscopy        #
                #                                                       #
                #                      Frank Neese                      #
                #                                                       #
                #     Directorship, Architecture, Infrastructure        #
                #                    SHARK, DRIVERS                     #
                #        Core code/Algorithms in most modules           #
                #                                                       #
                #        Max Planck Institute fuer Kohlenforschung      #
                #                Kaiser Wilhelm Platz 1                 #
                #                 D-45470 Muelheim/Ruhr                 #
                #                      Germany                          #
                #                                                       #
                #                  All rights reserved                  #
                #                        -***-                          #
                #########################################################


                         Program Version 6.1.1  -  RELEASE   -
                                (GIT: $487d211c$)
                          ($2025-11-21 10:33:24 +0100$)


 With contributions from (in alphabetic order):
[Max-Planck-Institut fuer Kohlenforschung]                               
  Daniel Aravena         : Magnetic Suceptibility                        
  Michael Atanasov       : Ab Initio Ligand Field Theory (pilot matlab implementation)
  Alexander A. Auer      : GIAO ZORA, VPT2 properties, NMR spectrum      
  Ute Becker             : All parallelization in ORCA, NUMFREQ, NUMCALC 
  Giovanni Bistoni       : ED, misc. LED, open-shell LED, HFLD           
  Dmytro Bykov           : pre 5.0 version of the SCF Hessian            
  Marcos Casanova-Páez   : Triplet and SCS-CIS(D). UHF-(DLPNO)-IP/EA/STEOM-CCSD. UHF-CVS-IP/STEOM-CCSD   
  Vijay G. Chilkuri      : MRCI spin determinant printing, contributions to CSF-ICE 
  Pauline Colinet        : FMM embedding                                 
  Dipayan Datta          : RHF DLPNO-CCSD density                        
  Achintya Kumar Dutta   : EOM-CC, STEOM-CC                              
  Nicolas Foglia         : Exact transition moments, OPA infrastructure, MCD improvements    
  Dmitry Ganyushin       : Spin-Orbit,Spin-Spin,Magnetic field MRCI      
  Miquel Garcia-Rates    : C-PCM and meta-GGA Hessian, CCSD/C-PCM, Gaussian charge scheme 
  Tiago L. C. Gouveia    : GS-ROHF, GS-ROCIS                             
  Yang Guo               : DLPNO-NEVPT2, F12-NEVPT2, CIM, IAO-localization        
  Andreas Hansen         : Spin unrestricted coupled pair/coupled cluster methods 
  Ingolf Harden          : AUTO-CI MPn and infrastructure                
  Benjamin Helmich-Paris : MC-RPA, TRAH-(SCF,CASSCF), AVAS, COSX integrals, SCF dyn. polar., MC-PDFT, srDFT 
  Lee Huntington         : MR-EOM, pCC                                   
  Robert Izsak           : Overlap fitted RIJCOSX, COSX-SCS-MP3, EOM     
  Riya Kayal             : Wick's Theorem for AUTO-CI, AUTO-CI UHF-CCSDT 
  Emily Kempfer          : AUTO-CI RHF CISDT and CCSDT, approximate NEVPT4
  Christian Kollmar      : KDIIS, OOCD, Brueckner-CCSD(T), CCSD density, CASPT2, CASPT2-K, improved NEVPT2 
  Axel Koslowski         : Symmetry handling                             
  Simone Kossmann        : meta-GGA functionals, TD-DFT gradient, OOMP2, (MP2 Hessian; deprecated post 5.0) 
  Lucas Lang             : DCDCAS, Hyperfine gauge corrections, ICE-SOC+SSC
  Marvin Lechner         : AUTO-CI (C++ implementation), FIC-MRCC        
  Spencer Leger          : CASSCF response                               
  Dagmar Lenk            : GEPOL surface, SMD, ORCA-2-JSON               
  Dimitrios Liakos       : Extrapolation schemes; Compound Job, Property file
  Dimitrios Manganas     : Further ROCIS development; embedding schemes. LFT, Crystal Embedding 
  Dimitrios Pantazis     : SARC Basis sets                               
  Anastasios Papadopoulos: AUTO-CI, single reference methods and gradients 
  Taras Petrenko         : pre 6.0 DFT Hessian and TD-DFT gradient,  ECA, NRVS 
  Petra Pikulova         : Analytic Raman intensities                    
  Peter Pinski           : DLPNO-MP2, DLPNO-MP2 Gradient                 
  Shashank Vittal Rao    : ES-AILFT, MagRelax                            
  Christoph Reimann      : Effective Core Potentials                     
  Marius Retegan         : Local ZFS, SOC                                
  Christoph Riplinger    : Optimizer, TS searches, QM/MM, DLPNO-CCSD(T), (RO)-DLPNO pert. Triples 
  Michael Roemelt        : Original ROCIS implementation, recursive CI coupling coefficients
  Masaaki Saitow         : Open-shell DLPNO-CCSD energy and density      
  Barbara Sandhoefer     : DKH picture change effects                    
  Yorick L. A. Schmerwitz: GMF and freeze-and-release deltaSCF, NEB S-IDPP initial path                    
  Kantharuban Sivalingam : CASSCF convergence/infrastructure, NEVPT2, NEVPT3, NEVPT4(SD), FIC-MRCI and CEPA variants
  Bernardo de Souza      : ESD, SOC TD-DFT                               
  Georgi L. Stoychev     : AutoAux, RI-MP2 NMR, DLPNO-MP2 response, X2C  
  Van Anh Tran           : RI-MP2 g-tensors                              
  Willem Van den Heuvel  : Paramagnetic NMR                              
  Zikuan Wang            : NOTCH, Electric field optimization            
  Frank Wennmohs         : Technical directorship and infrastructure     
  Hang Xu                : AUTO-CI-Response properties                   
                                                                         
[FACCTs GmbH]                                                            
  Markus Bursch, Nicolas Foglia, Miquel Garcia-Rates, Ingolf Harden, Hagen Neugebauer, Anastasios Papadopoulos, 
  Christoph Riplinger, Bernardo de Souza, Georgi L. Stoychev                                                    
                                                                 
  APM, various basis sets, CI-OPT, improved COSX, DLPNO-Multilevel,           
  DOCKER, DRACO, updates on ESD, Fragmentator, GOAT, IRC, LR-CPCM, L-BFGS, MBIS, meta-GGA TD-DFT gradient, ML-optimized integration grids, 
  MM, NACMEs, nearIR, NEB, NEB-TS, NL-DFT gradient (VV10), 2- and 3-layer-ONIOM, interface openCOSMO-RS, QMMM,   
  Crystal-QMMM, RESP, rigid body optimization, SF, symmetry and pop. for TD-DFT, various functionals, SOLVATOR                                   
                                                                         
[Other institutions]                                                     
  V. Asgeirsson          : NEB                                           
  Christoph Bannwarth    : sTDA-DFT, sTD-DFT, PBEh-3c, B97-3c, D3        
  Giovanni Bistoni       : ETS/NOCV, ADLD/ADEX, COVALED                  
  Martin Brehm           : Molecular dynamics                            
  Ronald Cardenas        : ETS/NOCV                                      
  Martina Colucci        : COVALED                                       
  Sebastian Ehlert       : rSCAN, r2SCAN, r2SCAN-3c, D4, dhf basis sets  
  Marvin Friede          : D4 for Fr, Ra, Ac-Lr                          
  Lars Goerigk           : TD-DFT with DH, B97 family of functionals     
  Stefan Grimme          : VdW corrections, initial TS optimization, DFT functionals, gCP, sTDA/sTD-DF 
  Waldemar Hujo          : DFT-NL                                        
  H. Jonsson             : NEB                                           
  Holger Kruse           : gCP                                           
  Marcel Mueller         : wB97X-3c, vDZP basis set                      
  Hagen Neugebauer       : wr2SCAN, Native XTB                           
  Gianluca Regni         : ADLD/ADEX                                     
  Tobias Risthaus        : pre 6.0 range-separated hybrid DFT and stability analysis
  Lukas Wittmann         : regularized MP2, r2SCAN double-hybrids, wr2SCAN        
                                                                         
We gratefully acknowledge several colleagues who have allowed us to      
interface, adapt or use parts of their codes:                            
  Ed Valeev, F. Pavosevic, A. Kumar             : LibInt (2-el integral package), F12 methods 
  Garnet Chan, S. Sharma, J. Yang, R. Olivares  : DMRG                   
  Ulf Ekstrom                                   : XCFun DFT Library      
  Mihaly Kallay                                 : mrcc  (arbitrary order and MRCC methods)
  Frank Weinhold                                : gennbo (NPA and NBO analysis)           
  Simon Mueller                                 : openCOSMO-RS                            
  Christopher J. Cramer and Donald G. Truhlar   : smd solvation model                     
  S Lehtola, MJT Oliveira, MAL Marques          : LibXC Library                           
  Liviu Ungur et al                             : ANISO software                          


 Your calculation uses the libint2 library for the computation of 2-el integrals
 For citations please refer to: http://libint.valeyev.net

 Your ORCA version has been built with support for libXC version: 7.0.0
 For citations please refer to: https://libxc.gitlab.io

 This ORCA versions uses:
   CBLAS   interface :  Fast vector & matrix operations
   LAPACKE interface :  Fast linear algebra routines
   SCALAPACK package :  Parallel linear algebra routines
   Shared memory     :  Shared parallel matrices
   BLAS/LAPACK       :  OpenBLAS 0.3.29  USE64BITINT DYNAMIC_ARCH NO_AFFINITY Cooperlake SINGLE_THREADED
        Core in use  :  Cooperlake
   Copyright (c) 2011-2014, The OpenBLAS Project


  ***********************************
  * Starting time: Fri May 15 14:02:16 2026
  * Host name:     c1-34
  * Process ID:    2484569
  * Working dir.:  /cluster/projects/nn14654k/ylvaos/basis_set_n_funcs/functionals/pbe/C4H6/out
  ***********************************

================================================================================

----- Orbital basis set information -----
Your calculation utilizes the basis: pc-2
   H, C-F              : F. Jensen, J. Chem. Phys. 115, 9113 (2001).
                         F. Jensen, J. Chem. Phys. 116, 7372 (2002).
                         F. Jensen, J. Chem. Phys. 117, 9234 (2002).
   Si-Cl               : F. Jensen, T. Helgaker, J. Chem. Phys. 121, 3463 (2004).
   He-B, Ne-Mg, Al, Ar : F. Jensen, J. Phys. Chem. A 111, 11198 (2007).
   K, Ca, Ga-Kr        : F. Jensen, J. Chem. Phys. 136, 094110 (2012).
   Sc-Zn               : F. Jensen, J. Chem. Phys. 138, 014107 (2013).

================================================================================
                                        WARNINGS
                       Please study these warnings very carefully!
================================================================================


================================================================================
                                       INPUT FILE
================================================================================
NAME = /cluster/projects/nn14654k/ylvaos/basis_set_n_funcs/functionals/pbe/C4H6/inp/C4H6_pbe_pc2.inp
|  1> ! dft pc-2 TightSCF
|  2> %pal nprocs 8 end
|  3> 
|  4> %loc
|  5>   LocMet NewBoys
|  6>   Occ true
|  7> end
|  8> 
|  9> %method
| 10>   
| 11>   functional pbe
| 12> end
| 13> 
| 14> %elprop
| 15>   Dipole true
| 16>   Quadrupole true
| 17> end
| 18> 
| 19> * xyz 0 1
| 20> C    0.000000000000   0.000000000000   1.632000000000
| 21> C    0.000000000000   0.000000000000   0.300000000000
| 22> C    0.000000000000   0.771000000000  -0.936300000000
| 23> C    0.000000000000  -0.771000000000  -0.936300000000
| 24> H    0.000000000000   0.914000000000   2.222200000000
| 25> H    0.000000000000  -0.914000000000   2.222200000000
| 26> H    0.912300000000   1.305900000000  -1.200300000000
| 27> H   -0.912300000000   1.305900000000  -1.200300000000
| 28> H   -0.912300000000  -1.305900000000  -1.200300000000
| 29> H    0.912300000000  -1.305900000000  -1.200300000000
| 30> *
| 31> 
| 32> 
| 33>                          ****END OF INPUT****
================================================================================

                       ****************************
                       * Single Point Calculation *
                       ****************************

---------------------------------
CARTESIAN COORDINATES (ANGSTROEM)
---------------------------------
  C      0.000000    0.000000    1.632000
  C      0.000000    0.000000    0.300000
  C      0.000000    0.771000   -0.936300
  C      0.000000   -0.771000   -0.936300
  H      0.000000    0.914000    2.222200
  H      0.000000   -0.914000    2.222200
  H      0.912300    1.305900   -1.200300
  H     -0.912300    1.305900   -1.200300
  H     -0.912300   -1.305900   -1.200300
  H      0.912300   -1.305900   -1.200300

----------------------------
CARTESIAN COORDINATES (A.U.)
----------------------------
  NO LB      ZA    FRAG     MASS         X           Y           Z
   0 C     6.0000    0    12.011    0.000000    0.000000    3.084033
   1 C     6.0000    0    12.011    0.000000    0.000000    0.566918
   2 C     6.0000    0    12.011    0.000000    1.456979   -1.769351
   3 C     6.0000    0    12.011    0.000000   -1.456979   -1.769351
   4 H     1.0000    0     1.008    0.000000    1.727210    4.199349
   5 H     1.0000    0     1.008    0.000000   -1.727210    4.199349
   6 H     1.0000    0     1.008    1.723997    2.467793   -2.268238
   7 H     1.0000    0     1.008   -1.723997    2.467793   -2.268238
   8 H     1.0000    0     1.008   -1.723997   -2.467793   -2.268238
   9 H     1.0000    0     1.008    1.723997   -2.467793   -2.268238

--------------------------------
INTERNAL COORDINATES (ANGSTROEM)
--------------------------------
 C      0   0   0     0.000000000000     0.00000000     0.00000000
 C      1   0   0     1.332000000000     0.00000000     0.00000000
 C      2   1   0     1.457010188708   148.05088964     0.00000000
 C      2   1   3     1.457010188708   148.05088964   180.00000000
 H      1   2   3     1.087994503663   122.85166680     0.00000000
 H      1   2   3     1.087994503663   122.85166680   180.00000000
 H      3   2   1     1.090002431190   117.72260444    70.99760541
 H      3   2   1     1.090002431190   117.72260444   289.00239459
 H      4   2   1     1.090002431190   117.72260444    70.99760541
 H      4   2   1     1.090002431190   117.72260444   289.00239459

---------------------------
INTERNAL COORDINATES (A.U.)
---------------------------
 C      0   0   0     0.000000000000     0.00000000     0.00000000
 C      1   0   0     2.517115210383     0.00000000     0.00000000
 C      2   1   0     2.753350230992   148.05088964     0.00000000
 C      2   1   3     2.753350230992   148.05088964   180.00000000
 H      1   2   3     2.056011647134   122.85166680     0.00000000
 H      1   2   3     2.056011647134   122.85166680   180.00000000
 H      3   2   1     2.059806080257   117.72260444    70.99760541
 H      3   2   1     2.059806080257   117.72260444   289.00239459
 H      4   2   1     2.059806080257   117.72260444    70.99760541
 H      4   2   1     2.059806080257   117.72260444   289.00239459

---------------------
BASIS SET INFORMATION
---------------------
There are 2 groups of distinct atoms

 Group   1 Type C   : 16s6p2d1f contracted to 4s3p2d1f pattern {7711/411/11/1}
 Group   2 Type H   : 6s2p1d contracted to 3s2p1d pattern {411/11/1}

Atom   0C    basis set group =>   1
Atom   1C    basis set group =>   1
Atom   2C    basis set group =>   1
Atom   3C    basis set group =>   1
Atom   4H    basis set group =>   2
Atom   5H    basis set group =>   2
Atom   6H    basis set group =>   2
Atom   7H    basis set group =>   2
Atom   8H    basis set group =>   2
Atom   9H    basis set group =>   2


           ************************************************************
           *        Program running with 8 parallel MPI-processes     *
           *              working on a common directory               *
           ************************************************************
------------------------------------------------------------------------------
                             ORCA STARTUP CALCULATIONS
------------------------------------------------------------------------------
------------------------------------------------------------------------------
                   ___                                                        
                  /   \      - P O W E R E D   B Y -                         
                 /     \                                                     
                 |  |  |   _    _      __       _____    __    __             
                 |  |  |  | |  | |    /  \     |  _  \  |  |  /  |          
                  \  \/   | |  | |   /    \    | | | |  |  | /  /          
                 / \  \   | |__| |  /  /\  \   | |_| |  |  |/  /          
                |  |  |   |  __  | /  /__\  \  |    /   |      \           
                |  |  |   | |  | | |   __   |  |    \   |  |\   \          
                \     /   | |  | | |  |  |  |  | |\  \  |  | \   \       
                 \___/    |_|  |_| |__|  |__|  |_| \__\ |__|  \__/        
                                                                              
                      - O R C A' S   B I G   F R I E N D -                    
                                      &                                       
                       - I N T E G R A L  F E E D E R -                       
                                                                              
 v1 FN, 2020, v2 2021, v3 2022-2024                                           
------------------------------------------------------------------------------


----------------------
SHARK INTEGRAL PACKAGE
----------------------

Number of atoms                             ...     10
Number of basis functions                   ...    204
Number of shells                            ...     76
Maximum angular momentum                    ...      3
Integral batch strategy                     ... SHARK/LIBINT Hybrid
RI-J (if used) integral strategy            ... SPLIT-RIJ (Revised 2003 algorithm where possible)
Printlevel                                  ...      1
Contraction scheme used                     ... SEGMENTED contraction
Prescreening option                         ... SCHWARTZ
   Thresh                                   ... 2.500e-11
   Tcut                                     ... 2.500e-12
   Tpresel                                  ... 2.500e-12 
Coulomb Range Separation                    ... NOT USED
Exchange Range Separation                   ... NOT USED
Multipole approximations                    ... NOT USED
Finite Nucleus Model                        ... NOT USED
CABS basis                                  ... NOT available
Auxiliary Coulomb fitting basis             ... NOT available
Auxiliary J/K fitting basis                 ... NOT available
Auxiliary Correlation fitting basis         ... NOT available
Auxiliary 'external' fitting basis          ... NOT available

Checking pre-screening integrals            ... done (  0.0 sec) Dimension = 76
   => SHARK Basis and OBASIS are compatible. Storing Pre-screening
Shell pair information
Shell pair cut-off parameter TPreSel        ...   2.5e-12
Total number of shell pairs                 ...      2926
Shell pairs after pre-screening             ...      2876
Total number of primitive shell pairs       ...     12163
Primitive shell pairs kept                  ...      9202
          la=0 lb=0:    591 shell pairs
          la=1 lb=0:    800 shell pairs
          la=1 lb=1:    292 shell pairs
          la=2 lb=0:    468 shell pairs
          la=2 lb=1:    326 shell pairs
          la=2 lb=2:    101 shell pairs
          la=3 lb=0:    136 shell pairs
          la=3 lb=1:     96 shell pairs
          la=3 lb=2:     56 shell pairs
          la=3 lb=3:     10 shell pairs

Checking whether 4 symmetric matrices of dimension 204 fit in memory
:Max Core in MB      =   4096.00
 MB in use           =      5.91
 MB left             =   4090.09
 MB needed           =      0.64
 Data fit in memory  = YES
Calculating Nuclear repulsion               ... done (  0.0 sec) ENN=    109.249345578353 Eh

Diagonalization of the overlap matrix:
Smallest eigenvalue                        ... 3.658e-04
Time for diagonalization                   ...    0.003 sec
Threshold for overlap eigenvalues          ... 1.000e-07
Number of eigenvalues below threshold      ... 0
Time for construction of square roots      ...    0.002 sec
Total time needed                          ...    0.008 sec

-------------------
DFT GRID GENERATION
-------------------

General Integration Accuracy     IntAcc      ... 4.388
Radial Grid Type                 RadialGrid  ... OptM3 with GC (2021)
Angular Grid (max. ang.)         AngularGrid ... 4 (Lebedev-302)
Angular grid pruning method      GridPruning ... 4 (adaptive)
Weight generation scheme         WeightScheme... mBecke (2022)
Basis function cutoff            BFCut       ... 1.0000e-11
Integration weight cutoff        WCut        ... 1.0000e-14
Partially contracted basis set               ... off
Rotationally invariant grid construction     ... off
Angular grids for H and He will be reduced by one unit

Total number of grid points                  ...    43682
Total number of batches                      ...      687
Average number of points per batch           ...       63
Average number of grid points per atom       ...     4368
Grids setup in   0.2 sec
Initializing property integral containers    ... done (  0.0 sec)

SHARK setup successfully completed in   0.3 seconds

Maximum memory used throughout the entire STARTUP-calculation: 14.8 MB


           ************************************************************
           *        Program running with 8 parallel MPI-processes     *
           *              working on a common directory               *
           ************************************************************
-------------------------------------------------------------------------------
                                 ORCA GUESS
                   Start orbitals & Density for SCF / CASSCF
-------------------------------------------------------------------------------

------------
SCF SETTINGS
------------
Hamiltonian:
 Density Functional     Method          .... DFT(GTOs)
 Exchange Functional    Exchange        .... PBE
   PBE kappa parameter   XKappa         ....  0.804000
   PBE mue parameter    XMuePBE         ....  0.219520
 Correlation Functional Correlation     .... PBE
   PBE beta parameter  CBetaPBE         ....  0.066725
 LDA part of GGA corr.  LDAOpt          .... PW91-LDA
 Gradients option       PostSCFGGA      .... off
   NL short-range parameter             ....  6.400000


General Settings:
 Integral files         IntName         .... /cluster/projects/nn14654k/ylvaos/basis_set_n_funcs/functionals/pbe/C4H6/inp/C4H6_pbe_pc2
 Hartree-Fock type      HFTyp           .... RHF
 Total Charge           Charge          ....    0
 Multiplicity           Mult            ....    1
 Number of Electrons    NEL             ....   30
 Basis Dimension        Dim             ....  204
 Nuclear Repulsion      ENuc            ....    109.2493455784 Eh

Convergence Acceleration:
 AO-DIIS                CNVDIIS         .... on
   Start iteration      DIISMaxIt       ....    12
   Startup error        DIISStart       ....  0.200000
   # of expansion vecs  DIISMaxEq       ....     5
   Bias factor          DIISBfac        ....   1.050
   Max. coefficient     DIISMaxC        ....  10.000
 MO-DIIS                CNVKDIIS        .... off
 Trust-Rad. Augm. Hess. CNVTRAH         .... auto
   Auto Start mean grad. ratio tolernc. ....  1.125000
   Auto Start start iteration           ....    50
   Auto Start num. interpolation iter.  ....    10
   Max. Number of Micro iterations      ....    24
   Max. Number of Macro iterations      .... Maxiter - #DIIS iter
   Number of Davidson start vectors     ....     2
   Converg. threshold    (grad. norm)   ....   1.000e-05
   Grad. Scal. Fac. for Micro threshold ....   0.100
   Minimum threshold for Micro iter.    ....   1.000e-02
   NR start threshold (gradient norm)   ....   1.000e-04
   Initial trust radius                 ....   0.400
   Minimum AH scaling param. (alpha)    ....   1.000
   Maximum AH scaling param. (alpha)    .... 1000.000
   Quad. conv. algorithm                .... NR
   White noise on init. David. guess    .... on
   Maximum white noise                  ....   0.010
   Pseudo random numbers                .... off
   Inactive MOs                         .... canonical
   Orbital update algorithm             .... Taylor
   Preconditioner                       .... Diag
   Full preconditioner red. dimension   ....   250
 SOSCF                 CNVSOSCF           .... on
   Start iteration     SOSCFMaxIt         ....   150
   Startup grad/error  SOSCFStart         ....  0.003300
   Hessian update      SOSCFHessUp        .... L-BFGS
   Autom. constraints  SOSCFAutoConstrain .... off
 Level Shifting         CNVShift        .... on
   Level shift para.    LevelShift      ....    0.2500
   Turn off err/grad.   ShiftErr        ....    0.0010
 Zerner damping         CNVZerner       .... off
 Static damping         CNVDamp         .... on
   Fraction old density DampFac         ....    0.7000
   Max. Damping (<1)    DampMax         ....    0.9800
   Min. Damping (>=0)   DampMin         ....    0.0000
   Turn off err/grad.   DampErr         ....    0.1000

SCF Procedure:
 Maximum # iterations   MaxIter         ....   125
 SCF integral mode      SCFMode         .... Direct
   Integral package                     .... SHARK and LIBINT hybrid scheme
 Reset frequency        DirectResetFreq ....    20
 Integral Threshold     Thresh          ....  2.500e-11 Eh
 Primitive CutOff       TCut            ....  2.500e-12 Eh

Convergence Tolerance:
 Convergence Check Mode ConvCheckMode   .... Total+1el-Energy
 Convergence forced     ConvForced      .... 0
 Energy Change          TolE            ....  1.000e-08 Eh
 1-El. energy change                    ....  1.000e-05 Eh
 Orbital Gradient       TolG            ....  1.000e-05
 Orbital Rotation angle TolX            ....  1.000e-05
 DIIS Error             TolErr          ....  5.000e-07

------------------------------
INITIAL GUESS: MODEL POTENTIAL
------------------------------
Loading Hartree-Fock densities                     ... done
Calculating cut-offs                               ... done
Initializing the effective Hamiltonian             ... done
Setting up the integral package (SHARK)            ... done
Starting the Coulomb interaction                   ... done (   0.0 sec)
Making the grid                                    ... done (   0.0 sec)
Mapping shells                                     ... done
Starting the XC term evaluation                    ... done (   0.0 sec)
  promolecular density results
     # of electrons  =     29.996209296
     EX              =    -22.197122974
     EC              =     -0.956110014
     EX+EC           =    -23.153232987
Transforming the Hamiltonian                       ... done (   0.0 sec)
Diagonalizing the Hamiltonian                      ... done (   0.0 sec)
Back transforming the eigenvectors                 ... done (   0.0 sec)
Now organizing SCF variables                       ... done
                      ------------------
                      INITIAL GUESS DONE (   0.1 sec)
                      ------------------
             **** ENERGY FILE WAS UPDATED (/cluster/projects/nn14654k/ylvaos/basis_set_n_funcs/functionals/pbe/C4H6/inp/C4H6_pbe_pc2.en.tmp) ****
Finished Guess after   0.2 sec
Maximum memory used throughout the entire GUESS-calculation: 10.6 MB


           ************************************************************
           *        Program running with 8 parallel MPI-processes     *
           *              working on a common directory               *
           ************************************************************

-------------------------------------------------------------------------------------------
                                      ORCA LEAN-SCF
                              memory conserving SCF solver
-------------------------------------------------------------------------------------------

----------------------------------------D-I-I-S--------------------------------------------
Iteration    Energy (Eh)           Delta-E    RMSDP     MaxDP     DIISErr   Damp  Time(sec)
-------------------------------------------------------------------------------------------
               ***  Starting incremental Fock matrix formation  ***
    1    -155.6924705445828749     0.00e+00  3.97e-03  6.06e-02  1.60e-01  0.700   0.6
    2    -155.7501072011572205    -5.76e-02  2.73e-03  3.56e-02  8.13e-02  0.700   0.6
                               ***Turning on AO-DIIS***
    3    -155.7710793596044709    -2.10e-02  1.00e-03  7.89e-03  2.59e-02  0.700   0.6
    4    -155.7829959432704072    -1.19e-02  1.52e-03  9.60e-03  8.50e-03  0.000   0.6
    5    -155.8097451191072196    -2.67e-02  4.06e-04  3.21e-03  7.21e-03  0.000   0.6
                              *** Initializing SOSCF ***
---------------------------------------S-O-S-C-F--------------------------------------
Iteration    Energy (Eh)           Delta-E    RMSDP     MaxDP     MaxGrad    Time(sec)
--------------------------------------------------------------------------------------
    6    -155.8100261699157159    -2.81e-04  1.69e-04  1.16e-03  1.46e-03     0.6
               *** Restarting incremental Fock matrix formation ***
    7    -155.8100440752115787    -1.79e-05  1.33e-04  1.19e-03  3.76e-04     0.7
    8    -155.8100408693524628     3.21e-06  5.60e-05  8.21e-04  8.66e-04     0.6
    9    -155.8100460835274816    -5.21e-06  3.94e-05  3.19e-04  1.30e-04     0.6
   10    -155.8100456455979952     4.38e-07  2.03e-05  2.50e-04  1.84e-04     0.6
   11    -155.8100463931891113    -7.48e-07  6.53e-06  3.98e-05  2.18e-05     0.6
   12    -155.8100463906837945     2.51e-09  2.74e-06  3.08e-05  2.64e-05     0.6
                 **** Energy Check signals convergence ****

               *****************************************************
               *                     SUCCESS                       *
               *           SCF CONVERGED AFTER  12 CYCLES          *
               *****************************************************

             **** ENERGY FILE WAS UPDATED (/cluster/projects/nn14654k/ylvaos/basis_set_n_funcs/functionals/pbe/C4H6/inp/C4H6_pbe_pc2.en.tmp) ****

----------------
TOTAL SCF ENERGY
----------------

Total Energy       :       -155.81004639921241 Eh           -4239.80691 eV

Components:
Nuclear Repulsion  :        109.24934557835338 Eh            2972.82583 eV
Electronic Energy  :       -265.05939197756584 Eh           -7212.63274 eV
One Electron Energy:       -424.43234613328968 Eh          -11549.39130 eV
Two Electron Energy:        159.37295415572387 Eh            4336.75856 eV

Virial components:
Potential Energy   :       -310.97186782921881 Eh           -8461.97472 eV
Kinetic Energy     :        155.16182143000637 Eh            4222.16781 eV
Virial Ratio       :          2.00417773498166

DFT components:
N(Alpha)           :       14.999995122481 electrons
N(Beta)            :       14.999995122481 electrons
N(Total)           :       29.999990244961 electrons
E(X)               :      -22.727891125608 Eh       
E(C)               :       -0.965059936575 Eh       
E(XC)              :      -23.692951062184 Eh       

---------------
SCF CONVERGENCE
---------------

  Last Energy change         ...   -2.5053e-09  Tolerance :   1.0000e-08
  Last MAX-Density change    ...    3.0801e-05  Tolerance :   1.0000e-07
  Last RMS-Density change    ...    2.7436e-06  Tolerance :   5.0000e-09
  Last DIIS Error            ...    1.4607e-03  Tolerance :   5.0000e-07
  Last Orbital Gradient      ...    2.6435e-05  Tolerance :   1.0000e-05
  Last Orbital Rotation      ...    2.7913e-05  Tolerance :   1.0000e-05


----------------
ORBITAL ENERGIES
----------------

  NO   OCC          E(Eh)            E(eV) 
   0   2.0000      -9.897775      -269.3322 
   1   2.0000      -9.895599      -269.2729 
   2   2.0000      -9.895501      -269.2703 
   3   2.0000      -9.878618      -268.8109 
   4   2.0000      -0.794315       -21.6144 
   5   2.0000      -0.645565       -17.5667 
   6   2.0000      -0.553134       -15.0515 
   7   2.0000      -0.480406       -13.0725 
   8   2.0000      -0.432030       -11.7561 
   9   2.0000      -0.421504       -11.4697 
  10   2.0000      -0.380051       -10.3417 
  11   2.0000      -0.330410        -8.9909 
  12   2.0000      -0.278198        -7.5702 
  13   2.0000      -0.256691        -6.9849 
  14   2.0000      -0.228088        -6.2066 
  15   0.0000      -0.037017        -1.0073 
  16   0.0000       0.011136         0.3030 
  17   0.0000       0.030993         0.8434 
  18   0.0000       0.037267         1.0141 
  19   0.0000       0.056457         1.5363 
  20   0.0000       0.059493         1.6189 
  21   0.0000       0.090034         2.4499 
  22   0.0000       0.093633         2.5479 
  23   0.0000       0.107946         2.9374 
  24   0.0000       0.126562         3.4439 
  25   0.0000       0.164009         4.4629 
*Only the first 10 virtual orbitals were printed.

                    ********************************
                    * MULLIKEN POPULATION ANALYSIS *
                    ********************************

-----------------------
MULLIKEN ATOMIC CHARGES
-----------------------
   0 C :   -0.144521
   1 C :    0.010409
   2 C :   -0.138080
   3 C :   -0.138080
   4 H :    0.060642
   5 H :    0.060642
   6 H :    0.072247
   7 H :    0.072247
   8 H :    0.072247
   9 H :    0.072247
Sum of atomic charges:    0.0000000

--------------------------------
MULLIKEN REDUCED ORBITAL CHARGES
--------------------------------
  0 C s       :     3.166335  s :     3.166335
      pz      :     0.936057  p :     2.933903
      px      :     1.014458
      py      :     0.983388
      dz2     :     0.008747  d :     0.041541
      dxz     :     0.008375
      dyz     :     0.023124
      dx2y2   :     0.001263
      dxy     :     0.000032
      f0      :     0.000652  f :     0.002742
      f+1     :     0.001051
      f-1     :     0.000845
      f+2     :     0.000026
      f-2     :     0.000003
      f+3     :     0.000022
      f-3     :     0.000143

  1 C s       :     3.109222  s :     3.109222
      pz      :     0.789041  p :     2.775528
      px      :     0.965177
      py      :     1.021309
      dz2     :     0.029419  d :     0.097083
      dxz     :     0.019286
      dyz     :     0.039067
      dx2y2   :     0.003529
      dxy     :     0.005782
      f0      :     0.002533  f :     0.007758
      f+1     :     0.001969
      f-1     :     0.002082
      f+2     :     0.000474
      f-2     :     0.000584
      f+3     :     0.000062
      f-3     :     0.000056

  2 C s       :     3.135335  s :     3.135335
      pz      :     1.016885  p :     2.935907
      px      :     1.032905
      py      :     0.886117
      dz2     :     0.013918  d :     0.062914
      dxz     :     0.007531
      dyz     :     0.017563
      dx2y2   :     0.012219
      dxy     :     0.011683
      f0      :     0.000595  f :     0.003924
      f+1     :     0.000297
      f-1     :     0.001010
      f+2     :     0.000721
      f-2     :     0.000462
      f+3     :     0.000437
      f-3     :     0.000400

  3 C s       :     3.135335  s :     3.135335
      pz      :     1.016885  p :     2.935907
      px      :     1.032905
      py      :     0.886117
      dz2     :     0.013918  d :     0.062914
      dxz     :     0.007531
      dyz     :     0.017563
      dx2y2   :     0.012219
      dxy     :     0.011683
      f0      :     0.000595  f :     0.003924
      f+1     :     0.000297
      f-1     :     0.001010
      f+2     :     0.000721
      f-2     :     0.000462
      f+3     :     0.000437
      f-3     :     0.000400

  4 H s       :     0.897062  s :     0.897062
      pz      :     0.011394  p :     0.040166
      px      :     0.011225
      py      :     0.017548
      dz2     :     0.000338  d :     0.002130
      dxz     :     0.000216
      dyz     :     0.000707
      dx2y2   :     0.000477
      dxy     :     0.000393

  5 H s       :     0.897062  s :     0.897062
      pz      :     0.011394  p :     0.040166
      px      :     0.011225
      py      :     0.017548
      dz2     :     0.000338  d :     0.002130
      dxz     :     0.000216
      dyz     :     0.000707
      dx2y2   :     0.000477
      dxy     :     0.000393

  6 H s       :     0.882325  s :     0.882325
      pz      :     0.011973  p :     0.043104
      px      :     0.018171
      py      :     0.012960
      dz2     :     0.000335  d :     0.002324
      dxz     :     0.000527
      dyz     :     0.000203
      dx2y2   :     0.000616
      dxy     :     0.000643

  7 H s       :     0.882325  s :     0.882325
      pz      :     0.011973  p :     0.043104
      px      :     0.018171
      py      :     0.012960
      dz2     :     0.000335  d :     0.002324
      dxz     :     0.000527
      dyz     :     0.000203
      dx2y2   :     0.000616
      dxy     :     0.000643

  8 H s       :     0.882325  s :     0.882325
      pz      :     0.011973  p :     0.043104
      px      :     0.018171
      py      :     0.012960
      dz2     :     0.000335  d :     0.002324
      dxz     :     0.000527
      dyz     :     0.000203
      dx2y2   :     0.000616
      dxy     :     0.000643

  9 H s       :     0.882325  s :     0.882325
      pz      :     0.011973  p :     0.043104
      px      :     0.018171
      py      :     0.012960
      dz2     :     0.000335  d :     0.002324
      dxz     :     0.000527
      dyz     :     0.000203
      dx2y2   :     0.000616
      dxy     :     0.000643



                     *******************************
                     * LOEWDIN POPULATION ANALYSIS *
                     *******************************

----------------------
LOEWDIN ATOMIC CHARGES
----------------------
   0 C :    0.005537
   1 C :   -0.049541
   2 C :    0.034848
   3 C :    0.034848
   4 H :   -0.010890
   5 H :   -0.010890
   6 H :   -0.000978
   7 H :   -0.000978
   8 H :   -0.000978
   9 H :   -0.000978

-------------------------------
LOEWDIN REDUCED ORBITAL CHARGES
-------------------------------
  0 C s       :     2.777969  s :     2.777969
      pz      :     1.038735  p :     3.013923
      px      :     0.944061
      py      :     1.031127
      dz2     :     0.046623  d :     0.184911
      dxz     :     0.025113
      dyz     :     0.100933
      dx2y2   :     0.012217
      dxy     :     0.000027
      f0      :     0.005879  f :     0.017661
      f+1     :     0.002953
      f-1     :     0.005454
      f+2     :     0.002001
      f-2     :     0.000007
      f+3     :     0.000241
      f-3     :     0.001125

  1 C s       :     2.754434  s :     2.754434
      pz      :     1.046490  p :     2.939974
      px      :     0.882878
      py      :     1.010605
      dz2     :     0.105685  d :     0.324409
      dxz     :     0.073189
      dyz     :     0.112159
      dx2y2   :     0.015237
      dxy     :     0.018138
      f0      :     0.011666  f :     0.030725
      f+1     :     0.003686
      f-1     :     0.007668
      f+2     :     0.003117
      f-2     :     0.003944
      f+3     :     0.000495
      f-3     :     0.000149

  2 C s       :     2.715501  s :     2.715501
      pz      :     1.019287  p :     2.990701
      px      :     1.039802
      py      :     0.931612
      dz2     :     0.045594  d :     0.236329
      dxz     :     0.029161
      dyz     :     0.055023
      dx2y2   :     0.042186
      dxy     :     0.064365
      f0      :     0.004356  f :     0.022621
      f+1     :     0.002342
      f-1     :     0.003027
      f+2     :     0.004571
      f-2     :     0.002334
      f+3     :     0.002190
      f-3     :     0.003803

  3 C s       :     2.715501  s :     2.715501
      pz      :     1.019287  p :     2.990701
      px      :     1.039802
      py      :     0.931612
      dz2     :     0.045594  d :     0.236329
      dxz     :     0.029161
      dyz     :     0.055023
      dx2y2   :     0.042186
      dxy     :     0.064365
      f0      :     0.004356  f :     0.022621
      f+1     :     0.002342
      f-1     :     0.003027
      f+2     :     0.004571
      f-2     :     0.002334
      f+3     :     0.002190
      f-3     :     0.003803

  4 H s       :     0.856199  s :     0.856199
      pz      :     0.037800  p :     0.133014
      px      :     0.036885
      py      :     0.058328
      dz2     :     0.004065  d :     0.021678
      dxz     :     0.001986
      dyz     :     0.006792
      dx2y2   :     0.004674
      dxy     :     0.004160

  5 H s       :     0.856199  s :     0.856199
      pz      :     0.037800  p :     0.133014
      px      :     0.036885
      py      :     0.058328
      dz2     :     0.004065  d :     0.021678
      dxz     :     0.001986
      dyz     :     0.006792
      dx2y2   :     0.004674
      dxy     :     0.004160

  6 H s       :     0.842907  s :     0.842907
      pz      :     0.041190  p :     0.135790
      px      :     0.056424
      py      :     0.038176
      dz2     :     0.002946  d :     0.022281
      dxz     :     0.005093
      dyz     :     0.002107
      dx2y2   :     0.005735
      dxy     :     0.006400

  7 H s       :     0.842907  s :     0.842907
      pz      :     0.041190  p :     0.135790
      px      :     0.056424
      py      :     0.038176
      dz2     :     0.002946  d :     0.022281
      dxz     :     0.005093
      dyz     :     0.002107
      dx2y2   :     0.005735
      dxy     :     0.006400

  8 H s       :     0.842907  s :     0.842907
      pz      :     0.041190  p :     0.135790
      px      :     0.056424
      py      :     0.038176
      dz2     :     0.002946  d :     0.022281
      dxz     :     0.005093
      dyz     :     0.002107
      dx2y2   :     0.005735
      dxy     :     0.006400

  9 H s       :     0.842907  s :     0.842907
      pz      :     0.041190  p :     0.135790
      px      :     0.056424
      py      :     0.038176
      dz2     :     0.002946  d :     0.022281
      dxz     :     0.005093
      dyz     :     0.002107
      dx2y2   :     0.005735
      dxy     :     0.006400



                      *****************************
                      * MAYER POPULATION ANALYSIS *
                      *****************************

  NA   - Mulliken gross atomic population
  ZA   - Total nuclear charge
  QA   - Mulliken gross atomic charge
  VA   - Mayer's total valence
  BVA  - Mayer's bonded valence
  FA   - Mayer's free valence

  ATOM       NA         ZA         QA         VA         BVA        FA
  0 C      6.1445     6.0000    -0.1445     3.9292     3.9292     0.0000
  1 C      5.9896     6.0000     0.0104     3.8126     3.8126    -0.0000
  2 C      6.1381     6.0000    -0.1381     3.9345     3.9345    -0.0000
  3 C      6.1381     6.0000    -0.1381     3.9345     3.9345     0.0000
  4 H      0.9394     1.0000     0.0606     1.0056     1.0056     0.0000
  5 H      0.9394     1.0000     0.0606     1.0056     1.0056     0.0000
  6 H      0.9278     1.0000     0.0722     1.0115     1.0115    -0.0000
  7 H      0.9278     1.0000     0.0722     1.0115     1.0115     0.0000
  8 H      0.9278     1.0000     0.0722     1.0115     1.0115     0.0000
  9 H      0.9278     1.0000     0.0722     1.0115     1.0115     0.0000

  Mayer bond orders larger than 0.100000
B(  0-C ,  1-C ) :   1.8922 B(  0-C ,  4-H ) :   0.9850 B(  0-C ,  5-H ) :   0.9850 
B(  1-C ,  2-C ) :   0.9682 B(  1-C ,  3-C ) :   0.9682 B(  2-C ,  3-C ) :   0.9583 
B(  2-C ,  6-H ) :   0.9836 B(  2-C ,  7-H ) :   0.9836 B(  3-C ,  8-H ) :   0.9836 
B(  3-C ,  9-H ) :   0.9836 

-------
TIMINGS
-------

Total SCF time: 0 days 0 hours 0 min 8 sec 

Total time                  ....       8.069 sec
Sum of individual times     ....       7.532 sec  ( 93.3%)

SCF preparation             ....       0.069 sec  (  0.9%)
Fock matrix formation       ....       7.137 sec  ( 88.4%)
  Startup                   ....       0.009 sec  (  0.1% of F)
  Coulomb formation         ....       6.717 sec  ( 94.1% of F)
  XC integration            ....       0.758 sec  ( 10.6% of F)
    XC Preparation          ....       0.000 sec  (  0.0% of XC)
    Basis function eval.    ....       0.153 sec  ( 20.2% of XC)
    Density eval.           ....       0.117 sec  ( 15.4% of XC)
    XC-Functional eval.     ....       0.023 sec  (  3.0% of XC)
    XC-Potential eval.      ....       0.239 sec  ( 31.6% of XC)
Diagonalization             ....       0.000 sec  (  0.0%)
Density matrix formation    ....       0.088 sec  (  1.1%)
Total Energy calculation    ....       0.017 sec  (  0.2%)
Population analysis         ....       0.017 sec  (  0.2%)
Orbital Transformation      ....       0.022 sec  (  0.3%)
Orbital Orthonormalization  ....       0.000 sec  (  0.0%)
DIIS solution               ....       0.081 sec  (  1.0%)
SOSCF solution              ....       0.101 sec  (  1.3%)
Finished LeanSCF after   8.1 sec

Maximum memory used throughout the entire LEANSCF-calculation: 17.7 MB


           ************************************************************
           *        Program running with 8 parallel MPI-processes     *
           *              working on a common directory               *
           ************************************************************

------------------------------------------------------------------------------
                         ORCA PROPERTY INTEGRAL CALCULATIONS
------------------------------------------------------------------------------

GBWName                                   ... /cluster/projects/nn14654k/ylvaos/basis_set_n_funcs/functionals/pbe/C4H6/inp/C4H6_pbe_pc2.gbw
Number of atoms                           ...     10
Number of basis functions                 ...    204
Max core memory                           ...   4096 MB

Dipole integrals                          ... YES
Quadrupole integrals                      ... YES
Linear momentum integrals                 ...  NO
Angular momentum integrals                ...  NO
Higher moments length integrals           ...  NO
Higher moments velocity integrals         ...  NO
Kinetic energy integrals                  ...  NO
GIAO right hand sides                     ...  NO
GIAO dipole derivative integrals          ...  NO
SOC integrals                             ...  NO
EPR diamagnetic integrals (GIAO)          ...  NO
EPR gauge integrals                       ...  NO
Field gradient integrals                  ...  NO (   0 nuclei)
Spin-dipole/Fermi contact integrals       ...  NO (   0 nuclei)
Contact density integrals                 ...  NO (   0 nuclei)
Nucleus-orbit integrals                   ...  NO (   0 nuclei)
Geometric perturbations                   ...  NO (  10 nuclei)

Choice of electric origin   ... Center of mass
Position of electric origin ... (  0.0000,  0.0000,  0.0124) 
Choice of magnetic origin   ... GIAO
Position of magnetic origin ... (  0.0000,  0.0000,  0.0000) 

Calculating integrals                     ... Electric Dipole (Length)     done (  0.0 sec)
Calculating integrals                     ... Electric Quadrupole (Length) done (  0.0 sec)

Property integrals calculated in   0.0 sec

Maximum memory used throughout the entire PROPINT-calculation: 11.4 MB
------------------------------------------------------------------------------
                           ORCA ORBITAL LOCALIZATION
------------------------------------------------------------------------------

Input orbitals are from                  ... /cluster/projects/nn14654k/ylvaos/basis_set_n_funcs/functionals/pbe/C4H6/inp/C4H6_pbe_pc2.gbw
Output orbitals are to                   ... /cluster/projects/nn14654k/ylvaos/basis_set_n_funcs/functionals/pbe/C4H6/inp/C4H6_pbe_pc2.loc
Max. number of iterations                ... 128
Localizations seeded randomly            ... on
Convergence tolerance                    ... 1.000e-06
Threshold for strong local MOs           ... 9.500e-01
Threshold for bond MOs                   ... 8.500e-01
Operator                                 ... 0
Orbital range for localization           ... 4 to 14
Localization criterion                   ... NEW-BOYS
Doing the dipole integrals               ... o.k.
Initial value of the localization sum :    55.012066
ITERATION   0 : L=   81.7038530319 DL=  2.67e+01 (AVERGE_DL)=    0.6966385109 
ITERATION   1 : L=   86.0878979112 DL=  4.38e+00 (AVERGE_DL)=    0.2823294297 
ITERATION   2 : L=   86.1957519869 DL=  1.08e-01 (AVERGE_DL)=    0.0442829899 
ITERATION   3 : L=   86.1959407397 DL=  1.89e-04 (AVERGE_DL)=    0.0018525305 
ITERATION   4 : L=   86.1959412966 DL=  5.57e-07 (AVERGE_DL)=    0.0001006254 
LOCALIZATION SUM CONVERGED


--------------------------------------------------------------------------------
                    LOCALIZED MOLECULAR ORBITAL COMPOSITIONS
--------------------------------------------------------------------------------

The Mulliken populations for each LMO on each atom are computed
The LMO`s will be ordered according to atom index and type
  (A) Strongly localized MO`s have populations of >=0.950 on one atom
  (B) Two center bond orbitals have populations of >=0.850 on two atoms
  (C) Other MO`s are considered to be `delocalized`

FOUND  -   0 strongly local MO`s
       -  11 two center bond MO`s
       -   0 significantly delocalized MO`s

Bond-like localized orbitals:
MO  14:   9H  -   0.466270  and   3C  -   0.544308
MO  13:   8H  -   0.466270  and   3C  -   0.544308
MO  12:   7H  -   0.466271  and   2C  -   0.544308
MO  11:   6H  -   0.466271  and   2C  -   0.544308
MO  10:   5H  -   0.476874  and   0C  -   0.535682
MO   9:   4H  -   0.476874  and   0C  -   0.535682
MO   8:   3C  -   0.510336  and   2C  -   0.510335
MO   7:   3C  -   0.500113  and   1C  -   0.526197
MO   6:   2C  -   0.500113  and   1C  -   0.526198
MO   5:   1C  -   0.502065  and   0C  -   0.504913
MO   4:   1C  -   0.502065  and   0C  -   0.504913
Localized MO's were stored in: /cluster/projects/nn14654k/ylvaos/basis_set_n_funcs/functionals/pbe/C4H6/inp/C4H6_pbe_pc2.loc

-------------------------   --------------------
FINAL SINGLE POINT ENERGY      -155.810046399212
-------------------------   --------------------



           ************************************************************
           *        Program running with 8 parallel MPI-processes     *
           *              working on a common directory               *
           ************************************************************

------------------------------------------------------------------------------
                              ORCA PROPERTY CALCULATIONS
------------------------------------------------------------------------------

GBWName                                 ... /cluster/projects/nn14654k/ylvaos/basis_set_n_funcs/functionals/pbe/C4H6/inp/C4H6_pbe_pc2.gbw
Number of atoms                         ...     10
Number of basis functions               ...    204
Max core memory                         ...   4096 MB

Electric properties:
Dipole moment                           ... YES
Quadrupole moment                       ... YES
Static polarizability (Dipole/Dipole)   ...  NO
Static polarizability (Dipole/Quad.)    ...  NO
Static polarizability (Quad./Quad.)     ...  NO
Static polarizability (Velocity)        ...  NO
Static hyperpolarizability              ...  NO

Atomic electric properties:
Dipole moment                           ...  NO
Quadrupole moment                       ...  NO
Static polarizability                   ...  NO

Choice of electric origin               ... Center of mass
Position of electric origin             ...     0.000000     0.000000     0.012360

General magnetic properties:
Magnetizability                         ...  NO

EPR properties:
g-Tensor (aka g-matrix)                 ...  NO
Zero-Field splitting spin-orbit         ...  NO
Zero-field splitting spin-spin          ...  NO
Hyperfine couplings                     ...  NO (   0 nuclei)
Quadrupole couplings                    ...  NO (   0 nuclei)
Contact density                         ...  NO (   0 nuclei)

NMR properties:
Chemical shifts                         ...  NO (   0 nuclei)
Spin-rotation constants                 ...  NO (   0 nuclei)
Spin-spin couplings                     ...  NO (   0 nuclei,    0 pairs)

Choice of magnetic origin               ... GIAO
Position of magnetic origin             ...     0.000000     0.000000     0.000000

Properties with geometric perturbations:
SCF Hessian                             ...  NO
IR spectrum                             ...  NO
VCD spectrum                            ...  NO
X-ray spectroscopy properties:
SCF XES/XAS/RIXS spectra                ...  NO

SCF SOC stabilization energy            ...  NO
Diagonal Born-Oppenheimer correction    ...  NO

-------------
DIPOLE MOMENT
-------------

Method             : SCF
Type of density    : Electron Density
Multiplicity       :   1
Irrep              :   0
Energy             :  -155.8100463992124105 Eh
Basis              : AO
                                X                 Y                 Z
Electronic contribution:      0.000000000       0.000000002       0.204627185
Nuclear contribution   :      0.000000000       0.000000000      -0.371559272
                        -----------------------------------------
Total Dipole Moment    :      0.000000000       0.000000002      -0.166932086
                        -----------------------------------------
Magnitude (a.u.)       :      0.166932086
Magnitude (Debye)      :      0.424307643



--------------------
Rotational spectrum 
--------------------
 
Rotational constants in cm-1:             0.643527             0.230144             0.181788 
Rotational constants in MHz :         19292.450199          6899.535423          5449.866904 

Dipole components along the rotational axes: 
x,y,z [a.u.] :    -0.166932     0.000000     0.000000 
x,y,z [Debye]:    -0.424308     0.000000     0.000000 

 

Dipole moment calculation done in   0.0 sec 

-----------------
QUADRUPOLE MOMENT
-----------------

Method             : SCF
Type of density    : Electron Density
Multiplicity       :   1
Irrep              :   0
Energy             :  -155.8100463992124105 Eh
Basis              : AO

                XX              YY              ZZ              XY              XZ              YZ
  NUC       11.888664720    55.799971245   152.416444257     0.000000000     0.000000000     0.000000000
  EL       -30.983781702   -73.898089428  -171.178526384    -0.000000000     0.000000003    -0.000000017
  TOT      -19.095116982   -18.098118183   -18.762082126    -0.000000000     0.000000003    -0.000000017 (a.u.)
           -25.683585393   -24.342587912   -25.235642123    -0.000000000     0.000000004    -0.000000023 (Buckingham)

diagonalized tensor:
           -19.095116982   -18.762082126   -18.098118183 (a.u.)
           -25.683585393   -25.235642123   -24.342587912 (Buckingham)
            -1.788940752    -0.445110940     2.234051692 (traceless form in Buckingham)

            -1.000000000     0.000000010    -0.000000000
            -0.000000000     0.000000026     1.000000000
             0.000000010     1.000000000    -0.000000026
        
Isotropic quadrupole :   -18.651772430

Quadrupole moment calculation done in   0.0 sec (  0.0 sec for integrals)

Maximum memory used throughout the entire PROP-calculation: 8.3 MB

--------------------------------
SUGGESTED CITATIONS FOR THIS RUN
--------------------------------

Below you find a list of papers that are relevant to this ORCA run
We neither can nor want to force you to cite these papers, but we appreciate if you do
You receive ORCA, which is the product of decades of hard work by many enthusiastic individuals, for free
The only thing we kindly ask in return is that you cite our papers,
We deeply appreciate it, if you show your appreciation for ORCA by not just citing the generic ORCA reference.

Please note that relegating all ORCA citations to the supporting information does *not* help us.
SI sections are not indexed - citations you put there will not count into any citation statistics
But we need these citations in order to attract the funding resources that allow us to do what we are doing

Therefore, if you are a happy ORCA user, please consider citing a few of the papers listed below in the main body of your paper

In addition to the list printed below, the program has created the file /cluster/projects/nn14654k/ylvaos/basis_set_n_funcs/functionals/pbe/C4H6/inp/C4H6_pbe_pc2.bibtex that contains the list in bibtex format
You can import this file easily into all common literature databanks and citation aid programs

It goes without saying that in many instances, there are alternative algorithms to achieve similar
results as the ones you have gotten from ORCA. It is, of course, also the case that in some instances
ORCA just re-implements algorithms worked out by others. We are fully aware of that and we are also
fully appreciative of our colleagues work. Hence this citation list should not be read as indicating
that the listed papers, which are focused on our own work, are the only ones worth citing. It simply
meant to make it easier for users to cite ORCA specific papers. It is not a substitute for doing your
own literature research and citing the relevant literature in a scientifically appropriate manner.

List of essential papers. We consider these as the minimum necessary citations

  1. Neese, F.
     Software update: the ORCA program system, version 6.0
     WIRES Comput. Molec. Sci. 2025 15(1), e70019
     doi.org/10.1002/wcms.70019

List of papers to cite with high priority. The work reported in these papers was absolutely
necessary for this run to complete.
Our perspective: the developers of density functionals and basis sets usually get cited in chemistry papers
Good! But without the algorithms to do something with them, the functionals or basis sets would not do anything.
Hence, in our opinion, the algorithm design and method developments papers are equally worthy of getting cited

  1. Neese, F.
     The SHARK Integral Generation and Digestion System
     J. Comp. Chem. 2022 44(3), 381
     doi.org/10.1002/jcc.26942

List of suggested additional citations. These are papers that are important in the 'surrounding' of 
of this run, or papers that preceded the highly important papers. If you like your results we are grateful for a citation.

  1. Neese, F.
     The ORCA program system
     WIRES Comput. Molec. Sci. 2012 2(1), 73-78
     doi.org/10.1002/wcms.81
  2. Neese, F.
     Software update: the ORCA program system, version 4.0
     WIRES Comput. Molec. Sci. 2018 8(1), 1-6
     doi.org/10.1002/wcms.1327
  3. Neese, F.; Wennmohs, F.; Becker, U.; Riplinger, C.
     The ORCA quantum chemistry program package
     J. Chem. Phys. 2020 152(22), 224108
     doi.org/10.1063/5.0004608
  4. Neese, F.
     Software update: The ORCA program system—Version 5.0
     WIRES Comput. Molec. Sci. 2022 12(1), e1606
     doi.org/10.1002/wcms.1606

List of optional additional citations

  1. Neese, F.
     Approximate second-order SCF convergence for spin unrestricted wavefunctions
     Chem. Phys. Lett. 2000 325(1-3), 93-98
     doi.org/10.1016/s0009-2614(00)00662-x

Timings for individual modules:

Sum of individual times          ...        9.681 sec (=   0.161 min)
Startup calculation              ...        0.479 sec (=   0.008 min)   4.9 %
SCF iterations                   ...        8.661 sec (=   0.144 min)  89.5 %
Property integrals               ...        0.283 sec (=   0.005 min)   2.9 %
Property calculations            ...        0.253 sec (=   0.004 min)   2.6 %
Orbital localization             ...        0.005 sec (=   0.000 min)   0.1 %
                             ****ORCA TERMINATED NORMALLY****
TOTAL RUN TIME: 0 days 0 hours 0 minutes 10 seconds 307 msec
