
                                 *****************
                                 * O   R   C   A *
                                 *****************

                                            #,                                       
                                            ###                                      
                                            ####                                     
                                            #####                                    
                                            ######                                   
                                           ########,                                 
                                     ,,################,,,,,                         
                               ,,#################################,,                 
                          ,,##########################################,,             
                       ,#########################################, ''#####,          
                    ,#############################################,,   '####,        
                  ,##################################################,,,,####,       
                ,###########''''           ''''###############################       
              ,#####''   ,,,,##########,,,,          '''####'''          '####       
            ,##' ,,,,###########################,,,                        '##       
           ' ,,###''''                  '''############,,,                           
         ,,##''                                '''############,,,,        ,,,,,,###''
      ,#''                                            '''#######################'''  
     '                                                          ''''####''''         
             ,#######,   #######,   ,#######,      ##                                
            ,#'     '#,  ##    ##  ,#'     '#,    #''#        ,####,    ,#,          
            ##       ##  ##   ,#'  ##            #'  '#       #'       ,# #          
            ##       ##  #######   ##           ,######,      #####,      #          
            '#,     ,#'  ##    ##  '#,     ,#' ,#      #,     #,   #      #          
             '#######'   ##     ##  '#######'  #'      '#     '####' #    #          



                #########################################################
                #                        -***-                          #
                #          Department of theory and spectroscopy        #
                #                                                       #
                #                      Frank Neese                      #
                #                                                       #
                #     Directorship, Architecture, Infrastructure        #
                #                    SHARK, DRIVERS                     #
                #        Core code/Algorithms in most modules           #
                #                                                       #
                #        Max Planck Institute fuer Kohlenforschung      #
                #                Kaiser Wilhelm Platz 1                 #
                #                 D-45470 Muelheim/Ruhr                 #
                #                      Germany                          #
                #                                                       #
                #                  All rights reserved                  #
                #                        -***-                          #
                #########################################################


                         Program Version 6.1.1  -  RELEASE   -
                                (GIT: $487d211c$)
                          ($2025-11-21 10:33:24 +0100$)


 With contributions from (in alphabetic order):
[Max-Planck-Institut fuer Kohlenforschung]                               
  Daniel Aravena         : Magnetic Suceptibility                        
  Michael Atanasov       : Ab Initio Ligand Field Theory (pilot matlab implementation)
  Alexander A. Auer      : GIAO ZORA, VPT2 properties, NMR spectrum      
  Ute Becker             : All parallelization in ORCA, NUMFREQ, NUMCALC 
  Giovanni Bistoni       : ED, misc. LED, open-shell LED, HFLD           
  Dmytro Bykov           : pre 5.0 version of the SCF Hessian            
  Marcos Casanova-Páez   : Triplet and SCS-CIS(D). UHF-(DLPNO)-IP/EA/STEOM-CCSD. UHF-CVS-IP/STEOM-CCSD   
  Vijay G. Chilkuri      : MRCI spin determinant printing, contributions to CSF-ICE 
  Pauline Colinet        : FMM embedding                                 
  Dipayan Datta          : RHF DLPNO-CCSD density                        
  Achintya Kumar Dutta   : EOM-CC, STEOM-CC                              
  Nicolas Foglia         : Exact transition moments, OPA infrastructure, MCD improvements    
  Dmitry Ganyushin       : Spin-Orbit,Spin-Spin,Magnetic field MRCI      
  Miquel Garcia-Rates    : C-PCM and meta-GGA Hessian, CCSD/C-PCM, Gaussian charge scheme 
  Tiago L. C. Gouveia    : GS-ROHF, GS-ROCIS                             
  Yang Guo               : DLPNO-NEVPT2, F12-NEVPT2, CIM, IAO-localization        
  Andreas Hansen         : Spin unrestricted coupled pair/coupled cluster methods 
  Ingolf Harden          : AUTO-CI MPn and infrastructure                
  Benjamin Helmich-Paris : MC-RPA, TRAH-(SCF,CASSCF), AVAS, COSX integrals, SCF dyn. polar., MC-PDFT, srDFT 
  Lee Huntington         : MR-EOM, pCC                                   
  Robert Izsak           : Overlap fitted RIJCOSX, COSX-SCS-MP3, EOM     
  Riya Kayal             : Wick's Theorem for AUTO-CI, AUTO-CI UHF-CCSDT 
  Emily Kempfer          : AUTO-CI RHF CISDT and CCSDT, approximate NEVPT4
  Christian Kollmar      : KDIIS, OOCD, Brueckner-CCSD(T), CCSD density, CASPT2, CASPT2-K, improved NEVPT2 
  Axel Koslowski         : Symmetry handling                             
  Simone Kossmann        : meta-GGA functionals, TD-DFT gradient, OOMP2, (MP2 Hessian; deprecated post 5.0) 
  Lucas Lang             : DCDCAS, Hyperfine gauge corrections, ICE-SOC+SSC
  Marvin Lechner         : AUTO-CI (C++ implementation), FIC-MRCC        
  Spencer Leger          : CASSCF response                               
  Dagmar Lenk            : GEPOL surface, SMD, ORCA-2-JSON               
  Dimitrios Liakos       : Extrapolation schemes; Compound Job, Property file
  Dimitrios Manganas     : Further ROCIS development; embedding schemes. LFT, Crystal Embedding 
  Dimitrios Pantazis     : SARC Basis sets                               
  Anastasios Papadopoulos: AUTO-CI, single reference methods and gradients 
  Taras Petrenko         : pre 6.0 DFT Hessian and TD-DFT gradient,  ECA, NRVS 
  Petra Pikulova         : Analytic Raman intensities                    
  Peter Pinski           : DLPNO-MP2, DLPNO-MP2 Gradient                 
  Shashank Vittal Rao    : ES-AILFT, MagRelax                            
  Christoph Reimann      : Effective Core Potentials                     
  Marius Retegan         : Local ZFS, SOC                                
  Christoph Riplinger    : Optimizer, TS searches, QM/MM, DLPNO-CCSD(T), (RO)-DLPNO pert. Triples 
  Michael Roemelt        : Original ROCIS implementation, recursive CI coupling coefficients
  Masaaki Saitow         : Open-shell DLPNO-CCSD energy and density      
  Barbara Sandhoefer     : DKH picture change effects                    
  Yorick L. A. Schmerwitz: GMF and freeze-and-release deltaSCF, NEB S-IDPP initial path                    
  Kantharuban Sivalingam : CASSCF convergence/infrastructure, NEVPT2, NEVPT3, NEVPT4(SD), FIC-MRCI and CEPA variants
  Bernardo de Souza      : ESD, SOC TD-DFT                               
  Georgi L. Stoychev     : AutoAux, RI-MP2 NMR, DLPNO-MP2 response, X2C  
  Van Anh Tran           : RI-MP2 g-tensors                              
  Willem Van den Heuvel  : Paramagnetic NMR                              
  Zikuan Wang            : NOTCH, Electric field optimization            
  Frank Wennmohs         : Technical directorship and infrastructure     
  Hang Xu                : AUTO-CI-Response properties                   
                                                                         
[FACCTs GmbH]                                                            
  Markus Bursch, Nicolas Foglia, Miquel Garcia-Rates, Ingolf Harden, Hagen Neugebauer, Anastasios Papadopoulos, 
  Christoph Riplinger, Bernardo de Souza, Georgi L. Stoychev                                                    
                                                                 
  APM, various basis sets, CI-OPT, improved COSX, DLPNO-Multilevel,           
  DOCKER, DRACO, updates on ESD, Fragmentator, GOAT, IRC, LR-CPCM, L-BFGS, MBIS, meta-GGA TD-DFT gradient, ML-optimized integration grids, 
  MM, NACMEs, nearIR, NEB, NEB-TS, NL-DFT gradient (VV10), 2- and 3-layer-ONIOM, interface openCOSMO-RS, QMMM,   
  Crystal-QMMM, RESP, rigid body optimization, SF, symmetry and pop. for TD-DFT, various functionals, SOLVATOR                                   
                                                                         
[Other institutions]                                                     
  V. Asgeirsson          : NEB                                           
  Christoph Bannwarth    : sTDA-DFT, sTD-DFT, PBEh-3c, B97-3c, D3        
  Giovanni Bistoni       : ETS/NOCV, ADLD/ADEX, COVALED                  
  Martin Brehm           : Molecular dynamics                            
  Ronald Cardenas        : ETS/NOCV                                      
  Martina Colucci        : COVALED                                       
  Sebastian Ehlert       : rSCAN, r2SCAN, r2SCAN-3c, D4, dhf basis sets  
  Marvin Friede          : D4 for Fr, Ra, Ac-Lr                          
  Lars Goerigk           : TD-DFT with DH, B97 family of functionals     
  Stefan Grimme          : VdW corrections, initial TS optimization, DFT functionals, gCP, sTDA/sTD-DF 
  Waldemar Hujo          : DFT-NL                                        
  H. Jonsson             : NEB                                           
  Holger Kruse           : gCP                                           
  Marcel Mueller         : wB97X-3c, vDZP basis set                      
  Hagen Neugebauer       : wr2SCAN, Native XTB                           
  Gianluca Regni         : ADLD/ADEX                                     
  Tobias Risthaus        : pre 6.0 range-separated hybrid DFT and stability analysis
  Lukas Wittmann         : regularized MP2, r2SCAN double-hybrids, wr2SCAN        
                                                                         
We gratefully acknowledge several colleagues who have allowed us to      
interface, adapt or use parts of their codes:                            
  Ed Valeev, F. Pavosevic, A. Kumar             : LibInt (2-el integral package), F12 methods 
  Garnet Chan, S. Sharma, J. Yang, R. Olivares  : DMRG                   
  Ulf Ekstrom                                   : XCFun DFT Library      
  Mihaly Kallay                                 : mrcc  (arbitrary order and MRCC methods)
  Frank Weinhold                                : gennbo (NPA and NBO analysis)           
  Simon Mueller                                 : openCOSMO-RS                            
  Christopher J. Cramer and Donald G. Truhlar   : smd solvation model                     
  S Lehtola, MJT Oliveira, MAL Marques          : LibXC Library                           
  Liviu Ungur et al                             : ANISO software                          


 Your calculation uses the libint2 library for the computation of 2-el integrals
 For citations please refer to: http://libint.valeyev.net

 Your ORCA version has been built with support for libXC version: 7.0.0
 For citations please refer to: https://libxc.gitlab.io

 This ORCA versions uses:
   CBLAS   interface :  Fast vector & matrix operations
   LAPACKE interface :  Fast linear algebra routines
   SCALAPACK package :  Parallel linear algebra routines
   Shared memory     :  Shared parallel matrices
   BLAS/LAPACK       :  OpenBLAS 0.3.29  USE64BITINT DYNAMIC_ARCH NO_AFFINITY Cooperlake SINGLE_THREADED
        Core in use  :  Cooperlake
   Copyright (c) 2011-2014, The OpenBLAS Project


  ***********************************
  * Starting time: Wed May 20 11:54:07 2026
  * Host name:     c1-88
  * Process ID:    3541704
  * Working dir.:  /cluster/projects/nn14654k/ylvaos/basis_set_n_funcs/functionals/pbe/C4H6/out
  ***********************************

================================================================================

----- Orbital basis set information -----
Your calculation utilizes the basis: pcseg-2
   F. Jensen, J. Chem. Theory Comput. 10, 1074 (2014).

================================================================================
                                        WARNINGS
                       Please study these warnings very carefully!
================================================================================


================================================================================
                                       INPUT FILE
================================================================================
NAME = /cluster/projects/nn14654k/ylvaos/basis_set_n_funcs/functionals/pbe/C4H6/inp/C4H6_pbe_pcseg2.inp
|  1> ! dft pcseg-2 TightSCF
|  2> %pal nprocs 8 end
|  3> 
|  4> %loc
|  5>   LocMet NewBoys
|  6>   Occ true
|  7> end
|  8> 
|  9> %method
| 10>   
| 11>   functional pbe
| 12> end
| 13> 
| 14> %elprop
| 15>   Dipole true
| 16>   Quadrupole true
| 17> end
| 18> 
| 19> * xyz 0 1
| 20> C    0.000000000000   0.000000000000   1.632000000000
| 21> C    0.000000000000   0.000000000000   0.300000000000
| 22> C    0.000000000000   0.771000000000  -0.936300000000
| 23> C    0.000000000000  -0.771000000000  -0.936300000000
| 24> H    0.000000000000   0.914000000000   2.222200000000
| 25> H    0.000000000000  -0.914000000000   2.222200000000
| 26> H    0.912300000000   1.305900000000  -1.200300000000
| 27> H   -0.912300000000   1.305900000000  -1.200300000000
| 28> H   -0.912300000000  -1.305900000000  -1.200300000000
| 29> H    0.912300000000  -1.305900000000  -1.200300000000
| 30> *
| 31> 
| 32> 
| 33>                          ****END OF INPUT****
================================================================================

                       ****************************
                       * Single Point Calculation *
                       ****************************

---------------------------------
CARTESIAN COORDINATES (ANGSTROEM)
---------------------------------
  C      0.000000    0.000000    1.632000
  C      0.000000    0.000000    0.300000
  C      0.000000    0.771000   -0.936300
  C      0.000000   -0.771000   -0.936300
  H      0.000000    0.914000    2.222200
  H      0.000000   -0.914000    2.222200
  H      0.912300    1.305900   -1.200300
  H     -0.912300    1.305900   -1.200300
  H     -0.912300   -1.305900   -1.200300
  H      0.912300   -1.305900   -1.200300

----------------------------
CARTESIAN COORDINATES (A.U.)
----------------------------
  NO LB      ZA    FRAG     MASS         X           Y           Z
   0 C     6.0000    0    12.011    0.000000    0.000000    3.084033
   1 C     6.0000    0    12.011    0.000000    0.000000    0.566918
   2 C     6.0000    0    12.011    0.000000    1.456979   -1.769351
   3 C     6.0000    0    12.011    0.000000   -1.456979   -1.769351
   4 H     1.0000    0     1.008    0.000000    1.727210    4.199349
   5 H     1.0000    0     1.008    0.000000   -1.727210    4.199349
   6 H     1.0000    0     1.008    1.723997    2.467793   -2.268238
   7 H     1.0000    0     1.008   -1.723997    2.467793   -2.268238
   8 H     1.0000    0     1.008   -1.723997   -2.467793   -2.268238
   9 H     1.0000    0     1.008    1.723997   -2.467793   -2.268238

--------------------------------
INTERNAL COORDINATES (ANGSTROEM)
--------------------------------
 C      0   0   0     0.000000000000     0.00000000     0.00000000
 C      1   0   0     1.332000000000     0.00000000     0.00000000
 C      2   1   0     1.457010188708   148.05088964     0.00000000
 C      2   1   3     1.457010188708   148.05088964   180.00000000
 H      1   2   3     1.087994503663   122.85166680     0.00000000
 H      1   2   3     1.087994503663   122.85166680   180.00000000
 H      3   2   1     1.090002431190   117.72260444    70.99760541
 H      3   2   1     1.090002431190   117.72260444   289.00239459
 H      4   2   1     1.090002431190   117.72260444    70.99760541
 H      4   2   1     1.090002431190   117.72260444   289.00239459

---------------------------
INTERNAL COORDINATES (A.U.)
---------------------------
 C      0   0   0     0.000000000000     0.00000000     0.00000000
 C      1   0   0     2.517115210383     0.00000000     0.00000000
 C      2   1   0     2.753350230992   148.05088964     0.00000000
 C      2   1   3     2.753350230992   148.05088964   180.00000000
 H      1   2   3     2.056011647134   122.85166680     0.00000000
 H      1   2   3     2.056011647134   122.85166680   180.00000000
 H      3   2   1     2.059806080257   117.72260444    70.99760541
 H      3   2   1     2.059806080257   117.72260444   289.00239459
 H      4   2   1     2.059806080257   117.72260444    70.99760541
 H      4   2   1     2.059806080257   117.72260444   289.00239459

---------------------
BASIS SET INFORMATION
---------------------
There are 2 groups of distinct atoms

 Group   1 Type C   : 11s6p2d1f contracted to 4s3p2d1f pattern {7211/411/11/1}
 Group   2 Type H   : 6s2p1d contracted to 3s2p1d pattern {411/11/1}

Atom   0C    basis set group =>   1
Atom   1C    basis set group =>   1
Atom   2C    basis set group =>   1
Atom   3C    basis set group =>   1
Atom   4H    basis set group =>   2
Atom   5H    basis set group =>   2
Atom   6H    basis set group =>   2
Atom   7H    basis set group =>   2
Atom   8H    basis set group =>   2
Atom   9H    basis set group =>   2


           ************************************************************
           *        Program running with 8 parallel MPI-processes     *
           *              working on a common directory               *
           ************************************************************
------------------------------------------------------------------------------
                             ORCA STARTUP CALCULATIONS
------------------------------------------------------------------------------
------------------------------------------------------------------------------
                   ___                                                        
                  /   \      - P O W E R E D   B Y -                         
                 /     \                                                     
                 |  |  |   _    _      __       _____    __    __             
                 |  |  |  | |  | |    /  \     |  _  \  |  |  /  |          
                  \  \/   | |  | |   /    \    | | | |  |  | /  /          
                 / \  \   | |__| |  /  /\  \   | |_| |  |  |/  /          
                |  |  |   |  __  | /  /__\  \  |    /   |      \           
                |  |  |   | |  | | |   __   |  |    \   |  |\   \          
                \     /   | |  | | |  |  |  |  | |\  \  |  | \   \       
                 \___/    |_|  |_| |__|  |__|  |_| \__\ |__|  \__/        
                                                                              
                      - O R C A' S   B I G   F R I E N D -                    
                                      &                                       
                       - I N T E G R A L  F E E D E R -                       
                                                                              
 v1 FN, 2020, v2 2021, v3 2022-2024                                           
------------------------------------------------------------------------------


----------------------
SHARK INTEGRAL PACKAGE
----------------------

Number of atoms                             ...     10
Number of basis functions                   ...    204
Number of shells                            ...     76
Maximum angular momentum                    ...      3
Integral batch strategy                     ... SHARK/LIBINT Hybrid
RI-J (if used) integral strategy            ... SPLIT-RIJ (Revised 2003 algorithm where possible)
Printlevel                                  ...      1
Contraction scheme used                     ... SEGMENTED contraction
Prescreening option                         ... SCHWARTZ
   Thresh                                   ... 2.500e-11
   Tcut                                     ... 2.500e-12
   Tpresel                                  ... 2.500e-12 
Coulomb Range Separation                    ... NOT USED
Exchange Range Separation                   ... NOT USED
Multipole approximations                    ... NOT USED
Finite Nucleus Model                        ... NOT USED
CABS basis                                  ... NOT available
Auxiliary Coulomb fitting basis             ... NOT available
Auxiliary J/K fitting basis                 ... NOT available
Auxiliary Correlation fitting basis         ... NOT available
Auxiliary 'external' fitting basis          ... NOT available

Checking pre-screening integrals            ... done (  0.0 sec) Dimension = 76
   => SHARK Basis and OBASIS are compatible. Storing Pre-screening
Shell pair information
Shell pair cut-off parameter TPreSel        ...   2.5e-12
Total number of shell pairs                 ...      2926
Shell pairs after pre-screening             ...      2876
Total number of primitive shell pairs       ...      9193
Primitive shell pairs kept                  ...      7379
          la=0 lb=0:    591 shell pairs
          la=1 lb=0:    800 shell pairs
          la=1 lb=1:    292 shell pairs
          la=2 lb=0:    468 shell pairs
          la=2 lb=1:    326 shell pairs
          la=2 lb=2:    101 shell pairs
          la=3 lb=0:    136 shell pairs
          la=3 lb=1:     96 shell pairs
          la=3 lb=2:     56 shell pairs
          la=3 lb=3:     10 shell pairs

Checking whether 4 symmetric matrices of dimension 204 fit in memory
:Max Core in MB      =   4096.00
 MB in use           =      5.64
 MB left             =   4090.36
 MB needed           =      0.64
 Data fit in memory  = YES
Calculating Nuclear repulsion               ... done (  0.0 sec) ENN=    109.249345578353 Eh

Diagonalization of the overlap matrix:
Smallest eigenvalue                        ... 1.816e-04
Time for diagonalization                   ...    0.003 sec
Threshold for overlap eigenvalues          ... 1.000e-07
Number of eigenvalues below threshold      ... 0
Time for construction of square roots      ...    0.003 sec
Total time needed                          ...    0.008 sec

-------------------
DFT GRID GENERATION
-------------------

General Integration Accuracy     IntAcc      ... 4.388
Radial Grid Type                 RadialGrid  ... OptM3 with GC (2021)
Angular Grid (max. ang.)         AngularGrid ... 4 (Lebedev-302)
Angular grid pruning method      GridPruning ... 4 (adaptive)
Weight generation scheme         WeightScheme... mBecke (2022)
Basis function cutoff            BFCut       ... 1.0000e-11
Integration weight cutoff        WCut        ... 1.0000e-14
Partially contracted basis set               ... off
Rotationally invariant grid construction     ... off
Angular grids for H and He will be reduced by one unit

Total number of grid points                  ...    43682
Total number of batches                      ...      687
Average number of points per batch           ...       63
Average number of grid points per atom       ...     4368
Grids setup in   0.1 sec
Initializing property integral containers    ... done (  0.0 sec)

SHARK setup successfully completed in   0.2 seconds

Maximum memory used throughout the entire STARTUP-calculation: 14.5 MB


           ************************************************************
           *        Program running with 8 parallel MPI-processes     *
           *              working on a common directory               *
           ************************************************************
-------------------------------------------------------------------------------
                                 ORCA GUESS
                   Start orbitals & Density for SCF / CASSCF
-------------------------------------------------------------------------------

------------
SCF SETTINGS
------------
Hamiltonian:
 Density Functional     Method          .... DFT(GTOs)
 Exchange Functional    Exchange        .... PBE
   PBE kappa parameter   XKappa         ....  0.804000
   PBE mue parameter    XMuePBE         ....  0.219520
 Correlation Functional Correlation     .... PBE
   PBE beta parameter  CBetaPBE         ....  0.066725
 LDA part of GGA corr.  LDAOpt          .... PW91-LDA
 Gradients option       PostSCFGGA      .... off
   NL short-range parameter             ....  6.400000


General Settings:
 Integral files         IntName         .... /cluster/projects/nn14654k/ylvaos/basis_set_n_funcs/functionals/pbe/C4H6/inp/C4H6_pbe_pcseg2
 Hartree-Fock type      HFTyp           .... RHF
 Total Charge           Charge          ....    0
 Multiplicity           Mult            ....    1
 Number of Electrons    NEL             ....   30
 Basis Dimension        Dim             ....  204
 Nuclear Repulsion      ENuc            ....    109.2493455784 Eh

Convergence Acceleration:
 AO-DIIS                CNVDIIS         .... on
   Start iteration      DIISMaxIt       ....    12
   Startup error        DIISStart       ....  0.200000
   # of expansion vecs  DIISMaxEq       ....     5
   Bias factor          DIISBfac        ....   1.050
   Max. coefficient     DIISMaxC        ....  10.000
 MO-DIIS                CNVKDIIS        .... off
 Trust-Rad. Augm. Hess. CNVTRAH         .... auto
   Auto Start mean grad. ratio tolernc. ....  1.125000
   Auto Start start iteration           ....    50
   Auto Start num. interpolation iter.  ....    10
   Max. Number of Micro iterations      ....    24
   Max. Number of Macro iterations      .... Maxiter - #DIIS iter
   Number of Davidson start vectors     ....     2
   Converg. threshold    (grad. norm)   ....   1.000e-05
   Grad. Scal. Fac. for Micro threshold ....   0.100
   Minimum threshold for Micro iter.    ....   1.000e-02
   NR start threshold (gradient norm)   ....   1.000e-04
   Initial trust radius                 ....   0.400
   Minimum AH scaling param. (alpha)    ....   1.000
   Maximum AH scaling param. (alpha)    .... 1000.000
   Quad. conv. algorithm                .... NR
   White noise on init. David. guess    .... on
   Maximum white noise                  ....   0.010
   Pseudo random numbers                .... off
   Inactive MOs                         .... canonical
   Orbital update algorithm             .... Taylor
   Preconditioner                       .... Diag
   Full preconditioner red. dimension   ....   250
 SOSCF                 CNVSOSCF           .... on
   Start iteration     SOSCFMaxIt         ....   150
   Startup grad/error  SOSCFStart         ....  0.003300
   Hessian update      SOSCFHessUp        .... L-BFGS
   Autom. constraints  SOSCFAutoConstrain .... off
 Level Shifting         CNVShift        .... on
   Level shift para.    LevelShift      ....    0.2500
   Turn off err/grad.   ShiftErr        ....    0.0010
 Zerner damping         CNVZerner       .... off
 Static damping         CNVDamp         .... on
   Fraction old density DampFac         ....    0.7000
   Max. Damping (<1)    DampMax         ....    0.9800
   Min. Damping (>=0)   DampMin         ....    0.0000
   Turn off err/grad.   DampErr         ....    0.1000

SCF Procedure:
 Maximum # iterations   MaxIter         ....   125
 SCF integral mode      SCFMode         .... Direct
   Integral package                     .... SHARK and LIBINT hybrid scheme
 Reset frequency        DirectResetFreq ....    20
 Integral Threshold     Thresh          ....  2.500e-11 Eh
 Primitive CutOff       TCut            ....  2.500e-12 Eh

Convergence Tolerance:
 Convergence Check Mode ConvCheckMode   .... Total+1el-Energy
 Convergence forced     ConvForced      .... 0
 Energy Change          TolE            ....  1.000e-08 Eh
 1-El. energy change                    ....  1.000e-05 Eh
 Orbital Gradient       TolG            ....  1.000e-05
 Orbital Rotation angle TolX            ....  1.000e-05
 DIIS Error             TolErr          ....  5.000e-07

------------------------------
INITIAL GUESS: MODEL POTENTIAL
------------------------------
Loading Hartree-Fock densities                     ... done
Calculating cut-offs                               ... done
Initializing the effective Hamiltonian             ... done
Setting up the integral package (SHARK)            ... done
Starting the Coulomb interaction                   ... done (   0.0 sec)
Making the grid                                    ... done (   0.0 sec)
Mapping shells                                     ... done
Starting the XC term evaluation                    ... done (   0.0 sec)
  promolecular density results
     # of electrons  =     29.996209296
     EX              =    -22.197122974
     EC              =     -0.956110014
     EX+EC           =    -23.153232987
Transforming the Hamiltonian                       ... done (   0.0 sec)
Diagonalizing the Hamiltonian                      ... done (   0.0 sec)
Back transforming the eigenvectors                 ... done (   0.0 sec)
Now organizing SCF variables                       ... done
                      ------------------
                      INITIAL GUESS DONE (   0.1 sec)
                      ------------------
             **** ENERGY FILE WAS UPDATED (/cluster/projects/nn14654k/ylvaos/basis_set_n_funcs/functionals/pbe/C4H6/inp/C4H6_pbe_pcseg2.en.tmp) ****
Finished Guess after   0.1 sec
Maximum memory used throughout the entire GUESS-calculation: 10.3 MB


           ************************************************************
           *        Program running with 8 parallel MPI-processes     *
           *              working on a common directory               *
           ************************************************************

-------------------------------------------------------------------------------------------
                                      ORCA LEAN-SCF
                              memory conserving SCF solver
-------------------------------------------------------------------------------------------

----------------------------------------D-I-I-S--------------------------------------------
Iteration    Energy (Eh)           Delta-E    RMSDP     MaxDP     DIISErr   Damp  Time(sec)
-------------------------------------------------------------------------------------------
               ***  Starting incremental Fock matrix formation  ***
    1    -155.6888442344319401     0.00e+00  4.35e-03  3.33e-02  1.60e-01  0.700   0.5
    2    -155.7463268676276584    -5.75e-02  3.01e-03  2.17e-02  8.14e-02  0.700   0.5
                               ***Turning on AO-DIIS***
    3    -155.7672694957252020    -2.09e-02  1.13e-03  8.22e-03  2.60e-02  0.700   0.5
    4    -155.7791711260875331    -1.19e-02  1.76e-03  1.55e-02  8.56e-03  0.000   0.5
    5    -155.8058672899869634    -2.67e-02  4.24e-04  3.18e-03  7.00e-03  0.000   0.5
                              *** Initializing SOSCF ***
---------------------------------------S-O-S-C-F--------------------------------------
Iteration    Energy (Eh)           Delta-E    RMSDP     MaxDP     MaxGrad    Time(sec)
--------------------------------------------------------------------------------------
    6    -155.8061374424830205    -2.70e-04  1.84e-04  1.46e-03  1.45e-03     0.5
               *** Restarting incremental Fock matrix formation ***
    7    -155.8061546867143079    -1.72e-05  1.63e-04  1.14e-03  3.58e-04     0.5
    8    -155.8061519048919195     2.78e-06  5.73e-05  7.84e-04  8.10e-04     0.5
    9    -155.8061566230584276    -4.72e-06  4.68e-05  2.82e-04  1.39e-04     0.4
   10    -155.8061561597124296     4.63e-07  2.31e-05  1.92e-04  1.94e-04     0.4
   11    -155.8061569452333970    -7.86e-07  7.54e-06  4.82e-05  2.24e-05     0.4
   12    -155.8061569424046411     2.83e-09  3.13e-06  2.16e-05  2.77e-05     0.5
                 **** Energy Check signals convergence ****

               *****************************************************
               *                     SUCCESS                       *
               *           SCF CONVERGED AFTER  12 CYCLES          *
               *****************************************************

             **** ENERGY FILE WAS UPDATED (/cluster/projects/nn14654k/ylvaos/basis_set_n_funcs/functionals/pbe/C4H6/inp/C4H6_pbe_pcseg2.en.tmp) ****

----------------
TOTAL SCF ENERGY
----------------

Total Energy       :       -155.80615695171974 Eh           -4239.70107 eV

Components:
Nuclear Repulsion  :        109.24934557835338 Eh            2972.82583 eV
Electronic Energy  :       -265.05550253007311 Eh           -7212.52690 eV
One Electron Energy:       -424.43169066164688 Eh          -11549.37346 eV
Two Electron Energy:        159.37618813157377 Eh            4336.84656 eV

Virial components:
Potential Energy   :       -310.96978603496723 Eh           -8461.91807 eV
Kinetic Energy     :        155.16362908324751 Eh            4222.21700 eV
Virial Ratio       :          2.00414096958333

DFT components:
N(Alpha)           :       14.999995062613 electrons
N(Beta)            :       14.999995062613 electrons
N(Total)           :       29.999990125227 electrons
E(X)               :      -22.728005799350 Eh       
E(C)               :       -0.964978263460 Eh       
E(XC)              :      -23.692984062811 Eh       

---------------
SCF CONVERGENCE
---------------

  Last Energy change         ...   -2.8288e-09  Tolerance :   1.0000e-08
  Last MAX-Density change    ...    2.1570e-05  Tolerance :   1.0000e-07
  Last RMS-Density change    ...    3.1285e-06  Tolerance :   5.0000e-09
  Last DIIS Error            ...    1.4504e-03  Tolerance :   5.0000e-07
  Last Orbital Gradient      ...    2.7702e-05  Tolerance :   1.0000e-05
  Last Orbital Rotation      ...    2.9034e-05  Tolerance :   1.0000e-05


----------------
ORBITAL ENERGIES
----------------

  NO   OCC          E(Eh)            E(eV) 
   0   2.0000      -9.897403      -269.3220 
   1   2.0000      -9.895023      -269.2573 
   2   2.0000      -9.894922      -269.2545 
   3   2.0000      -9.877857      -268.7902 
   4   2.0000      -0.793878       -21.6025 
   5   2.0000      -0.645156       -17.5556 
   6   2.0000      -0.552806       -15.0426 
   7   2.0000      -0.480212       -13.0672 
   8   2.0000      -0.432064       -11.7571 
   9   2.0000      -0.421510       -11.4699 
  10   2.0000      -0.380088       -10.3427 
  11   2.0000      -0.330426        -8.9914 
  12   2.0000      -0.278232        -7.5711 
  13   2.0000      -0.256736        -6.9862 
  14   2.0000      -0.228137        -6.2079 
  15   0.0000      -0.037043        -1.0080 
  16   0.0000       0.007561         0.2057 
  17   0.0000       0.029146         0.7931 
  18   0.0000       0.036403         0.9906 
  19   0.0000       0.056480         1.5369 
  20   0.0000       0.059363         1.6153 
  21   0.0000       0.088230         2.4009 
  22   0.0000       0.093717         2.5502 
  23   0.0000       0.107449         2.9238 
  24   0.0000       0.121844         3.3155 
  25   0.0000       0.161154         4.3852 
*Only the first 10 virtual orbitals were printed.

                    ********************************
                    * MULLIKEN POPULATION ANALYSIS *
                    ********************************

-----------------------
MULLIKEN ATOMIC CHARGES
-----------------------
   0 C :   -0.138456
   1 C :    0.016930
   2 C :   -0.134890
   3 C :   -0.134889
   4 H :    0.055380
   5 H :    0.055380
   6 H :    0.070136
   7 H :    0.070136
   8 H :    0.070136
   9 H :    0.070136
Sum of atomic charges:    0.0000000

--------------------------------
MULLIKEN REDUCED ORBITAL CHARGES
--------------------------------
  0 C s       :     3.169829  s :     3.169829
      pz      :     0.929943  p :     2.924670
      px      :     1.014318
      py      :     0.980409
      dz2     :     0.008435  d :     0.041200
      dxz     :     0.008370
      dyz     :     0.023343
      dx2y2   :     0.001019
      dxy     :     0.000032
      f0      :     0.000645  f :     0.002757
      f+1     :     0.001051
      f-1     :     0.000858
      f+2     :     0.000036
      f-2     :     0.000003
      f+3     :     0.000022
      f-3     :     0.000142

  1 C s       :     3.104863  s :     3.104863
      pz      :     0.768449  p :     2.770989
      px      :     0.965442
      py      :     1.037098
      dz2     :     0.030140  d :     0.099423
      dxz     :     0.019280
      dyz     :     0.040516
      dx2y2   :     0.003709
      dxy     :     0.005777
      f0      :     0.002579  f :     0.007795
      f+1     :     0.001972
      f-1     :     0.002060
      f+2     :     0.000484
      f-2     :     0.000584
      f+3     :     0.000062
      f-3     :     0.000054

  2 C s       :     3.122519  s :     3.122519
      pz      :     1.014259  p :     2.945144
      px      :     1.032863
      py      :     0.898022
      dz2     :     0.014337  d :     0.063344
      dxz     :     0.007524
      dyz     :     0.017302
      dx2y2   :     0.012508
      dxy     :     0.011672
      f0      :     0.000602  f :     0.003883
      f+1     :     0.000297
      f-1     :     0.000987
      f+2     :     0.000708
      f-2     :     0.000462
      f+3     :     0.000438
      f-3     :     0.000390

  3 C s       :     3.122518  s :     3.122518
      pz      :     1.014259  p :     2.945144
      px      :     1.032863
      py      :     0.898022
      dz2     :     0.014337  d :     0.063344
      dxz     :     0.007524
      dyz     :     0.017302
      dx2y2   :     0.012508
      dxy     :     0.011672
      f0      :     0.000602  f :     0.003883
      f+1     :     0.000297
      f-1     :     0.000987
      f+2     :     0.000708
      f-2     :     0.000462
      f+3     :     0.000438
      f-3     :     0.000390

  4 H s       :     0.901227  s :     0.901227
      pz      :     0.011523  p :     0.041230
      px      :     0.011221
      py      :     0.018486
      dz2     :     0.000329  d :     0.002163
      dxz     :     0.000216
      dyz     :     0.000718
      dx2y2   :     0.000507
      dxy     :     0.000393

  5 H s       :     0.901228  s :     0.901228
      pz      :     0.011523  p :     0.041230
      px      :     0.011221
      py      :     0.018486
      dz2     :     0.000329  d :     0.002163
      dxz     :     0.000216
      dyz     :     0.000718
      dx2y2   :     0.000507
      dxy     :     0.000393

  6 H s       :     0.883998  s :     0.883998
      pz      :     0.011988  p :     0.043526
      px      :     0.018703
      py      :     0.012835
      dz2     :     0.000338  d :     0.002340
      dxz     :     0.000527
      dyz     :     0.000200
      dx2y2   :     0.000625
      dxy     :     0.000651

  7 H s       :     0.883998  s :     0.883998
      pz      :     0.011988  p :     0.043526
      px      :     0.018703
      py      :     0.012835
      dz2     :     0.000338  d :     0.002340
      dxz     :     0.000527
      dyz     :     0.000200
      dx2y2   :     0.000625
      dxy     :     0.000651

  8 H s       :     0.883998  s :     0.883998
      pz      :     0.011988  p :     0.043526
      px      :     0.018703
      py      :     0.012835
      dz2     :     0.000338  d :     0.002340
      dxz     :     0.000527
      dyz     :     0.000200
      dx2y2   :     0.000625
      dxy     :     0.000651

  9 H s       :     0.883998  s :     0.883998
      pz      :     0.011988  p :     0.043526
      px      :     0.018703
      py      :     0.012835
      dz2     :     0.000338  d :     0.002340
      dxz     :     0.000527
      dyz     :     0.000200
      dx2y2   :     0.000625
      dxy     :     0.000651



                     *******************************
                     * LOEWDIN POPULATION ANALYSIS *
                     *******************************

----------------------
LOEWDIN ATOMIC CHARGES
----------------------
   0 C :   -0.021485
   1 C :   -0.058624
   2 C :    0.010472
   3 C :    0.010472
   4 H :    0.003631
   5 H :    0.003631
   6 H :    0.012976
   7 H :    0.012976
   8 H :    0.012976
   9 H :    0.012976

-------------------------------
LOEWDIN REDUCED ORBITAL CHARGES
-------------------------------
  0 C s       :     2.813205  s :     2.813205
      pz      :     1.031870  p :     3.006906
      px      :     0.943974
      py      :     1.031063
      dz2     :     0.045652  d :     0.184315
      dxz     :     0.025111
      dyz     :     0.100945
      dx2y2   :     0.012580
      dxy     :     0.000027
      f0      :     0.005283  f :     0.017058
      f+1     :     0.002951
      f-1     :     0.005418
      f+2     :     0.002033
      f-2     :     0.000007
      f+3     :     0.000241
      f-3     :     0.001125

  1 C s       :     2.780274  s :     2.780274
      pz      :     1.033559  p :     2.924636
      px      :     0.882998
      py      :     1.008079
      dz2     :     0.105072  d :     0.323796
      dxz     :     0.073185
      dyz     :     0.112228
      dx2y2   :     0.015167
      dxy     :     0.018143
      f0      :     0.011030  f :     0.029918
      f+1     :     0.003683
      f-1     :     0.007550
      f+2     :     0.003064
      f-2     :     0.003943
      f+3     :     0.000495
      f-3     :     0.000153

  2 C s       :     2.751715  s :     2.751715
      pz      :     1.013698  p :     2.978552
      px      :     1.039852
      py      :     0.925001
      dz2     :     0.045566  d :     0.236484
      dxz     :     0.029159
      dyz     :     0.055184
      dx2y2   :     0.042219
      dxy     :     0.064356
      f0      :     0.004348  f :     0.022778
      f+1     :     0.002341
      f-1     :     0.003005
      f+2     :     0.004605
      f-2     :     0.002333
      f+3     :     0.002189
      f-3     :     0.003956

  3 C s       :     2.751715  s :     2.751715
      pz      :     1.013698  p :     2.978552
      px      :     1.039852
      py      :     0.925001
      dz2     :     0.045566  d :     0.236484
      dxz     :     0.029159
      dyz     :     0.055184
      dx2y2   :     0.042219
      dxy     :     0.064356
      f0      :     0.004348  f :     0.022778
      f+1     :     0.002341
      f-1     :     0.003005
      f+2     :     0.004605
      f-2     :     0.002333
      f+3     :     0.002189
      f-3     :     0.003956

  4 H s       :     0.843326  s :     0.843326
      pz      :     0.037472  p :     0.131952
      px      :     0.036883
      py      :     0.057597
      dz2     :     0.004072  d :     0.021091
      dxz     :     0.001985
      dyz     :     0.006393
      dx2y2   :     0.004483
      dxy     :     0.004158

  5 H s       :     0.843326  s :     0.843326
      pz      :     0.037472  p :     0.131952
      px      :     0.036883
      py      :     0.057597
      dz2     :     0.004072  d :     0.021091
      dxz     :     0.001985
      dyz     :     0.006393
      dx2y2   :     0.004483
      dxy     :     0.004158

  6 H s       :     0.830471  s :     0.830471
      pz      :     0.041106  p :     0.134821
      px      :     0.055779
      py      :     0.037936
      dz2     :     0.002870  d :     0.021732
      dxz     :     0.005014
      dyz     :     0.002079
      dx2y2   :     0.005694
      dxy     :     0.006075

  7 H s       :     0.830471  s :     0.830471
      pz      :     0.041106  p :     0.134821
      px      :     0.055779
      py      :     0.037936
      dz2     :     0.002870  d :     0.021732
      dxz     :     0.005014
      dyz     :     0.002079
      dx2y2   :     0.005694
      dxy     :     0.006075

  8 H s       :     0.830471  s :     0.830471
      pz      :     0.041106  p :     0.134821
      px      :     0.055779
      py      :     0.037936
      dz2     :     0.002870  d :     0.021732
      dxz     :     0.005014
      dyz     :     0.002079
      dx2y2   :     0.005694
      dxy     :     0.006075

  9 H s       :     0.830471  s :     0.830471
      pz      :     0.041106  p :     0.134821
      px      :     0.055779
      py      :     0.037936
      dz2     :     0.002870  d :     0.021732
      dxz     :     0.005014
      dyz     :     0.002079
      dx2y2   :     0.005694
      dxy     :     0.006075



                      *****************************
                      * MAYER POPULATION ANALYSIS *
                      *****************************

  NA   - Mulliken gross atomic population
  ZA   - Total nuclear charge
  QA   - Mulliken gross atomic charge
  VA   - Mayer's total valence
  BVA  - Mayer's bonded valence
  FA   - Mayer's free valence

  ATOM       NA         ZA         QA         VA         BVA        FA
  0 C      6.1385     6.0000    -0.1385     3.8681     3.8681     0.0000
  1 C      5.9831     6.0000     0.0169     3.7457     3.7457     0.0000
  2 C      6.1349     6.0000    -0.1349     3.9502     3.9502     0.0000
  3 C      6.1349     6.0000    -0.1349     3.9502     3.9502     0.0000
  4 H      0.9446     1.0000     0.0554     1.0087     1.0087     0.0000
  5 H      0.9446     1.0000     0.0554     1.0087     1.0087     0.0000
  6 H      0.9299     1.0000     0.0701     1.0120     1.0120     0.0000
  7 H      0.9299     1.0000     0.0701     1.0120     1.0120     0.0000
  8 H      0.9299     1.0000     0.0701     1.0120     1.0120    -0.0000
  9 H      0.9299     1.0000     0.0701     1.0120     1.0120    -0.0000

  Mayer bond orders larger than 0.100000
B(  0-C ,  1-C ) :   1.8513 B(  0-C ,  4-H ) :   0.9982 B(  0-C ,  5-H ) :   0.9982 
B(  1-C ,  2-C ) :   0.9623 B(  1-C ,  3-C ) :   0.9623 B(  2-C ,  3-C ) :   0.9975 
B(  2-C ,  6-H ) :   0.9822 B(  2-C ,  7-H ) :   0.9822 B(  3-C ,  8-H ) :   0.9822 
B(  3-C ,  9-H ) :   0.9822 

-------
TIMINGS
-------

Total SCF time: 0 days 0 hours 0 min 6 sec 

Total time                  ....       6.311 sec
Sum of individual times     ....       5.889 sec  ( 93.3%)

SCF preparation             ....       0.060 sec  (  0.9%)
Fock matrix formation       ....       5.537 sec  ( 87.7%)
  Startup                   ....       0.008 sec  (  0.2% of F)
  Coulomb formation         ....       5.106 sec  ( 92.2% of F)
  XC integration            ....       0.662 sec  ( 12.0% of F)
    XC Preparation          ....       0.000 sec  (  0.0% of XC)
    Basis function eval.    ....       0.123 sec  ( 18.6% of XC)
    Density eval.           ....       0.099 sec  ( 14.9% of XC)
    XC-Functional eval.     ....       0.019 sec  (  2.8% of XC)
    XC-Potential eval.      ....       0.202 sec  ( 30.6% of XC)
Diagonalization             ....       0.000 sec  (  0.0%)
Density matrix formation    ....       0.071 sec  (  1.1%)
Total Energy calculation    ....       0.015 sec  (  0.2%)
Population analysis         ....       0.027 sec  (  0.4%)
Orbital Transformation      ....       0.021 sec  (  0.3%)
Orbital Orthonormalization  ....       0.000 sec  (  0.0%)
DIIS solution               ....       0.076 sec  (  1.2%)
SOSCF solution              ....       0.081 sec  (  1.3%)
Finished LeanSCF after   6.3 sec

Maximum memory used throughout the entire LEANSCF-calculation: 17.4 MB


           ************************************************************
           *        Program running with 8 parallel MPI-processes     *
           *              working on a common directory               *
           ************************************************************

------------------------------------------------------------------------------
                         ORCA PROPERTY INTEGRAL CALCULATIONS
------------------------------------------------------------------------------

GBWName                                   ... /cluster/projects/nn14654k/ylvaos/basis_set_n_funcs/functionals/pbe/C4H6/inp/C4H6_pbe_pcseg2.gbw
Number of atoms                           ...     10
Number of basis functions                 ...    204
Max core memory                           ...   4096 MB

Dipole integrals                          ... YES
Quadrupole integrals                      ... YES
Linear momentum integrals                 ...  NO
Angular momentum integrals                ...  NO
Higher moments length integrals           ...  NO
Higher moments velocity integrals         ...  NO
Kinetic energy integrals                  ...  NO
GIAO right hand sides                     ...  NO
GIAO dipole derivative integrals          ...  NO
SOC integrals                             ...  NO
EPR diamagnetic integrals (GIAO)          ...  NO
EPR gauge integrals                       ...  NO
Field gradient integrals                  ...  NO (   0 nuclei)
Spin-dipole/Fermi contact integrals       ...  NO (   0 nuclei)
Contact density integrals                 ...  NO (   0 nuclei)
Nucleus-orbit integrals                   ...  NO (   0 nuclei)
Geometric perturbations                   ...  NO (  10 nuclei)

Choice of electric origin   ... Center of mass
Position of electric origin ... (  0.0000,  0.0000,  0.0124) 
Choice of magnetic origin   ... GIAO
Position of magnetic origin ... (  0.0000,  0.0000,  0.0000) 

Calculating integrals                     ... Electric Dipole (Length)     done (  0.0 sec)
Calculating integrals                     ... Electric Quadrupole (Length) done (  0.0 sec)

Property integrals calculated in   0.0 sec

Maximum memory used throughout the entire PROPINT-calculation: 11.1 MB
------------------------------------------------------------------------------
                           ORCA ORBITAL LOCALIZATION
------------------------------------------------------------------------------

Input orbitals are from                  ... /cluster/projects/nn14654k/ylvaos/basis_set_n_funcs/functionals/pbe/C4H6/inp/C4H6_pbe_pcseg2.gbw
Output orbitals are to                   ... /cluster/projects/nn14654k/ylvaos/basis_set_n_funcs/functionals/pbe/C4H6/inp/C4H6_pbe_pcseg2.loc
Max. number of iterations                ... 128
Localizations seeded randomly            ... on
Convergence tolerance                    ... 1.000e-06
Threshold for strong local MOs           ... 9.500e-01
Threshold for bond MOs                   ... 8.500e-01
Operator                                 ... 0
Orbital range for localization           ... 4 to 14
Localization criterion                   ... NEW-BOYS
Doing the dipole integrals               ... o.k.
Initial value of the localization sum :    68.026240
ITERATION   0 : L=   81.8012246648 DL=  1.38e+01 (AVERGE_DL)=    0.5004540634 
ITERATION   1 : L=   86.1306819583 DL=  4.33e+00 (AVERGE_DL)=    0.2805662227 
ITERATION   2 : L=   86.2067121708 DL=  7.60e-02 (AVERGE_DL)=    0.0371802031 
ITERATION   3 : L=   86.2070727218 DL=  3.61e-04 (AVERGE_DL)=    0.0025603655 
ITERATION   4 : L=   86.2070760298 DL=  3.31e-06 (AVERGE_DL)=    0.0002452478 
ITERATION   5 : L=   86.2070760529 DL=  2.31e-08 (AVERGE_DL)=    0.0000204968 
LOCALIZATION SUM CONVERGED


--------------------------------------------------------------------------------
                    LOCALIZED MOLECULAR ORBITAL COMPOSITIONS
--------------------------------------------------------------------------------

The Mulliken populations for each LMO on each atom are computed
The LMO`s will be ordered according to atom index and type
  (A) Strongly localized MO`s have populations of >=0.950 on one atom
  (B) Two center bond orbitals have populations of >=0.850 on two atoms
  (C) Other MO`s are considered to be `delocalized`

FOUND  -   0 strongly local MO`s
       -  11 two center bond MO`s
       -   0 significantly delocalized MO`s

Bond-like localized orbitals:
MO  14:   9H  -   0.467231  and   3C  -   0.540578
MO  13:   8H  -   0.467231  and   3C  -   0.540578
MO  12:   7H  -   0.467231  and   2C  -   0.540578
MO  11:   6H  -   0.467231  and   2C  -   0.540578
MO  10:   5H  -   0.478765  and   0C  -   0.538303
MO   9:   4H  -   0.478764  and   0C  -   0.538303
MO   8:   3C  -   0.515915  and   2C  -   0.515914
MO   7:   3C  -   0.495447  and   1C  -   0.534030
MO   6:   2C  -   0.495447  and   1C  -   0.534030
MO   5:   1C  -   0.498870  and   0C  -   0.509745
MO   4:   1C  -   0.498870  and   0C  -   0.509745
Localized MO's were stored in: /cluster/projects/nn14654k/ylvaos/basis_set_n_funcs/functionals/pbe/C4H6/inp/C4H6_pbe_pcseg2.loc

-------------------------   --------------------
FINAL SINGLE POINT ENERGY      -155.806156951720
-------------------------   --------------------



           ************************************************************
           *        Program running with 8 parallel MPI-processes     *
           *              working on a common directory               *
           ************************************************************

------------------------------------------------------------------------------
                              ORCA PROPERTY CALCULATIONS
------------------------------------------------------------------------------

GBWName                                 ... /cluster/projects/nn14654k/ylvaos/basis_set_n_funcs/functionals/pbe/C4H6/inp/C4H6_pbe_pcseg2.gbw
Number of atoms                         ...     10
Number of basis functions               ...    204
Max core memory                         ...   4096 MB

Electric properties:
Dipole moment                           ... YES
Quadrupole moment                       ... YES
Static polarizability (Dipole/Dipole)   ...  NO
Static polarizability (Dipole/Quad.)    ...  NO
Static polarizability (Quad./Quad.)     ...  NO
Static polarizability (Velocity)        ...  NO
Static hyperpolarizability              ...  NO

Atomic electric properties:
Dipole moment                           ...  NO
Quadrupole moment                       ...  NO
Static polarizability                   ...  NO

Choice of electric origin               ... Center of mass
Position of electric origin             ...     0.000000     0.000000     0.012360

General magnetic properties:
Magnetizability                         ...  NO

EPR properties:
g-Tensor (aka g-matrix)                 ...  NO
Zero-Field splitting spin-orbit         ...  NO
Zero-field splitting spin-spin          ...  NO
Hyperfine couplings                     ...  NO (   0 nuclei)
Quadrupole couplings                    ...  NO (   0 nuclei)
Contact density                         ...  NO (   0 nuclei)

NMR properties:
Chemical shifts                         ...  NO (   0 nuclei)
Spin-rotation constants                 ...  NO (   0 nuclei)
Spin-spin couplings                     ...  NO (   0 nuclei,    0 pairs)

Choice of magnetic origin               ... GIAO
Position of magnetic origin             ...     0.000000     0.000000     0.000000

Properties with geometric perturbations:
SCF Hessian                             ...  NO
IR spectrum                             ...  NO
VCD spectrum                            ...  NO
X-ray spectroscopy properties:
SCF XES/XAS/RIXS spectra                ...  NO

SCF SOC stabilization energy            ...  NO
Diagonal Born-Oppenheimer correction    ...  NO

-------------
DIPOLE MOMENT
-------------

Method             : SCF
Type of density    : Electron Density
Multiplicity       :   1
Irrep              :   0
Energy             :  -155.8061569517197427 Eh
Basis              : AO
                                X                 Y                 Z
Electronic contribution:     -0.000000007      -0.000000023       0.204879506
Nuclear contribution   :      0.000000000       0.000000000      -0.371559272
                        -----------------------------------------
Total Dipole Moment    :     -0.000000007      -0.000000023      -0.166679766
                        -----------------------------------------
Magnitude (a.u.)       :      0.166679766
Magnitude (Debye)      :      0.423666295



--------------------
Rotational spectrum 
--------------------
 
Rotational constants in cm-1:             0.643527             0.230144             0.181788 
Rotational constants in MHz :         19292.450199          6899.535423          5449.866904 

Dipole components along the rotational axes: 
x,y,z [a.u.] :    -0.166680    -0.000000    -0.000000 
x,y,z [Debye]:    -0.423666    -0.000000    -0.000000 

 

Dipole moment calculation done in   0.0 sec 

-----------------
QUADRUPOLE MOMENT
-----------------

Method             : SCF
Type of density    : Electron Density
Multiplicity       :   1
Irrep              :   0
Energy             :  -155.8061569517197427 Eh
Basis              : AO

                XX              YY              ZZ              XY              XZ              YZ
  NUC       11.888664720    55.799971245   152.416444257     0.000000000     0.000000000     0.000000000
  EL       -30.985436472   -73.898296239  -171.185521638    -0.000000029    -0.000000006     0.000000006
  TOT      -19.096771752   -18.098324994   -18.769077381    -0.000000029    -0.000000006     0.000000006 (a.u.)
           -25.685811116   -24.342866080   -25.245050980    -0.000000039    -0.000000008     0.000000009 (Buckingham)

diagonalized tensor:
           -19.096771752   -18.769077381   -18.098324994 (a.u.)
           -25.685811116   -25.245050980   -24.342866080 (Buckingham)
            -1.783705171    -0.461424763     2.245129935 (traceless form in Buckingham)

             1.000000000    -0.000000019    -0.000000029
             0.000000029    -0.000000010     1.000000000
             0.000000019     1.000000000     0.000000010
        
Isotropic quadrupole :   -18.654724709

Quadrupole moment calculation done in   0.0 sec (  0.0 sec for integrals)

Maximum memory used throughout the entire PROP-calculation: 8.0 MB

--------------------------------
SUGGESTED CITATIONS FOR THIS RUN
--------------------------------

Below you find a list of papers that are relevant to this ORCA run
We neither can nor want to force you to cite these papers, but we appreciate if you do
You receive ORCA, which is the product of decades of hard work by many enthusiastic individuals, for free
The only thing we kindly ask in return is that you cite our papers,
We deeply appreciate it, if you show your appreciation for ORCA by not just citing the generic ORCA reference.

Please note that relegating all ORCA citations to the supporting information does *not* help us.
SI sections are not indexed - citations you put there will not count into any citation statistics
But we need these citations in order to attract the funding resources that allow us to do what we are doing

Therefore, if you are a happy ORCA user, please consider citing a few of the papers listed below in the main body of your paper

In addition to the list printed below, the program has created the file /cluster/projects/nn14654k/ylvaos/basis_set_n_funcs/functionals/pbe/C4H6/inp/C4H6_pbe_pcseg2.bibtex that contains the list in bibtex format
You can import this file easily into all common literature databanks and citation aid programs

It goes without saying that in many instances, there are alternative algorithms to achieve similar
results as the ones you have gotten from ORCA. It is, of course, also the case that in some instances
ORCA just re-implements algorithms worked out by others. We are fully aware of that and we are also
fully appreciative of our colleagues work. Hence this citation list should not be read as indicating
that the listed papers, which are focused on our own work, are the only ones worth citing. It simply
meant to make it easier for users to cite ORCA specific papers. It is not a substitute for doing your
own literature research and citing the relevant literature in a scientifically appropriate manner.

List of essential papers. We consider these as the minimum necessary citations

  1. Neese, F.
     Software update: the ORCA program system, version 6.0
     WIRES Comput. Molec. Sci. 2025 15(1), e70019
     doi.org/10.1002/wcms.70019

List of papers to cite with high priority. The work reported in these papers was absolutely
necessary for this run to complete.
Our perspective: the developers of density functionals and basis sets usually get cited in chemistry papers
Good! But without the algorithms to do something with them, the functionals or basis sets would not do anything.
Hence, in our opinion, the algorithm design and method developments papers are equally worthy of getting cited

  1. Neese, F.
     The SHARK Integral Generation and Digestion System
     J. Comp. Chem. 2022 44(3), 381
     doi.org/10.1002/jcc.26942

List of suggested additional citations. These are papers that are important in the 'surrounding' of 
of this run, or papers that preceded the highly important papers. If you like your results we are grateful for a citation.

  1. Neese, F.
     The ORCA program system
     WIRES Comput. Molec. Sci. 2012 2(1), 73-78
     doi.org/10.1002/wcms.81
  2. Neese, F.
     Software update: the ORCA program system, version 4.0
     WIRES Comput. Molec. Sci. 2018 8(1), 1-6
     doi.org/10.1002/wcms.1327
  3. Neese, F.; Wennmohs, F.; Becker, U.; Riplinger, C.
     The ORCA quantum chemistry program package
     J. Chem. Phys. 2020 152(22), 224108
     doi.org/10.1063/5.0004608
  4. Neese, F.
     Software update: The ORCA program system—Version 5.0
     WIRES Comput. Molec. Sci. 2022 12(1), e1606
     doi.org/10.1002/wcms.1606

List of optional additional citations

  1. Neese, F.
     Approximate second-order SCF convergence for spin unrestricted wavefunctions
     Chem. Phys. Lett. 2000 325(1-3), 93-98
     doi.org/10.1016/s0009-2614(00)00662-x

Timings for individual modules:

Sum of individual times          ...        7.816 sec (=   0.130 min)
Startup calculation              ...        0.425 sec (=   0.007 min)   5.4 %
SCF iterations                   ...        6.848 sec (=   0.114 min)  87.6 %
Property integrals               ...        0.284 sec (=   0.005 min)   3.6 %
Property calculations            ...        0.253 sec (=   0.004 min)   3.2 %
Orbital localization             ...        0.006 sec (=   0.000 min)   0.1 %
                             ****ORCA TERMINATED NORMALLY****
TOTAL RUN TIME: 0 days 0 hours 0 minutes 8 seconds 430 msec
