
                                 *****************
                                 * O   R   C   A *
                                 *****************

                                            #,                                       
                                            ###                                      
                                            ####                                     
                                            #####                                    
                                            ######                                   
                                           ########,                                 
                                     ,,################,,,,,                         
                               ,,#################################,,                 
                          ,,##########################################,,             
                       ,#########################################, ''#####,          
                    ,#############################################,,   '####,        
                  ,##################################################,,,,####,       
                ,###########''''           ''''###############################       
              ,#####''   ,,,,##########,,,,          '''####'''          '####       
            ,##' ,,,,###########################,,,                        '##       
           ' ,,###''''                  '''############,,,                           
         ,,##''                                '''############,,,,        ,,,,,,###''
      ,#''                                            '''#######################'''  
     '                                                          ''''####''''         
             ,#######,   #######,   ,#######,      ##                                
            ,#'     '#,  ##    ##  ,#'     '#,    #''#        ,####,    ,#,          
            ##       ##  ##   ,#'  ##            #'  '#       #'       ,# #          
            ##       ##  #######   ##           ,######,      #####,      #          
            '#,     ,#'  ##    ##  '#,     ,#' ,#      #,     #,   #      #          
             '#######'   ##     ##  '#######'  #'      '#     '####' #    #          



                #########################################################
                #                        -***-                          #
                #          Department of theory and spectroscopy        #
                #                                                       #
                #                      Frank Neese                      #
                #                                                       #
                #     Directorship, Architecture, Infrastructure        #
                #                    SHARK, DRIVERS                     #
                #        Core code/Algorithms in most modules           #
                #                                                       #
                #        Max Planck Institute fuer Kohlenforschung      #
                #                Kaiser Wilhelm Platz 1                 #
                #                 D-45470 Muelheim/Ruhr                 #
                #                      Germany                          #
                #                                                       #
                #                  All rights reserved                  #
                #                        -***-                          #
                #########################################################


                         Program Version 6.1.1  -  RELEASE   -
                                (GIT: $487d211c$)
                          ($2025-11-21 10:33:24 +0100$)


 With contributions from (in alphabetic order):
[Max-Planck-Institut fuer Kohlenforschung]                               
  Daniel Aravena         : Magnetic Suceptibility                        
  Michael Atanasov       : Ab Initio Ligand Field Theory (pilot matlab implementation)
  Alexander A. Auer      : GIAO ZORA, VPT2 properties, NMR spectrum      
  Ute Becker             : All parallelization in ORCA, NUMFREQ, NUMCALC 
  Giovanni Bistoni       : ED, misc. LED, open-shell LED, HFLD           
  Dmytro Bykov           : pre 5.0 version of the SCF Hessian            
  Marcos Casanova-Páez   : Triplet and SCS-CIS(D). UHF-(DLPNO)-IP/EA/STEOM-CCSD. UHF-CVS-IP/STEOM-CCSD   
  Vijay G. Chilkuri      : MRCI spin determinant printing, contributions to CSF-ICE 
  Pauline Colinet        : FMM embedding                                 
  Dipayan Datta          : RHF DLPNO-CCSD density                        
  Achintya Kumar Dutta   : EOM-CC, STEOM-CC                              
  Nicolas Foglia         : Exact transition moments, OPA infrastructure, MCD improvements    
  Dmitry Ganyushin       : Spin-Orbit,Spin-Spin,Magnetic field MRCI      
  Miquel Garcia-Rates    : C-PCM and meta-GGA Hessian, CCSD/C-PCM, Gaussian charge scheme 
  Tiago L. C. Gouveia    : GS-ROHF, GS-ROCIS                             
  Yang Guo               : DLPNO-NEVPT2, F12-NEVPT2, CIM, IAO-localization        
  Andreas Hansen         : Spin unrestricted coupled pair/coupled cluster methods 
  Ingolf Harden          : AUTO-CI MPn and infrastructure                
  Benjamin Helmich-Paris : MC-RPA, TRAH-(SCF,CASSCF), AVAS, COSX integrals, SCF dyn. polar., MC-PDFT, srDFT 
  Lee Huntington         : MR-EOM, pCC                                   
  Robert Izsak           : Overlap fitted RIJCOSX, COSX-SCS-MP3, EOM     
  Riya Kayal             : Wick's Theorem for AUTO-CI, AUTO-CI UHF-CCSDT 
  Emily Kempfer          : AUTO-CI RHF CISDT and CCSDT, approximate NEVPT4
  Christian Kollmar      : KDIIS, OOCD, Brueckner-CCSD(T), CCSD density, CASPT2, CASPT2-K, improved NEVPT2 
  Axel Koslowski         : Symmetry handling                             
  Simone Kossmann        : meta-GGA functionals, TD-DFT gradient, OOMP2, (MP2 Hessian; deprecated post 5.0) 
  Lucas Lang             : DCDCAS, Hyperfine gauge corrections, ICE-SOC+SSC
  Marvin Lechner         : AUTO-CI (C++ implementation), FIC-MRCC        
  Spencer Leger          : CASSCF response                               
  Dagmar Lenk            : GEPOL surface, SMD, ORCA-2-JSON               
  Dimitrios Liakos       : Extrapolation schemes; Compound Job, Property file
  Dimitrios Manganas     : Further ROCIS development; embedding schemes. LFT, Crystal Embedding 
  Dimitrios Pantazis     : SARC Basis sets                               
  Anastasios Papadopoulos: AUTO-CI, single reference methods and gradients 
  Taras Petrenko         : pre 6.0 DFT Hessian and TD-DFT gradient,  ECA, NRVS 
  Petra Pikulova         : Analytic Raman intensities                    
  Peter Pinski           : DLPNO-MP2, DLPNO-MP2 Gradient                 
  Shashank Vittal Rao    : ES-AILFT, MagRelax                            
  Christoph Reimann      : Effective Core Potentials                     
  Marius Retegan         : Local ZFS, SOC                                
  Christoph Riplinger    : Optimizer, TS searches, QM/MM, DLPNO-CCSD(T), (RO)-DLPNO pert. Triples 
  Michael Roemelt        : Original ROCIS implementation, recursive CI coupling coefficients
  Masaaki Saitow         : Open-shell DLPNO-CCSD energy and density      
  Barbara Sandhoefer     : DKH picture change effects                    
  Yorick L. A. Schmerwitz: GMF and freeze-and-release deltaSCF, NEB S-IDPP initial path                    
  Kantharuban Sivalingam : CASSCF convergence/infrastructure, NEVPT2, NEVPT3, NEVPT4(SD), FIC-MRCI and CEPA variants
  Bernardo de Souza      : ESD, SOC TD-DFT                               
  Georgi L. Stoychev     : AutoAux, RI-MP2 NMR, DLPNO-MP2 response, X2C  
  Van Anh Tran           : RI-MP2 g-tensors                              
  Willem Van den Heuvel  : Paramagnetic NMR                              
  Zikuan Wang            : NOTCH, Electric field optimization            
  Frank Wennmohs         : Technical directorship and infrastructure     
  Hang Xu                : AUTO-CI-Response properties                   
                                                                         
[FACCTs GmbH]                                                            
  Markus Bursch, Nicolas Foglia, Miquel Garcia-Rates, Ingolf Harden, Hagen Neugebauer, Anastasios Papadopoulos, 
  Christoph Riplinger, Bernardo de Souza, Georgi L. Stoychev                                                    
                                                                 
  APM, various basis sets, CI-OPT, improved COSX, DLPNO-Multilevel,           
  DOCKER, DRACO, updates on ESD, Fragmentator, GOAT, IRC, LR-CPCM, L-BFGS, MBIS, meta-GGA TD-DFT gradient, ML-optimized integration grids, 
  MM, NACMEs, nearIR, NEB, NEB-TS, NL-DFT gradient (VV10), 2- and 3-layer-ONIOM, interface openCOSMO-RS, QMMM,   
  Crystal-QMMM, RESP, rigid body optimization, SF, symmetry and pop. for TD-DFT, various functionals, SOLVATOR                                   
                                                                         
[Other institutions]                                                     
  V. Asgeirsson          : NEB                                           
  Christoph Bannwarth    : sTDA-DFT, sTD-DFT, PBEh-3c, B97-3c, D3        
  Giovanni Bistoni       : ETS/NOCV, ADLD/ADEX, COVALED                  
  Martin Brehm           : Molecular dynamics                            
  Ronald Cardenas        : ETS/NOCV                                      
  Martina Colucci        : COVALED                                       
  Sebastian Ehlert       : rSCAN, r2SCAN, r2SCAN-3c, D4, dhf basis sets  
  Marvin Friede          : D4 for Fr, Ra, Ac-Lr                          
  Lars Goerigk           : TD-DFT with DH, B97 family of functionals     
  Stefan Grimme          : VdW corrections, initial TS optimization, DFT functionals, gCP, sTDA/sTD-DF 
  Waldemar Hujo          : DFT-NL                                        
  H. Jonsson             : NEB                                           
  Holger Kruse           : gCP                                           
  Marcel Mueller         : wB97X-3c, vDZP basis set                      
  Hagen Neugebauer       : wr2SCAN, Native XTB                           
  Gianluca Regni         : ADLD/ADEX                                     
  Tobias Risthaus        : pre 6.0 range-separated hybrid DFT and stability analysis
  Lukas Wittmann         : regularized MP2, r2SCAN double-hybrids, wr2SCAN        
                                                                         
We gratefully acknowledge several colleagues who have allowed us to      
interface, adapt or use parts of their codes:                            
  Ed Valeev, F. Pavosevic, A. Kumar             : LibInt (2-el integral package), F12 methods 
  Garnet Chan, S. Sharma, J. Yang, R. Olivares  : DMRG                   
  Ulf Ekstrom                                   : XCFun DFT Library      
  Mihaly Kallay                                 : mrcc  (arbitrary order and MRCC methods)
  Frank Weinhold                                : gennbo (NPA and NBO analysis)           
  Simon Mueller                                 : openCOSMO-RS                            
  Christopher J. Cramer and Donald G. Truhlar   : smd solvation model                     
  S Lehtola, MJT Oliveira, MAL Marques          : LibXC Library                           
  Liviu Ungur et al                             : ANISO software                          


 Your calculation uses the libint2 library for the computation of 2-el integrals
 For citations please refer to: http://libint.valeyev.net

 Your ORCA version has been built with support for libXC version: 7.0.0
 For citations please refer to: https://libxc.gitlab.io

 This ORCA versions uses:
   CBLAS   interface :  Fast vector & matrix operations
   LAPACKE interface :  Fast linear algebra routines
   SCALAPACK package :  Parallel linear algebra routines
   Shared memory     :  Shared parallel matrices
   BLAS/LAPACK       :  OpenBLAS 0.3.29  USE64BITINT DYNAMIC_ARCH NO_AFFINITY Cooperlake SINGLE_THREADED
        Core in use  :  Cooperlake
   Copyright (c) 2011-2014, The OpenBLAS Project


  ***********************************
  * Starting time: Fri May 15 14:01:56 2026
  * Host name:     c1-13
  * Process ID:    3846262
  * Working dir.:  /cluster/projects/nn14654k/ylvaos/basis_set_n_funcs/functionals/gga_c_pw91/C4H6/out
  ***********************************

Using LibXC functional ID 134 : Perdew & Wang 91
[ 1]  J. P. Perdew. In P. Ziesche and H. Eschrig, editors, Proceedings of the 75. WE-Heraeus-Seminar and 21st Annual International Symposium on Electronic Structure of Solids, 11. Berlin, 1991. Akademie Verlag.
[ 2]  J. P. Perdew, J. A. Chevary, S. H. Vosko, K. A. Jackson, M. R. Pederson, D. J. Singh, and C. Fiolhais.,  Phys. Rev. B 46, 6671 (1992)
[ 3]  J. P. Perdew, J. A. Chevary, S. H. Vosko, K. A. Jackson, M. R. Pederson, D. J. Singh, and C. Fiolhais.,  Phys. Rev. B 48, 4978 (1993)
Using LibXC functional ID 134 : Perdew & Wang 91
[ 1]  J. P. Perdew. In P. Ziesche and H. Eschrig, editors, Proceedings of the 75. WE-Heraeus-Seminar and 21st Annual International Symposium on Electronic Structure of Solids, 11. Berlin, 1991. Akademie Verlag.
[ 2]  J. P. Perdew, J. A. Chevary, S. H. Vosko, K. A. Jackson, M. R. Pederson, D. J. Singh, and C. Fiolhais.,  Phys. Rev. B 46, 6671 (1992)
[ 3]  J. P. Perdew, J. A. Chevary, S. H. Vosko, K. A. Jackson, M. R. Pederson, D. J. Singh, and C. Fiolhais.,  Phys. Rev. B 48, 4978 (1993)
Your calculation utilizes LibXC
by S. Lehtola, C. Steigemann, M. J. T. Oliveira & M. A. L. Marques
Please cite in your paper:
Lehtola, S.; Steigemann, C.; Oliveira, M.J.T.; Marques, M. A. L. Software X, 7, (2018), 1.
   

================================================================================

----- Orbital basis set information -----
Your calculation utilizes the basis: pcseg-2
   F. Jensen, J. Chem. Theory Comput. 10, 1074 (2014).

================================================================================
                                        WARNINGS
                       Please study these warnings very carefully!
================================================================================


================================================================================
                                       INPUT FILE
================================================================================
NAME = /cluster/projects/nn14654k/ylvaos/basis_set_n_funcs/functionals/gga_c_pw91/C4H6/inp/C4H6_gga_c_pw91_pcseg2.inp
|  1> ! dft pcseg-2 TightSCF
|  2> %pal nprocs 8 end
|  3> 
|  4> %loc
|  5>   LocMet NewBoys
|  6>   Occ true
|  7> end
|  8> 
|  9> %method
| 10>   exchange None
| 11>   correlation gga_c_pw91
| 12> end
| 13> 
| 14> %elprop
| 15>   Dipole true
| 16>   Quadrupole true
| 17> end
| 18> 
| 19> * xyz 0 1
| 20> C    0.000000000000   0.000000000000   1.632000000000
| 21> C    0.000000000000   0.000000000000   0.300000000000
| 22> C    0.000000000000   0.771000000000  -0.936300000000
| 23> C    0.000000000000  -0.771000000000  -0.936300000000
| 24> H    0.000000000000   0.914000000000   2.222200000000
| 25> H    0.000000000000  -0.914000000000   2.222200000000
| 26> H    0.912300000000   1.305900000000  -1.200300000000
| 27> H   -0.912300000000   1.305900000000  -1.200300000000
| 28> H   -0.912300000000  -1.305900000000  -1.200300000000
| 29> H    0.912300000000  -1.305900000000  -1.200300000000
| 30> *
| 31> 
| 32> 
| 33>                          ****END OF INPUT****
================================================================================

                       ****************************
                       * Single Point Calculation *
                       ****************************

---------------------------------
CARTESIAN COORDINATES (ANGSTROEM)
---------------------------------
  C      0.000000    0.000000    1.632000
  C      0.000000    0.000000    0.300000
  C      0.000000    0.771000   -0.936300
  C      0.000000   -0.771000   -0.936300
  H      0.000000    0.914000    2.222200
  H      0.000000   -0.914000    2.222200
  H      0.912300    1.305900   -1.200300
  H     -0.912300    1.305900   -1.200300
  H     -0.912300   -1.305900   -1.200300
  H      0.912300   -1.305900   -1.200300

----------------------------
CARTESIAN COORDINATES (A.U.)
----------------------------
  NO LB      ZA    FRAG     MASS         X           Y           Z
   0 C     6.0000    0    12.011    0.000000    0.000000    3.084033
   1 C     6.0000    0    12.011    0.000000    0.000000    0.566918
   2 C     6.0000    0    12.011    0.000000    1.456979   -1.769351
   3 C     6.0000    0    12.011    0.000000   -1.456979   -1.769351
   4 H     1.0000    0     1.008    0.000000    1.727210    4.199349
   5 H     1.0000    0     1.008    0.000000   -1.727210    4.199349
   6 H     1.0000    0     1.008    1.723997    2.467793   -2.268238
   7 H     1.0000    0     1.008   -1.723997    2.467793   -2.268238
   8 H     1.0000    0     1.008   -1.723997   -2.467793   -2.268238
   9 H     1.0000    0     1.008    1.723997   -2.467793   -2.268238

--------------------------------
INTERNAL COORDINATES (ANGSTROEM)
--------------------------------
 C      0   0   0     0.000000000000     0.00000000     0.00000000
 C      1   0   0     1.332000000000     0.00000000     0.00000000
 C      2   1   0     1.457010188708   148.05088964     0.00000000
 C      2   1   3     1.457010188708   148.05088964   180.00000000
 H      1   2   3     1.087994503663   122.85166680     0.00000000
 H      1   2   3     1.087994503663   122.85166680   180.00000000
 H      3   2   1     1.090002431190   117.72260444    70.99760541
 H      3   2   1     1.090002431190   117.72260444   289.00239459
 H      4   2   1     1.090002431190   117.72260444    70.99760541
 H      4   2   1     1.090002431190   117.72260444   289.00239459

---------------------------
INTERNAL COORDINATES (A.U.)
---------------------------
 C      0   0   0     0.000000000000     0.00000000     0.00000000
 C      1   0   0     2.517115210383     0.00000000     0.00000000
 C      2   1   0     2.753350230992   148.05088964     0.00000000
 C      2   1   3     2.753350230992   148.05088964   180.00000000
 H      1   2   3     2.056011647134   122.85166680     0.00000000
 H      1   2   3     2.056011647134   122.85166680   180.00000000
 H      3   2   1     2.059806080257   117.72260444    70.99760541
 H      3   2   1     2.059806080257   117.72260444   289.00239459
 H      4   2   1     2.059806080257   117.72260444    70.99760541
 H      4   2   1     2.059806080257   117.72260444   289.00239459

---------------------
BASIS SET INFORMATION
---------------------
There are 2 groups of distinct atoms

 Group   1 Type C   : 11s6p2d1f contracted to 4s3p2d1f pattern {7211/411/11/1}
 Group   2 Type H   : 6s2p1d contracted to 3s2p1d pattern {411/11/1}

Atom   0C    basis set group =>   1
Atom   1C    basis set group =>   1
Atom   2C    basis set group =>   1
Atom   3C    basis set group =>   1
Atom   4H    basis set group =>   2
Atom   5H    basis set group =>   2
Atom   6H    basis set group =>   2
Atom   7H    basis set group =>   2
Atom   8H    basis set group =>   2
Atom   9H    basis set group =>   2


           ************************************************************
           *        Program running with 8 parallel MPI-processes     *
           *              working on a common directory               *
           ************************************************************
------------------------------------------------------------------------------
                             ORCA STARTUP CALCULATIONS
------------------------------------------------------------------------------
------------------------------------------------------------------------------
                   ___                                                        
                  /   \      - P O W E R E D   B Y -                         
                 /     \                                                     
                 |  |  |   _    _      __       _____    __    __             
                 |  |  |  | |  | |    /  \     |  _  \  |  |  /  |          
                  \  \/   | |  | |   /    \    | | | |  |  | /  /          
                 / \  \   | |__| |  /  /\  \   | |_| |  |  |/  /          
                |  |  |   |  __  | /  /__\  \  |    /   |      \           
                |  |  |   | |  | | |   __   |  |    \   |  |\   \          
                \     /   | |  | | |  |  |  |  | |\  \  |  | \   \       
                 \___/    |_|  |_| |__|  |__|  |_| \__\ |__|  \__/        
                                                                              
                      - O R C A' S   B I G   F R I E N D -                    
                                      &                                       
                       - I N T E G R A L  F E E D E R -                       
                                                                              
 v1 FN, 2020, v2 2021, v3 2022-2024                                           
------------------------------------------------------------------------------


----------------------
SHARK INTEGRAL PACKAGE
----------------------

Number of atoms                             ...     10
Number of basis functions                   ...    204
Number of shells                            ...     76
Maximum angular momentum                    ...      3
Integral batch strategy                     ... SHARK/LIBINT Hybrid
RI-J (if used) integral strategy            ... SPLIT-RIJ (Revised 2003 algorithm where possible)
Printlevel                                  ...      1
Contraction scheme used                     ... SEGMENTED contraction
Prescreening option                         ... SCHWARTZ
   Thresh                                   ... 2.500e-11
   Tcut                                     ... 2.500e-12
   Tpresel                                  ... 2.500e-12 
Coulomb Range Separation                    ... NOT USED
Exchange Range Separation                   ... NOT USED
Multipole approximations                    ... NOT USED
Finite Nucleus Model                        ... NOT USED
CABS basis                                  ... NOT available
Auxiliary Coulomb fitting basis             ... NOT available
Auxiliary J/K fitting basis                 ... NOT available
Auxiliary Correlation fitting basis         ... NOT available
Auxiliary 'external' fitting basis          ... NOT available

Checking pre-screening integrals            ... done (  0.0 sec) Dimension = 76
   => SHARK Basis and OBASIS are compatible. Storing Pre-screening
Shell pair information
Shell pair cut-off parameter TPreSel        ...   2.5e-12
Total number of shell pairs                 ...      2926
Shell pairs after pre-screening             ...      2876
Total number of primitive shell pairs       ...      9193
Primitive shell pairs kept                  ...      7379
          la=0 lb=0:    591 shell pairs
          la=1 lb=0:    800 shell pairs
          la=1 lb=1:    292 shell pairs
          la=2 lb=0:    468 shell pairs
          la=2 lb=1:    326 shell pairs
          la=2 lb=2:    101 shell pairs
          la=3 lb=0:    136 shell pairs
          la=3 lb=1:     96 shell pairs
          la=3 lb=2:     56 shell pairs
          la=3 lb=3:     10 shell pairs

Checking whether 4 symmetric matrices of dimension 204 fit in memory
:Max Core in MB      =   4096.00
 MB in use           =      5.64
 MB left             =   4090.36
 MB needed           =      0.64
 Data fit in memory  = YES
Calculating Nuclear repulsion               ... done (  0.0 sec) ENN=    109.249345578353 Eh

Diagonalization of the overlap matrix:
Smallest eigenvalue                        ... 1.816e-04
Time for diagonalization                   ...    0.003 sec
Threshold for overlap eigenvalues          ... 1.000e-07
Number of eigenvalues below threshold      ... 0
Time for construction of square roots      ...    0.002 sec
Total time needed                          ...    0.007 sec

-------------------
DFT GRID GENERATION
-------------------

General Integration Accuracy     IntAcc      ... 4.388
Radial Grid Type                 RadialGrid  ... OptM3 with GC (2021)
Angular Grid (max. ang.)         AngularGrid ... 4 (Lebedev-302)
Angular grid pruning method      GridPruning ... 4 (adaptive)
Weight generation scheme         WeightScheme... mBecke (2022)
Basis function cutoff            BFCut       ... 1.0000e-11
Integration weight cutoff        WCut        ... 1.0000e-14
Partially contracted basis set               ... off
Rotationally invariant grid construction     ... off
Angular grids for H and He will be reduced by one unit

Total number of grid points                  ...    43682
Total number of batches                      ...      687
Average number of points per batch           ...       63
Average number of grid points per atom       ...     4368
Grids setup in   0.1 sec
Initializing property integral containers    ... done (  0.0 sec)

SHARK setup successfully completed in   0.2 seconds

Maximum memory used throughout the entire STARTUP-calculation: 14.5 MB


           ************************************************************
           *        Program running with 8 parallel MPI-processes     *
           *              working on a common directory               *
           ************************************************************
-------------------------------------------------------------------------------
                                 ORCA GUESS
                   Start orbitals & Density for SCF / CASSCF
-------------------------------------------------------------------------------

------------
SCF SETTINGS
------------
Hamiltonian:
 Density Functional     Method          .... DFT(GTOs)
 Exchange Functional    Exchange        .... no Exchange
  Functional kind                       .... Correlation
  Functional name                       .... Perdew & Wang 91
  Functional family                     .... GGA
  Functional refs                              
    [ 0] J. P. Perdew. In P. Ziesche and H. Eschrig, editors, Proceedings of the 75. WE-Heraeus-Seminar and 21st Annual International Symposium on Electronic Structure of Solids, 11. Berlin, 1991. Akademie Verlag.
    [ 1] J. P. Perdew, J. A. Chevary, S. H. Vosko, K. A. Jackson, M. R. Pederson, D. J. Singh, and C. Fiolhais.,  Phys. Rev. B 46, 6671 (1992), doi: 10.1103/PhysRevB.46.6671
    [ 2] J. P. Perdew, J. A. Chevary, S. H. Vosko, K. A. Jackson, M. R. Pederson, D. J. Singh, and C. Fiolhais.,  Phys. Rev. B 48, 4978 (1993), doi: 10.1103/PhysRevB.48.4978.2
  Functional external parameters        .... 0
 Gradients option       PostSCFGGA      .... off


General Settings:
 Integral files         IntName         .... /cluster/projects/nn14654k/ylvaos/basis_set_n_funcs/functionals/gga_c_pw91/C4H6/inp/C4H6_gga_c_pw91_pcseg2
 Hartree-Fock type      HFTyp           .... RHF
 Total Charge           Charge          ....    0
 Multiplicity           Mult            ....    1
 Number of Electrons    NEL             ....   30
 Basis Dimension        Dim             ....  204
 Nuclear Repulsion      ENuc            ....    109.2493455784 Eh

Convergence Acceleration:
 AO-DIIS                CNVDIIS         .... on
   Start iteration      DIISMaxIt       ....    12
   Startup error        DIISStart       ....  0.200000
   # of expansion vecs  DIISMaxEq       ....     5
   Bias factor          DIISBfac        ....   1.050
   Max. coefficient     DIISMaxC        ....  10.000
 MO-DIIS                CNVKDIIS        .... off
 Trust-Rad. Augm. Hess. CNVTRAH         .... auto
   Auto Start mean grad. ratio tolernc. ....  1.125000
   Auto Start start iteration           ....    50
   Auto Start num. interpolation iter.  ....    10
   Max. Number of Micro iterations      ....    24
   Max. Number of Macro iterations      .... Maxiter - #DIIS iter
   Number of Davidson start vectors     ....     2
   Converg. threshold    (grad. norm)   ....   1.000e-05
   Grad. Scal. Fac. for Micro threshold ....   0.100
   Minimum threshold for Micro iter.    ....   1.000e-02
   NR start threshold (gradient norm)   ....   1.000e-04
   Initial trust radius                 ....   0.400
   Minimum AH scaling param. (alpha)    ....   1.000
   Maximum AH scaling param. (alpha)    .... 1000.000
   Quad. conv. algorithm                .... NR
   White noise on init. David. guess    .... on
   Maximum white noise                  ....   0.010
   Pseudo random numbers                .... off
   Inactive MOs                         .... canonical
   Orbital update algorithm             .... Taylor
   Preconditioner                       .... Diag
   Full preconditioner red. dimension   ....   250
 SOSCF                 CNVSOSCF           .... on
   Start iteration     SOSCFMaxIt         ....   150
   Startup grad/error  SOSCFStart         ....  0.003300
   Hessian update      SOSCFHessUp        .... L-BFGS
   Autom. constraints  SOSCFAutoConstrain .... off
 Level Shifting         CNVShift        .... on
   Level shift para.    LevelShift      ....    0.2500
   Turn off err/grad.   ShiftErr        ....    0.0010
 Zerner damping         CNVZerner       .... off
 Static damping         CNVDamp         .... on
   Fraction old density DampFac         ....    0.7000
   Max. Damping (<1)    DampMax         ....    0.9800
   Min. Damping (>=0)   DampMin         ....    0.0000
   Turn off err/grad.   DampErr         ....    0.1000

SCF Procedure:
 Maximum # iterations   MaxIter         ....   125
 SCF integral mode      SCFMode         .... Direct
   Integral package                     .... SHARK and LIBINT hybrid scheme
 Reset frequency        DirectResetFreq ....    20
 Integral Threshold     Thresh          ....  2.500e-11 Eh
 Primitive CutOff       TCut            ....  2.500e-12 Eh

Convergence Tolerance:
 Convergence Check Mode ConvCheckMode   .... Total+1el-Energy
 Convergence forced     ConvForced      .... 0
 Energy Change          TolE            ....  1.000e-08 Eh
 1-El. energy change                    ....  1.000e-05 Eh
 Orbital Gradient       TolG            ....  1.000e-05
 Orbital Rotation angle TolX            ....  1.000e-05
 DIIS Error             TolErr          ....  5.000e-07

------------------------------
INITIAL GUESS: MODEL POTENTIAL
------------------------------
Loading Hartree-Fock densities                     ... done
Calculating cut-offs                               ... done
Initializing the effective Hamiltonian             ... done
Setting up the integral package (SHARK)            ... done
Starting the Coulomb interaction                   ... done (   0.0 sec)
Making the grid                                    ... done (   0.0 sec)
Mapping shells                                     ... done
Starting the XC term evaluation                    ... done (   0.0 sec)
  promolecular density results
     # of electrons  =     29.996209296
     EX              =      0.000000000
     EC              =     -1.018168332
     EX+EC           =     -1.018168332
Transforming the Hamiltonian                       ... done (   0.0 sec)
Diagonalizing the Hamiltonian                      ... done (   0.0 sec)
Back transforming the eigenvectors                 ... done (   0.0 sec)
Now organizing SCF variables                       ... done
                      ------------------
                      INITIAL GUESS DONE (   0.1 sec)
                      ------------------
             **** ENERGY FILE WAS UPDATED (/cluster/projects/nn14654k/ylvaos/basis_set_n_funcs/functionals/gga_c_pw91/C4H6/inp/C4H6_gga_c_pw91_pcseg2.en.tmp) ****
Finished Guess after   0.1 sec
Maximum memory used throughout the entire GUESS-calculation: 10.3 MB


           ************************************************************
           *        Program running with 8 parallel MPI-processes     *
           *              working on a common directory               *
           ************************************************************

-------------------------------------------------------------------------------------------
                                      ORCA LEAN-SCF
                              memory conserving SCF solver
-------------------------------------------------------------------------------------------

----------------------------------------D-I-I-S--------------------------------------------
Iteration    Energy (Eh)           Delta-E    RMSDP     MaxDP     DIISErr   Damp  Time(sec)
-------------------------------------------------------------------------------------------
               ***  Starting incremental Fock matrix formation  ***
    1    -133.2178486388558554     0.00e+00  5.23e-02  8.97e-01  3.52e-01  0.700   0.5
    2    -133.5233020552971084    -3.05e-01  4.28e-02  7.23e-01  1.19e-01  0.700   0.5
                               ***Turning on AO-DIIS***
    3    -133.5908636022125506    -6.76e-02  3.07e-02  5.05e-01  4.00e-02  0.700   0.5
    4    -133.6262214748738870    -3.54e-02  7.01e-02  1.16e+00  6.00e-02  0.000   0.5
    5    -133.7241596600783282    -9.79e-02  5.59e-03  6.47e-02  7.21e-02  0.000   0.5
    6    -133.7457721963235144    -2.16e-02  5.31e-03  6.69e-02  3.87e-02  0.000   0.6
    7    -133.7512080307485576    -5.44e-03  3.63e-03  5.18e-02  1.33e-02  0.000   0.6
    8    -133.7517699095048442    -5.62e-04  2.38e-03  3.61e-02  5.97e-03  0.000   0.6
                              *** Initializing SOSCF ***
---------------------------------------S-O-S-C-F--------------------------------------
Iteration    Energy (Eh)           Delta-E    RMSDP     MaxDP     MaxGrad    Time(sec)
--------------------------------------------------------------------------------------
    9    -133.7519096771025033    -1.40e-04  1.42e-03  2.28e-02  9.50e-04     0.6
               *** Restarting incremental Fock matrix formation ***
   10    -133.7519248251502404    -1.51e-05  1.95e-03  3.42e-02  5.14e-04     0.6
   11    -133.7519285227964474    -3.70e-06  5.85e-04  1.00e-02  3.78e-04     0.5
   12    -133.7519292652139598    -7.42e-07  7.77e-04  1.34e-02  2.56e-04     0.6
   13    -133.7519307796089265    -1.51e-06  6.52e-05  1.03e-03  8.56e-05     0.5
   14    -133.7519305362003479     2.43e-07  1.12e-04  1.97e-03  1.44e-04     0.5
   15    -133.7519308952498136    -3.59e-07  4.77e-05  7.56e-04  2.26e-05     0.5
   16    -133.7519308756558303     1.96e-08  1.28e-05  1.66e-04  5.20e-05     0.5
   17    -133.7519309099820930    -3.43e-08  1.12e-05  2.24e-04  1.13e-05     0.4
   18    -133.7519309099732254     8.87e-12  6.59e-06  1.58e-04  9.74e-06     0.4
                 **** Energy Check signals convergence ****

               *****************************************************
               *                     SUCCESS                       *
               *           SCF CONVERGED AFTER  18 CYCLES          *
               *****************************************************

             **** ENERGY FILE WAS UPDATED (/cluster/projects/nn14654k/ylvaos/basis_set_n_funcs/functionals/gga_c_pw91/C4H6/inp/C4H6_gga_c_pw91_pcseg2.en.tmp) ****

----------------
TOTAL SCF ENERGY
----------------

Total Energy       :       -133.75193091344198 Eh           -3639.57507 eV

Components:
Nuclear Repulsion  :        109.24934557835338 Eh            2972.82583 eV
Electronic Energy  :       -243.00127649179538 Eh           -6612.40090 eV
One Electron Energy:       -415.44515872898347 Eh          -11304.83750 eV
Two Electron Energy:        172.44388223718809 Eh            4692.43659 eV

Virial components:
Potential Energy   :       -279.16283380133552 Eh           -7596.40690 eV
Kinetic Energy     :        145.41090288789351 Eh            3956.83183 eV
Virial Ratio       :          1.91982051040946

DFT components:
N(Alpha)           :       14.999935109442 electrons
N(Beta)            :       14.999935109442 electrons
N(Total)           :       29.999870218884 electrons
E(X)               :        0.000000000000 Eh       
E(C)               :       -1.006050204884 Eh       
E(XC)              :       -1.006050204884 Eh       

---------------
SCF CONVERGENCE
---------------

  Last Energy change         ...   -8.8676e-12  Tolerance :   1.0000e-08
  Last MAX-Density change    ...    1.5824e-04  Tolerance :   1.0000e-07
  Last RMS-Density change    ...    6.5918e-06  Tolerance :   5.0000e-09
  Last DIIS Error            ...    9.5027e-04  Tolerance :   5.0000e-07
  Last Orbital Gradient      ...    9.7383e-06  Tolerance :   1.0000e-05
  Last Orbital Rotation      ...    2.1750e-05  Tolerance :   1.0000e-05


----------------
ORBITAL ENERGIES
----------------

  NO   OCC          E(Eh)            E(eV) 
   0   2.0000      -8.251396      -224.5319 
   1   2.0000      -8.247928      -224.4375 
   2   2.0000      -8.239610      -224.2112 
   3   2.0000      -8.207376      -223.3340 
   4   2.0000      -0.520990       -14.1769 
   5   2.0000      -0.356239        -9.6938 
   6   2.0000      -0.275518        -7.4972 
   7   2.0000      -0.212476        -5.7818 
   8   2.0000      -0.201862        -5.4930 
   9   2.0000      -0.156016        -4.2454 
  10   2.0000      -0.128168        -3.4876 
  11   2.0000      -0.068498        -1.8639 
  12   2.0000      -0.048372        -1.3163 
  13   2.0000      -0.015235        -0.4146 
  14   2.0000      -0.009077        -0.2470 
  15   0.0000       0.100810         2.7432 
  16   0.0000       0.114898         3.1265 
  17   0.0000       0.127623         3.4728 
  18   0.0000       0.134707         3.6656 
  19   0.0000       0.162018         4.4087 
  20   0.0000       0.179742         4.8910 
  21   0.0000       0.184718         5.0264 
  22   0.0000       0.188497         5.1293 
  23   0.0000       0.224064         6.0971 
  24   0.0000       0.242619         6.6020 
  25   0.0000       0.273388         7.4393 
*Only the first 10 virtual orbitals were printed.

                    ********************************
                    * MULLIKEN POPULATION ANALYSIS *
                    ********************************

-----------------------
MULLIKEN ATOMIC CHARGES
-----------------------
   0 C :    0.098578
   1 C :   -0.047397
   2 C :   -0.119158
   3 C :   -0.119162
   4 H :   -0.083400
   5 H :   -0.083400
   6 H :    0.088485
   7 H :    0.088485
   8 H :    0.088485
   9 H :    0.088485
Sum of atomic charges:    0.0000000

--------------------------------
MULLIKEN REDUCED ORBITAL CHARGES
--------------------------------
  0 C s       :     3.021947  s :     3.021947
      pz      :     1.028425  p :     2.867050
      px      :     1.045001
      py      :     0.793625
      dz2     :    -0.007549  d :     0.013895
      dxz     :     0.005560
      dyz     :     0.019497
      dx2y2   :    -0.003715
      dxy     :     0.000102
      f0      :    -0.002037  f :    -0.001470
      f+1     :     0.000596
      f-1     :     0.000643
      f+2     :    -0.000715
      f-2     :     0.000005
      f+3     :     0.000013
      f-3     :     0.000025

  1 C s       :     2.850684  s :     2.850684
      pz      :     0.959222  p :     3.139566
      px      :     0.986701
      py      :     1.193642
      dz2     :    -0.002923  d :     0.054504
      dxz     :     0.016722
      dyz     :     0.034322
      dx2y2   :     0.000538
      dxy     :     0.005845
      f0      :     0.000836  f :     0.002643
      f+1     :     0.001324
      f-1     :     0.000459
      f+2     :    -0.000357
      f-2     :     0.000378
      f+3     :    -0.000011
      f-3     :     0.000013

  2 C s       :     2.822239  s :     2.822239
      pz      :     1.091520  p :     3.248584
      px      :     1.164919
      py      :     0.992145
      dz2     :     0.010175  d :     0.048373
      dxz     :     0.005839
      dyz     :     0.011036
      dx2y2   :     0.013437
      dxy     :     0.007886
      f0      :    -0.000098  f :    -0.000037
      f+1     :     0.000210
      f-1     :     0.000023
      f+2     :     0.000452
      f-2     :     0.000397
      f+3     :     0.000324
      f-3     :    -0.001345

  3 C s       :     2.822242  s :     2.822242
      pz      :     1.091520  p :     3.248585
      px      :     1.164919
      py      :     0.992146
      dz2     :     0.010175  d :     0.048373
      dxz     :     0.005839
      dyz     :     0.011036
      dx2y2   :     0.013437
      dxy     :     0.007886
      f0      :    -0.000098  f :    -0.000037
      f+1     :     0.000210
      f-1     :     0.000023
      f+2     :     0.000452
      f-2     :     0.000397
      f+3     :     0.000324
      f-3     :    -0.001345

  4 H s       :     1.043418  s :     1.043418
      pz      :     0.011097  p :     0.039164
      px      :     0.008366
      py      :     0.019701
      dz2     :     0.000139  d :     0.000818
      dxz     :     0.000158
      dyz     :     0.000099
      dx2y2   :     0.000150
      dxy     :     0.000274

  5 H s       :     1.043418  s :     1.043418
      pz      :     0.011097  p :     0.039164
      px      :     0.008366
      py      :     0.019701
      dz2     :     0.000139  d :     0.000818
      dxz     :     0.000158
      dyz     :     0.000099
      dx2y2   :     0.000150
      dxy     :     0.000274

  6 H s       :     0.877365  s :     0.877365
      pz      :     0.008771  p :     0.033424
      px      :     0.016799
      py      :     0.007853
      dz2     :     0.000099  d :     0.000726
      dxz     :     0.000265
      dyz     :     0.000071
      dx2y2   :     0.000339
      dxy     :    -0.000048

  7 H s       :     0.877366  s :     0.877366
      pz      :     0.008771  p :     0.033424
      px      :     0.016799
      py      :     0.007853
      dz2     :     0.000099  d :     0.000726
      dxz     :     0.000265
      dyz     :     0.000071
      dx2y2   :     0.000339
      dxy     :    -0.000048

  8 H s       :     0.877365  s :     0.877365
      pz      :     0.008772  p :     0.033424
      px      :     0.016799
      py      :     0.007853
      dz2     :     0.000099  d :     0.000726
      dxz     :     0.000265
      dyz     :     0.000071
      dx2y2   :     0.000339
      dxy     :    -0.000048

  9 H s       :     0.877365  s :     0.877365
      pz      :     0.008772  p :     0.033424
      px      :     0.016799
      py      :     0.007853
      dz2     :     0.000099  d :     0.000726
      dxz     :     0.000265
      dyz     :     0.000071
      dx2y2   :     0.000339
      dxy     :    -0.000048



                     *******************************
                     * LOEWDIN POPULATION ANALYSIS *
                     *******************************

----------------------
LOEWDIN ATOMIC CHARGES
----------------------
   0 C :   -0.010917
   1 C :   -0.030728
   2 C :    0.048834
   3 C :    0.048834
   4 H :   -0.020948
   5 H :   -0.020948
   6 H :   -0.003532
   7 H :   -0.003532
   8 H :   -0.003532
   9 H :   -0.003532

-------------------------------
LOEWDIN REDUCED ORBITAL CHARGES
-------------------------------
  0 C s       :     2.757866  s :     2.757866
      pz      :     1.058270  p :     3.094482
      px      :     0.999261
      py      :     1.036951
      dz2     :     0.035005  d :     0.146160
      dxz     :     0.020157
      dyz     :     0.083185
      dx2y2   :     0.007659
      dxy     :     0.000154
      f0      :     0.004356  f :     0.012409
      f+1     :     0.001927
      f-1     :     0.004616
      f+2     :     0.000837
      f-2     :     0.000013
      f+3     :     0.000255
      f-3     :     0.000406

  1 C s       :     2.730083  s :     2.730083
      pz      :     1.064129  p :     2.973268
      px      :     0.881549
      py      :     1.027589
      dz2     :     0.091637  d :     0.304288
      dxz     :     0.072558
      dyz     :     0.102827
      dx2y2   :     0.013636
      dxy     :     0.023630
      f0      :     0.009305  f :     0.023088
      f+1     :     0.002205
      f-1     :     0.005231
      f+2     :     0.002202
      f-2     :     0.003695
      f+3     :     0.000387
      f-3     :     0.000063

  2 C s       :     2.683663  s :     2.683663
      pz      :     1.050533  p :     3.052302
      px      :     1.056330
      py      :     0.945439
      dz2     :     0.036127  d :     0.197928
      dxz     :     0.024343
      dyz     :     0.051413
      dx2y2   :     0.033502
      dxy     :     0.052543
      f0      :     0.003881  f :     0.017274
      f+1     :     0.001533
      f-1     :     0.001806
      f+2     :     0.003853
      f-2     :     0.001638
      f+3     :     0.002123
      f-3     :     0.002440

  3 C s       :     2.683663  s :     2.683663
      pz      :     1.050533  p :     3.052302
      px      :     1.056330
      py      :     0.945439
      dz2     :     0.036127  d :     0.197928
      dxz     :     0.024343
      dyz     :     0.051413
      dx2y2   :     0.033502
      dxy     :     0.052543
      f0      :     0.003881  f :     0.017274
      f+1     :     0.001533
      f-1     :     0.001806
      f+2     :     0.003853
      f-2     :     0.001638
      f+3     :     0.002123
      f-3     :     0.002440

  4 H s       :     0.877891  s :     0.877891
      pz      :     0.039628  p :     0.126175
      px      :     0.038068
      py      :     0.048480
      dz2     :     0.003763  d :     0.016881
      dxz     :     0.001482
      dyz     :     0.005072
      dx2y2   :     0.003597
      dxy     :     0.002968

  5 H s       :     0.877891  s :     0.877891
      pz      :     0.039628  p :     0.126175
      px      :     0.038068
      py      :     0.048480
      dz2     :     0.003763  d :     0.016881
      dxz     :     0.001482
      dyz     :     0.005072
      dx2y2   :     0.003597
      dxy     :     0.002968

  6 H s       :     0.851519  s :     0.851519
      pz      :     0.049389  p :     0.134115
      px      :     0.045686
      py      :     0.039041
      dz2     :     0.002335  d :     0.017898
      dxz     :     0.004133
      dyz     :     0.001817
      dx2y2   :     0.004803
      dxy     :     0.004809

  7 H s       :     0.851519  s :     0.851519
      pz      :     0.049389  p :     0.134115
      px      :     0.045686
      py      :     0.039041
      dz2     :     0.002335  d :     0.017898
      dxz     :     0.004133
      dyz     :     0.001817
      dx2y2   :     0.004803
      dxy     :     0.004809

  8 H s       :     0.851519  s :     0.851519
      pz      :     0.049389  p :     0.134115
      px      :     0.045686
      py      :     0.039041
      dz2     :     0.002335  d :     0.017898
      dxz     :     0.004133
      dyz     :     0.001817
      dx2y2   :     0.004803
      dxy     :     0.004809

  9 H s       :     0.851519  s :     0.851519
      pz      :     0.049389  p :     0.134115
      px      :     0.045686
      py      :     0.039041
      dz2     :     0.002335  d :     0.017898
      dxz     :     0.004133
      dyz     :     0.001817
      dx2y2   :     0.004803
      dxy     :     0.004809



                      *****************************
                      * MAYER POPULATION ANALYSIS *
                      *****************************

  NA   - Mulliken gross atomic population
  ZA   - Total nuclear charge
  QA   - Mulliken gross atomic charge
  VA   - Mayer's total valence
  BVA  - Mayer's bonded valence
  FA   - Mayer's free valence

  ATOM       NA         ZA         QA         VA         BVA        FA
  0 C      5.9014     6.0000     0.0986     3.5691     3.5691     0.0000
  1 C      6.0474     6.0000    -0.0474     3.2535     3.2535     0.0000
  2 C      6.1192     6.0000    -0.1192     3.4583     3.4583     0.0000
  3 C      6.1192     6.0000    -0.1192     3.4583     3.4583     0.0000
  4 H      1.0834     1.0000    -0.0834     0.9118     0.9118     0.0000
  5 H      1.0834     1.0000    -0.0834     0.9118     0.9118     0.0000
  6 H      0.9115     1.0000     0.0885     0.9295     0.9295     0.0000
  7 H      0.9115     1.0000     0.0885     0.9295     0.9295     0.0000
  8 H      0.9115     1.0000     0.0885     0.9295     0.9295    -0.0000
  9 H      0.9115     1.0000     0.0885     0.9295     0.9295    -0.0000

  Mayer bond orders larger than 0.100000
B(  0-C ,  1-C ) :   1.8461 B(  0-C ,  2-C ) :  -0.1274 B(  0-C ,  3-C ) :  -0.1274 
B(  0-C ,  4-H ) :   0.9932 B(  0-C ,  5-H ) :   0.9932 B(  1-C ,  2-C ) :   0.8115 
B(  1-C ,  3-C ) :   0.8115 B(  2-C ,  3-C ) :   0.8341 B(  2-C ,  6-H ) :   0.9499 
B(  2-C ,  7-H ) :   0.9499 B(  3-C ,  8-H ) :   0.9499 B(  3-C ,  9-H ) :   0.9499 


-------
TIMINGS
-------

Total SCF time: 0 days 0 hours 0 min 9 sec 

Total time                  ....       9.990 sec
Sum of individual times     ....       9.563 sec  ( 95.7%)

SCF preparation             ....       0.099 sec  (  1.0%)
Fock matrix formation       ....       8.962 sec  ( 89.7%)
  Startup                   ....       0.010 sec  (  0.1% of F)
  Coulomb formation         ....       8.174 sec  ( 91.2% of F)
  XC integration            ....       0.979 sec  ( 10.9% of F)
    XC Preparation          ....       0.000 sec  (  0.0% of XC)
    Basis function eval.    ....       0.207 sec  ( 21.1% of XC)
    Density eval.           ....       0.157 sec  ( 16.0% of XC)
    XC-Functional eval.     ....       0.051 sec  (  5.2% of XC)
    XC-Potential eval.      ....       0.285 sec  ( 29.1% of XC)
Diagonalization             ....       0.000 sec  (  0.0%)
Density matrix formation    ....       0.067 sec  (  0.7%)
Total Energy calculation    ....       0.021 sec  (  0.2%)
Population analysis         ....       0.012 sec  (  0.1%)
Orbital Transformation      ....       0.020 sec  (  0.2%)
Orbital Orthonormalization  ....       0.000 sec  (  0.0%)
DIIS solution               ....       0.241 sec  (  2.4%)
SOSCF solution              ....       0.142 sec  (  1.4%)
Finished LeanSCF after  10.0 sec

Maximum memory used throughout the entire LEANSCF-calculation: 17.4 MB


           ************************************************************
           *        Program running with 8 parallel MPI-processes     *
           *              working on a common directory               *
           ************************************************************

------------------------------------------------------------------------------
                         ORCA PROPERTY INTEGRAL CALCULATIONS
------------------------------------------------------------------------------

GBWName                                   ... /cluster/projects/nn14654k/ylvaos/basis_set_n_funcs/functionals/gga_c_pw91/C4H6/inp/C4H6_gga_c_pw91_pcseg2.gbw
Number of atoms                           ...     10
Number of basis functions                 ...    204
Max core memory                           ...   4096 MB

Dipole integrals                          ... YES
Quadrupole integrals                      ... YES
Linear momentum integrals                 ...  NO
Angular momentum integrals                ...  NO
Higher moments length integrals           ...  NO
Higher moments velocity integrals         ...  NO
Kinetic energy integrals                  ...  NO
GIAO right hand sides                     ...  NO
GIAO dipole derivative integrals          ...  NO
SOC integrals                             ...  NO
EPR diamagnetic integrals (GIAO)          ...  NO
EPR gauge integrals                       ...  NO
Field gradient integrals                  ...  NO (   0 nuclei)
Spin-dipole/Fermi contact integrals       ...  NO (   0 nuclei)
Contact density integrals                 ...  NO (   0 nuclei)
Nucleus-orbit integrals                   ...  NO (   0 nuclei)
Geometric perturbations                   ...  NO (  10 nuclei)

Choice of electric origin   ... Center of mass
Position of electric origin ... (  0.0000,  0.0000,  0.0124) 
Choice of magnetic origin   ... GIAO
Position of magnetic origin ... (  0.0000,  0.0000,  0.0000) 

Calculating integrals                     ... Electric Dipole (Length)     done (  0.0 sec)
Calculating integrals                     ... Electric Quadrupole (Length) done (  0.0 sec)

Property integrals calculated in   0.0 sec

Maximum memory used throughout the entire PROPINT-calculation: 11.1 MB
------------------------------------------------------------------------------
                           ORCA ORBITAL LOCALIZATION
------------------------------------------------------------------------------

Input orbitals are from                  ... /cluster/projects/nn14654k/ylvaos/basis_set_n_funcs/functionals/gga_c_pw91/C4H6/inp/C4H6_gga_c_pw91_pcseg2.gbw
Output orbitals are to                   ... /cluster/projects/nn14654k/ylvaos/basis_set_n_funcs/functionals/gga_c_pw91/C4H6/inp/C4H6_gga_c_pw91_pcseg2.loc
Max. number of iterations                ... 128
Localizations seeded randomly            ... on
Convergence tolerance                    ... 1.000e-06
Threshold for strong local MOs           ... 9.500e-01
Threshold for bond MOs                   ... 8.500e-01
Operator                                 ... 0
Orbital range for localization           ... 4 to 14
Localization criterion                   ... NEW-BOYS
Doing the dipole integrals               ... o.k.
Initial value of the localization sum :    43.076232
ITERATION   0 : L=   86.3605267095 DL=  4.33e+01 (AVERGE_DL)=    0.8871229822 
ITERATION   1 : L=   89.4203012008 DL=  3.06e+00 (AVERGE_DL)=    0.2358649263 
ITERATION   2 : L=   89.4626080892 DL=  4.23e-02 (AVERGE_DL)=    0.0277347463 
ITERATION   3 : L=   89.4629670691 DL=  3.59e-04 (AVERGE_DL)=    0.0025547814 
ITERATION   4 : L=   89.4629743456 DL=  7.28e-06 (AVERGE_DL)=    0.0003637299 
ITERATION   5 : L=   89.4629744739 DL=  1.28e-07 (AVERGE_DL)=    0.0000482977 
LOCALIZATION SUM CONVERGED


--------------------------------------------------------------------------------
                    LOCALIZED MOLECULAR ORBITAL COMPOSITIONS
--------------------------------------------------------------------------------

The Mulliken populations for each LMO on each atom are computed
The LMO`s will be ordered according to atom index and type
  (A) Strongly localized MO`s have populations of >=0.950 on one atom
  (B) Two center bond orbitals have populations of >=0.850 on two atoms
  (C) Other MO`s are considered to be `delocalized`

FOUND  -   0 strongly local MO`s
       -  11 two center bond MO`s
       -   0 significantly delocalized MO`s

Bond-like localized orbitals:
MO  14:   9H  -   0.489091  and   3C  -   0.519976
MO  13:   8H  -   0.489090  and   3C  -   0.519975
MO  12:   7H  -   0.489091  and   2C  -   0.519976
MO  11:   6H  -   0.489091  and   2C  -   0.519976
MO  10:   5H  -   0.589248  and   0C  -   0.458501
MO   9:   4H  -   0.589248  and   0C  -   0.458499
MO   8:   3C  -   0.500193  and   2C  -   0.500193
MO   7:   3C  -   0.551770  and   1C  -   0.515661
MO   6:   2C  -   0.551768  and   1C  -   0.515660
MO   5:   1C  -   0.527711  and   0C  -   0.531928
MO   4:   1C  -   0.527710  and   0C  -   0.531928
Localized MO's were stored in: /cluster/projects/nn14654k/ylvaos/basis_set_n_funcs/functionals/gga_c_pw91/C4H6/inp/C4H6_gga_c_pw91_pcseg2.loc

-------------------------   --------------------
FINAL SINGLE POINT ENERGY      -133.751930913442
-------------------------   --------------------



           ************************************************************
           *        Program running with 8 parallel MPI-processes     *
           *              working on a common directory               *
           ************************************************************

------------------------------------------------------------------------------
                              ORCA PROPERTY CALCULATIONS
------------------------------------------------------------------------------

GBWName                                 ... /cluster/projects/nn14654k/ylvaos/basis_set_n_funcs/functionals/gga_c_pw91/C4H6/inp/C4H6_gga_c_pw91_pcseg2.gbw
Number of atoms                         ...     10
Number of basis functions               ...    204
Max core memory                         ...   4096 MB

Electric properties:
Dipole moment                           ... YES
Quadrupole moment                       ... YES
Static polarizability (Dipole/Dipole)   ...  NO
Static polarizability (Dipole/Quad.)    ...  NO
Static polarizability (Quad./Quad.)     ...  NO
Static polarizability (Velocity)        ...  NO
Static hyperpolarizability              ...  NO

Atomic electric properties:
Dipole moment                           ...  NO
Quadrupole moment                       ...  NO
Static polarizability                   ...  NO

Choice of electric origin               ... Center of mass
Position of electric origin             ...     0.000000     0.000000     0.012360

General magnetic properties:
Magnetizability                         ...  NO

EPR properties:
g-Tensor (aka g-matrix)                 ...  NO
Zero-Field splitting spin-orbit         ...  NO
Zero-field splitting spin-spin          ...  NO
Hyperfine couplings                     ...  NO (   0 nuclei)
Quadrupole couplings                    ...  NO (   0 nuclei)
Contact density                         ...  NO (   0 nuclei)

NMR properties:
Chemical shifts                         ...  NO (   0 nuclei)
Spin-rotation constants                 ...  NO (   0 nuclei)
Spin-spin couplings                     ...  NO (   0 nuclei,    0 pairs)

Choice of magnetic origin               ... GIAO
Position of magnetic origin             ...     0.000000     0.000000     0.000000

Properties with geometric perturbations:
SCF Hessian                             ...  NO
IR spectrum                             ...  NO
VCD spectrum                            ...  NO
X-ray spectroscopy properties:
SCF XES/XAS/RIXS spectra                ...  NO

SCF SOC stabilization energy            ...  NO
Diagonal Born-Oppenheimer correction    ...  NO

-------------
DIPOLE MOMENT
-------------

Method             : SCF
Type of density    : Electron Density
Multiplicity       :   1
Irrep              :   0
Energy             :  -133.7519309134419814 Eh
Basis              : AO
                                X                 Y                 Z
Electronic contribution:      0.000000002       0.000000008       0.043965145
Nuclear contribution   :      0.000000000       0.000000000      -0.371559272
                        -----------------------------------------
Total Dipole Moment    :      0.000000002       0.000000008      -0.327594126
                        -----------------------------------------
Magnitude (a.u.)       :      0.327594126
Magnitude (Debye)      :      0.832678095



--------------------
Rotational spectrum 
--------------------
 
Rotational constants in cm-1:             0.643527             0.230144             0.181788 
Rotational constants in MHz :         19292.450199          6899.535423          5449.866904 

Dipole components along the rotational axes: 
x,y,z [a.u.] :    -0.327594     0.000000     0.000000 
x,y,z [Debye]:    -0.832678     0.000000     0.000000 

 

Dipole moment calculation done in   0.0 sec 

-----------------
QUADRUPOLE MOMENT
-----------------

Method             : SCF
Type of density    : Electron Density
Multiplicity       :   1
Irrep              :   0
Energy             :  -133.7519309134419814 Eh
Basis              : AO

                XX              YY              ZZ              XY              XZ              YZ
  NUC       11.888664720    55.799971245   152.416444257     0.000000000     0.000000000     0.000000000
  EL       -40.281286801   -84.609885264  -182.483521869     0.000000820    -0.000000084     0.000001439
  TOT      -28.392622081   -28.809914020   -30.067077612     0.000000820    -0.000000084     0.000001439 (a.u.)
           -38.189047726   -38.750319655   -40.441247682     0.000001102    -0.000000113     0.000001935 (Buckingham)

diagonalized tensor:
           -30.067077612   -28.809914020   -28.392622081 (a.u.)
           -40.441247682   -38.750319655   -38.189047726 (Buckingham)
            -3.943127983     1.129656098     2.813471885 (traceless form in Buckingham)

             0.000000050    -0.000001964     1.000000000
            -0.000001144     1.000000000     0.000001964
             1.000000000     0.000001144    -0.000000050
        
Isotropic quadrupole :   -29.089871237

Quadrupole moment calculation done in   0.0 sec (  0.0 sec for integrals)

Maximum memory used throughout the entire PROP-calculation: 8.0 MB

--------------------------------
SUGGESTED CITATIONS FOR THIS RUN
--------------------------------

Below you find a list of papers that are relevant to this ORCA run
We neither can nor want to force you to cite these papers, but we appreciate if you do
You receive ORCA, which is the product of decades of hard work by many enthusiastic individuals, for free
The only thing we kindly ask in return is that you cite our papers,
We deeply appreciate it, if you show your appreciation for ORCA by not just citing the generic ORCA reference.

Please note that relegating all ORCA citations to the supporting information does *not* help us.
SI sections are not indexed - citations you put there will not count into any citation statistics
But we need these citations in order to attract the funding resources that allow us to do what we are doing

Therefore, if you are a happy ORCA user, please consider citing a few of the papers listed below in the main body of your paper

In addition to the list printed below, the program has created the file /cluster/projects/nn14654k/ylvaos/basis_set_n_funcs/functionals/gga_c_pw91/C4H6/inp/C4H6_gga_c_pw91_pcseg2.bibtex that contains the list in bibtex format
You can import this file easily into all common literature databanks and citation aid programs

It goes without saying that in many instances, there are alternative algorithms to achieve similar
results as the ones you have gotten from ORCA. It is, of course, also the case that in some instances
ORCA just re-implements algorithms worked out by others. We are fully aware of that and we are also
fully appreciative of our colleagues work. Hence this citation list should not be read as indicating
that the listed papers, which are focused on our own work, are the only ones worth citing. It simply
meant to make it easier for users to cite ORCA specific papers. It is not a substitute for doing your
own literature research and citing the relevant literature in a scientifically appropriate manner.

List of essential papers. We consider these as the minimum necessary citations

  1. Neese, F.
     Software update: the ORCA program system, version 6.0
     WIRES Comput. Molec. Sci. 2025 15(1), e70019
     doi.org/10.1002/wcms.70019

List of papers to cite with high priority. The work reported in these papers was absolutely
necessary for this run to complete.
Our perspective: the developers of density functionals and basis sets usually get cited in chemistry papers
Good! But without the algorithms to do something with them, the functionals or basis sets would not do anything.
Hence, in our opinion, the algorithm design and method developments papers are equally worthy of getting cited

  1. Lehtola, S.; Steigemann, C.; Oliveira, M.; Marques, M.
     Recent developments in Libxc - A comprehensive library of functionals for density functional theory
     Software X 2018 7 , 
     doi.org/10.1016/j.softx.2017.11.002
  2. Neese, F.
     The SHARK Integral Generation and Digestion System
     J. Comp. Chem. 2022 44(3), 381
     doi.org/10.1002/jcc.26942

List of suggested additional citations. These are papers that are important in the 'surrounding' of 
of this run, or papers that preceded the highly important papers. If you like your results we are grateful for a citation.

  1. Neese, F.
     The ORCA program system
     WIRES Comput. Molec. Sci. 2012 2(1), 73-78
     doi.org/10.1002/wcms.81
  2. Neese, F.
     Software update: the ORCA program system, version 4.0
     WIRES Comput. Molec. Sci. 2018 8(1), 1-6
     doi.org/10.1002/wcms.1327
  3. Neese, F.; Wennmohs, F.; Becker, U.; Riplinger, C.
     The ORCA quantum chemistry program package
     J. Chem. Phys. 2020 152(22), 224108
     doi.org/10.1063/5.0004608
  4. Neese, F.
     Software update: The ORCA program system—Version 5.0
     WIRES Comput. Molec. Sci. 2022 12(1), e1606
     doi.org/10.1002/wcms.1606

List of optional additional citations

  1. Neese, F.
     Approximate second-order SCF convergence for spin unrestricted wavefunctions
     Chem. Phys. Lett. 2000 325(1-3), 93-98
     doi.org/10.1016/s0009-2614(00)00662-x

Timings for individual modules:

Sum of individual times          ...       11.396 sec (=   0.190 min)
Startup calculation              ...        0.402 sec (=   0.007 min)   3.5 %
SCF iterations                   ...       10.508 sec (=   0.175 min)  92.2 %
Property integrals               ...        0.256 sec (=   0.004 min)   2.2 %
Property calculations            ...        0.224 sec (=   0.004 min)   2.0 %
Orbital localization             ...        0.005 sec (=   0.000 min)   0.0 %
                             ****ORCA TERMINATED NORMALLY****
TOTAL RUN TIME: 0 days 0 hours 0 minutes 11 seconds 982 msec
