
                                 *****************
                                 * O   R   C   A *
                                 *****************

                                            #,                                       
                                            ###                                      
                                            ####                                     
                                            #####                                    
                                            ######                                   
                                           ########,                                 
                                     ,,################,,,,,                         
                               ,,#################################,,                 
                          ,,##########################################,,             
                       ,#########################################, ''#####,          
                    ,#############################################,,   '####,        
                  ,##################################################,,,,####,       
                ,###########''''           ''''###############################       
              ,#####''   ,,,,##########,,,,          '''####'''          '####       
            ,##' ,,,,###########################,,,                        '##       
           ' ,,###''''                  '''############,,,                           
         ,,##''                                '''############,,,,        ,,,,,,###''
      ,#''                                            '''#######################'''  
     '                                                          ''''####''''         
             ,#######,   #######,   ,#######,      ##                                
            ,#'     '#,  ##    ##  ,#'     '#,    #''#        ,####,    ,#,          
            ##       ##  ##   ,#'  ##            #'  '#       #'       ,# #          
            ##       ##  #######   ##           ,######,      #####,      #          
            '#,     ,#'  ##    ##  '#,     ,#' ,#      #,     #,   #      #          
             '#######'   ##     ##  '#######'  #'      '#     '####' #    #          



                #########################################################
                #                        -***-                          #
                #          Department of theory and spectroscopy        #
                #                                                       #
                #                      Frank Neese                      #
                #                                                       #
                #     Directorship, Architecture, Infrastructure        #
                #                    SHARK, DRIVERS                     #
                #        Core code/Algorithms in most modules           #
                #                                                       #
                #        Max Planck Institute fuer Kohlenforschung      #
                #                Kaiser Wilhelm Platz 1                 #
                #                 D-45470 Muelheim/Ruhr                 #
                #                      Germany                          #
                #                                                       #
                #                  All rights reserved                  #
                #                        -***-                          #
                #########################################################


                         Program Version 6.1.1  -  RELEASE   -
                                (GIT: $487d211c$)
                          ($2025-11-21 10:33:24 +0100$)


 With contributions from (in alphabetic order):
[Max-Planck-Institut fuer Kohlenforschung]                               
  Daniel Aravena         : Magnetic Suceptibility                        
  Michael Atanasov       : Ab Initio Ligand Field Theory (pilot matlab implementation)
  Alexander A. Auer      : GIAO ZORA, VPT2 properties, NMR spectrum      
  Ute Becker             : All parallelization in ORCA, NUMFREQ, NUMCALC 
  Giovanni Bistoni       : ED, misc. LED, open-shell LED, HFLD           
  Dmytro Bykov           : pre 5.0 version of the SCF Hessian            
  Marcos Casanova-Páez   : Triplet and SCS-CIS(D). UHF-(DLPNO)-IP/EA/STEOM-CCSD. UHF-CVS-IP/STEOM-CCSD   
  Vijay G. Chilkuri      : MRCI spin determinant printing, contributions to CSF-ICE 
  Pauline Colinet        : FMM embedding                                 
  Dipayan Datta          : RHF DLPNO-CCSD density                        
  Achintya Kumar Dutta   : EOM-CC, STEOM-CC                              
  Nicolas Foglia         : Exact transition moments, OPA infrastructure, MCD improvements    
  Dmitry Ganyushin       : Spin-Orbit,Spin-Spin,Magnetic field MRCI      
  Miquel Garcia-Rates    : C-PCM and meta-GGA Hessian, CCSD/C-PCM, Gaussian charge scheme 
  Tiago L. C. Gouveia    : GS-ROHF, GS-ROCIS                             
  Yang Guo               : DLPNO-NEVPT2, F12-NEVPT2, CIM, IAO-localization        
  Andreas Hansen         : Spin unrestricted coupled pair/coupled cluster methods 
  Ingolf Harden          : AUTO-CI MPn and infrastructure                
  Benjamin Helmich-Paris : MC-RPA, TRAH-(SCF,CASSCF), AVAS, COSX integrals, SCF dyn. polar., MC-PDFT, srDFT 
  Lee Huntington         : MR-EOM, pCC                                   
  Robert Izsak           : Overlap fitted RIJCOSX, COSX-SCS-MP3, EOM     
  Riya Kayal             : Wick's Theorem for AUTO-CI, AUTO-CI UHF-CCSDT 
  Emily Kempfer          : AUTO-CI RHF CISDT and CCSDT, approximate NEVPT4
  Christian Kollmar      : KDIIS, OOCD, Brueckner-CCSD(T), CCSD density, CASPT2, CASPT2-K, improved NEVPT2 
  Axel Koslowski         : Symmetry handling                             
  Simone Kossmann        : meta-GGA functionals, TD-DFT gradient, OOMP2, (MP2 Hessian; deprecated post 5.0) 
  Lucas Lang             : DCDCAS, Hyperfine gauge corrections, ICE-SOC+SSC
  Marvin Lechner         : AUTO-CI (C++ implementation), FIC-MRCC        
  Spencer Leger          : CASSCF response                               
  Dagmar Lenk            : GEPOL surface, SMD, ORCA-2-JSON               
  Dimitrios Liakos       : Extrapolation schemes; Compound Job, Property file
  Dimitrios Manganas     : Further ROCIS development; embedding schemes. LFT, Crystal Embedding 
  Dimitrios Pantazis     : SARC Basis sets                               
  Anastasios Papadopoulos: AUTO-CI, single reference methods and gradients 
  Taras Petrenko         : pre 6.0 DFT Hessian and TD-DFT gradient,  ECA, NRVS 
  Petra Pikulova         : Analytic Raman intensities                    
  Peter Pinski           : DLPNO-MP2, DLPNO-MP2 Gradient                 
  Shashank Vittal Rao    : ES-AILFT, MagRelax                            
  Christoph Reimann      : Effective Core Potentials                     
  Marius Retegan         : Local ZFS, SOC                                
  Christoph Riplinger    : Optimizer, TS searches, QM/MM, DLPNO-CCSD(T), (RO)-DLPNO pert. Triples 
  Michael Roemelt        : Original ROCIS implementation, recursive CI coupling coefficients
  Masaaki Saitow         : Open-shell DLPNO-CCSD energy and density      
  Barbara Sandhoefer     : DKH picture change effects                    
  Yorick L. A. Schmerwitz: GMF and freeze-and-release deltaSCF, NEB S-IDPP initial path                    
  Kantharuban Sivalingam : CASSCF convergence/infrastructure, NEVPT2, NEVPT3, NEVPT4(SD), FIC-MRCI and CEPA variants
  Bernardo de Souza      : ESD, SOC TD-DFT                               
  Georgi L. Stoychev     : AutoAux, RI-MP2 NMR, DLPNO-MP2 response, X2C  
  Van Anh Tran           : RI-MP2 g-tensors                              
  Willem Van den Heuvel  : Paramagnetic NMR                              
  Zikuan Wang            : NOTCH, Electric field optimization            
  Frank Wennmohs         : Technical directorship and infrastructure     
  Hang Xu                : AUTO-CI-Response properties                   
                                                                         
[FACCTs GmbH]                                                            
  Markus Bursch, Nicolas Foglia, Miquel Garcia-Rates, Ingolf Harden, Hagen Neugebauer, Anastasios Papadopoulos, 
  Christoph Riplinger, Bernardo de Souza, Georgi L. Stoychev                                                    
                                                                 
  APM, various basis sets, CI-OPT, improved COSX, DLPNO-Multilevel,           
  DOCKER, DRACO, updates on ESD, Fragmentator, GOAT, IRC, LR-CPCM, L-BFGS, MBIS, meta-GGA TD-DFT gradient, ML-optimized integration grids, 
  MM, NACMEs, nearIR, NEB, NEB-TS, NL-DFT gradient (VV10), 2- and 3-layer-ONIOM, interface openCOSMO-RS, QMMM,   
  Crystal-QMMM, RESP, rigid body optimization, SF, symmetry and pop. for TD-DFT, various functionals, SOLVATOR                                   
                                                                         
[Other institutions]                                                     
  V. Asgeirsson          : NEB                                           
  Christoph Bannwarth    : sTDA-DFT, sTD-DFT, PBEh-3c, B97-3c, D3        
  Giovanni Bistoni       : ETS/NOCV, ADLD/ADEX, COVALED                  
  Martin Brehm           : Molecular dynamics                            
  Ronald Cardenas        : ETS/NOCV                                      
  Martina Colucci        : COVALED                                       
  Sebastian Ehlert       : rSCAN, r2SCAN, r2SCAN-3c, D4, dhf basis sets  
  Marvin Friede          : D4 for Fr, Ra, Ac-Lr                          
  Lars Goerigk           : TD-DFT with DH, B97 family of functionals     
  Stefan Grimme          : VdW corrections, initial TS optimization, DFT functionals, gCP, sTDA/sTD-DF 
  Waldemar Hujo          : DFT-NL                                        
  H. Jonsson             : NEB                                           
  Holger Kruse           : gCP                                           
  Marcel Mueller         : wB97X-3c, vDZP basis set                      
  Hagen Neugebauer       : wr2SCAN, Native XTB                           
  Gianluca Regni         : ADLD/ADEX                                     
  Tobias Risthaus        : pre 6.0 range-separated hybrid DFT and stability analysis
  Lukas Wittmann         : regularized MP2, r2SCAN double-hybrids, wr2SCAN        
                                                                         
We gratefully acknowledge several colleagues who have allowed us to      
interface, adapt or use parts of their codes:                            
  Ed Valeev, F. Pavosevic, A. Kumar             : LibInt (2-el integral package), F12 methods 
  Garnet Chan, S. Sharma, J. Yang, R. Olivares  : DMRG                   
  Ulf Ekstrom                                   : XCFun DFT Library      
  Mihaly Kallay                                 : mrcc  (arbitrary order and MRCC methods)
  Frank Weinhold                                : gennbo (NPA and NBO analysis)           
  Simon Mueller                                 : openCOSMO-RS                            
  Christopher J. Cramer and Donald G. Truhlar   : smd solvation model                     
  S Lehtola, MJT Oliveira, MAL Marques          : LibXC Library                           
  Liviu Ungur et al                             : ANISO software                          


 Your calculation uses the libint2 library for the computation of 2-el integrals
 For citations please refer to: http://libint.valeyev.net

 Your ORCA version has been built with support for libXC version: 7.0.0
 For citations please refer to: https://libxc.gitlab.io

 This ORCA versions uses:
   CBLAS   interface :  Fast vector & matrix operations
   LAPACKE interface :  Fast linear algebra routines
   SCALAPACK package :  Parallel linear algebra routines
   Shared memory     :  Shared parallel matrices
   BLAS/LAPACK       :  OpenBLAS 0.3.29  USE64BITINT DYNAMIC_ARCH NO_AFFINITY Cooperlake SINGLE_THREADED
        Core in use  :  Cooperlake
   Copyright (c) 2011-2014, The OpenBLAS Project


  ***********************************
  * Starting time: Wed May 20 11:53:37 2026
  * Host name:     c1-24
  * Process ID:    2710402
  * Working dir.:  /cluster/projects/nn14654k/ylvaos/basis_set_n_funcs/functionals/gga_c_pw91/C4H6/out
  ***********************************

Using LibXC functional ID 134 : Perdew & Wang 91
[ 1]  J. P. Perdew. In P. Ziesche and H. Eschrig, editors, Proceedings of the 75. WE-Heraeus-Seminar and 21st Annual International Symposium on Electronic Structure of Solids, 11. Berlin, 1991. Akademie Verlag.
[ 2]  J. P. Perdew, J. A. Chevary, S. H. Vosko, K. A. Jackson, M. R. Pederson, D. J. Singh, and C. Fiolhais.,  Phys. Rev. B 46, 6671 (1992)
[ 3]  J. P. Perdew, J. A. Chevary, S. H. Vosko, K. A. Jackson, M. R. Pederson, D. J. Singh, and C. Fiolhais.,  Phys. Rev. B 48, 4978 (1993)
Using LibXC functional ID 134 : Perdew & Wang 91
[ 1]  J. P. Perdew. In P. Ziesche and H. Eschrig, editors, Proceedings of the 75. WE-Heraeus-Seminar and 21st Annual International Symposium on Electronic Structure of Solids, 11. Berlin, 1991. Akademie Verlag.
[ 2]  J. P. Perdew, J. A. Chevary, S. H. Vosko, K. A. Jackson, M. R. Pederson, D. J. Singh, and C. Fiolhais.,  Phys. Rev. B 46, 6671 (1992)
[ 3]  J. P. Perdew, J. A. Chevary, S. H. Vosko, K. A. Jackson, M. R. Pederson, D. J. Singh, and C. Fiolhais.,  Phys. Rev. B 48, 4978 (1993)
Your calculation utilizes LibXC
by S. Lehtola, C. Steigemann, M. J. T. Oliveira & M. A. L. Marques
Please cite in your paper:
Lehtola, S.; Steigemann, C.; Oliveira, M.J.T.; Marques, M. A. L. Software X, 7, (2018), 1.
   

================================================================================

----- Orbital basis set information -----
Your calculation utilizes the basis: def2-QZVP
   F. Weigend and R. Ahlrichs, Phys. Chem. Chem. Phys. 7, 3297 (2005).

================================================================================
                                        WARNINGS
                       Please study these warnings very carefully!
================================================================================


================================================================================
                                       INPUT FILE
================================================================================
NAME = /cluster/projects/nn14654k/ylvaos/basis_set_n_funcs/functionals/gga_c_pw91/C4H6/inp/C4H6_gga_c_pw91_def2qzvp.inp
|  1> ! dft def2-QZVP TightSCF
|  2> %pal nprocs 8 end
|  3> 
|  4> %loc
|  5>   LocMet NewBoys
|  6>   Occ true
|  7> end
|  8> 
|  9> %method
| 10>   exchange None
| 11>   correlation gga_c_pw91
| 12> end
| 13> 
| 14> %elprop
| 15>   Dipole true
| 16>   Quadrupole true
| 17> end
| 18> 
| 19> * xyz 0 1
| 20> C    0.000000000000   0.000000000000   1.632000000000
| 21> C    0.000000000000   0.000000000000   0.300000000000
| 22> C    0.000000000000   0.771000000000  -0.936300000000
| 23> C    0.000000000000  -0.771000000000  -0.936300000000
| 24> H    0.000000000000   0.914000000000   2.222200000000
| 25> H    0.000000000000  -0.914000000000   2.222200000000
| 26> H    0.912300000000   1.305900000000  -1.200300000000
| 27> H   -0.912300000000   1.305900000000  -1.200300000000
| 28> H   -0.912300000000  -1.305900000000  -1.200300000000
| 29> H    0.912300000000  -1.305900000000  -1.200300000000
| 30> *
| 31> 
| 32> 
| 33>                          ****END OF INPUT****
================================================================================

                       ****************************
                       * Single Point Calculation *
                       ****************************

---------------------------------
CARTESIAN COORDINATES (ANGSTROEM)
---------------------------------
  C      0.000000    0.000000    1.632000
  C      0.000000    0.000000    0.300000
  C      0.000000    0.771000   -0.936300
  C      0.000000   -0.771000   -0.936300
  H      0.000000    0.914000    2.222200
  H      0.000000   -0.914000    2.222200
  H      0.912300    1.305900   -1.200300
  H     -0.912300    1.305900   -1.200300
  H     -0.912300   -1.305900   -1.200300
  H      0.912300   -1.305900   -1.200300

----------------------------
CARTESIAN COORDINATES (A.U.)
----------------------------
  NO LB      ZA    FRAG     MASS         X           Y           Z
   0 C     6.0000    0    12.011    0.000000    0.000000    3.084033
   1 C     6.0000    0    12.011    0.000000    0.000000    0.566918
   2 C     6.0000    0    12.011    0.000000    1.456979   -1.769351
   3 C     6.0000    0    12.011    0.000000   -1.456979   -1.769351
   4 H     1.0000    0     1.008    0.000000    1.727210    4.199349
   5 H     1.0000    0     1.008    0.000000   -1.727210    4.199349
   6 H     1.0000    0     1.008    1.723997    2.467793   -2.268238
   7 H     1.0000    0     1.008   -1.723997    2.467793   -2.268238
   8 H     1.0000    0     1.008   -1.723997   -2.467793   -2.268238
   9 H     1.0000    0     1.008    1.723997   -2.467793   -2.268238

--------------------------------
INTERNAL COORDINATES (ANGSTROEM)
--------------------------------
 C      0   0   0     0.000000000000     0.00000000     0.00000000
 C      1   0   0     1.332000000000     0.00000000     0.00000000
 C      2   1   0     1.457010188708   148.05088964     0.00000000
 C      2   1   3     1.457010188708   148.05088964   180.00000000
 H      1   2   3     1.087994503663   122.85166680     0.00000000
 H      1   2   3     1.087994503663   122.85166680   180.00000000
 H      3   2   1     1.090002431190   117.72260444    70.99760541
 H      3   2   1     1.090002431190   117.72260444   289.00239459
 H      4   2   1     1.090002431190   117.72260444    70.99760541
 H      4   2   1     1.090002431190   117.72260444   289.00239459

---------------------------
INTERNAL COORDINATES (A.U.)
---------------------------
 C      0   0   0     0.000000000000     0.00000000     0.00000000
 C      1   0   0     2.517115210383     0.00000000     0.00000000
 C      2   1   0     2.753350230992   148.05088964     0.00000000
 C      2   1   3     2.753350230992   148.05088964   180.00000000
 H      1   2   3     2.056011647134   122.85166680     0.00000000
 H      1   2   3     2.056011647134   122.85166680   180.00000000
 H      3   2   1     2.059806080257   117.72260444    70.99760541
 H      3   2   1     2.059806080257   117.72260444   289.00239459
 H      4   2   1     2.059806080257   117.72260444    70.99760541
 H      4   2   1     2.059806080257   117.72260444   289.00239459

---------------------
BASIS SET INFORMATION
---------------------
There are 2 groups of distinct atoms

 Group   1 Type C   : 15s8p3d2f1g contracted to 7s4p3d2f1g pattern {8211111/5111/111/11/1}
 Group   2 Type H   : 7s3p2d1f contracted to 4s3p2d1f pattern {4111/111/11/1}

Atom   0C    basis set group =>   1
Atom   1C    basis set group =>   1
Atom   2C    basis set group =>   1
Atom   3C    basis set group =>   1
Atom   4H    basis set group =>   2
Atom   5H    basis set group =>   2
Atom   6H    basis set group =>   2
Atom   7H    basis set group =>   2
Atom   8H    basis set group =>   2
Atom   9H    basis set group =>   2


           ************************************************************
           *        Program running with 8 parallel MPI-processes     *
           *              working on a common directory               *
           ************************************************************
------------------------------------------------------------------------------
                             ORCA STARTUP CALCULATIONS
------------------------------------------------------------------------------
------------------------------------------------------------------------------
                   ___                                                        
                  /   \      - P O W E R E D   B Y -                         
                 /     \                                                     
                 |  |  |   _    _      __       _____    __    __             
                 |  |  |  | |  | |    /  \     |  _  \  |  |  /  |          
                  \  \/   | |  | |   /    \    | | | |  |  | /  /          
                 / \  \   | |__| |  /  /\  \   | |_| |  |  |/  /          
                |  |  |   |  __  | /  /__\  \  |    /   |      \           
                |  |  |   | |  | | |   __   |  |    \   |  |\   \          
                \     /   | |  | | |  |  |  |  | |\  \  |  | \   \       
                 \___/    |_|  |_| |__|  |__|  |_| \__\ |__|  \__/        
                                                                              
                      - O R C A' S   B I G   F R I E N D -                    
                                      &                                       
                       - I N T E G R A L  F E E D E R -                       
                                                                              
 v1 FN, 2020, v2 2021, v3 2022-2024                                           
------------------------------------------------------------------------------


----------------------
SHARK INTEGRAL PACKAGE
----------------------

Number of atoms                             ...     10
Number of basis functions                   ...    408
Number of shells                            ...    128
Maximum angular momentum                    ...      4
Integral batch strategy                     ... SHARK/LIBINT Hybrid
RI-J (if used) integral strategy            ... SPLIT-RIJ (Revised 2003 algorithm where possible)
Printlevel                                  ...      1
Contraction scheme used                     ... SEGMENTED contraction
Prescreening option                         ... SCHWARTZ
   Thresh                                   ... 2.500e-11
   Tcut                                     ... 2.500e-12
   Tpresel                                  ... 2.500e-12 
Coulomb Range Separation                    ... NOT USED
Exchange Range Separation                   ... NOT USED
Multipole approximations                    ... NOT USED
Finite Nucleus Model                        ... NOT USED
CABS basis                                  ... NOT available
Auxiliary Coulomb fitting basis             ... NOT available
Auxiliary J/K fitting basis                 ... NOT available
Auxiliary Correlation fitting basis         ... NOT available
Auxiliary 'external' fitting basis          ... NOT available

Checking pre-screening integrals            ... done (  0.0 sec) Dimension = 128
   => SHARK Basis and OBASIS are compatible. Storing Pre-screening
Shell pair information
Shell pair cut-off parameter TPreSel        ...   2.5e-12
Total number of shell pairs                 ...      8256
Shell pairs after pre-screening             ...      7738
Total number of primitive shell pairs       ...     19107
Primitive shell pairs kept                  ...     14829
          la=0 lb=0:   1246 shell pairs
          la=1 lb=0:   1660 shell pairs
          la=1 lb=1:    575 shell pairs
          la=2 lb=0:   1152 shell pairs
          la=2 lb=1:    770 shell pairs
          la=2 lb=2:    282 shell pairs
          la=3 lb=0:    672 shell pairs
          la=3 lb=1:    458 shell pairs
          la=3 lb=2:    316 shell pairs
          la=3 lb=3:    101 shell pairs
          la=4 lb=0:    208 shell pairs
          la=4 lb=1:    136 shell pairs
          la=4 lb=2:     96 shell pairs
          la=4 lb=3:     56 shell pairs
          la=4 lb=4:     10 shell pairs

Checking whether 4 symmetric matrices of dimension 408 fit in memory
:Max Core in MB      =   4096.00
 MB in use           =     12.97
 MB left             =   4083.03
 MB needed           =      2.55
 Data fit in memory  = YES
Calculating Nuclear repulsion               ... done (  0.0 sec) ENN=    109.249345578353 Eh

Diagonalization of the overlap matrix:
Smallest eigenvalue                        ... 5.265e-05
Time for diagonalization                   ...    0.011 sec
Threshold for overlap eigenvalues          ... 1.000e-07
Number of eigenvalues below threshold      ... 0
Time for construction of square roots      ...    0.007 sec
Total time needed                          ...    0.019 sec

-------------------
DFT GRID GENERATION
-------------------

General Integration Accuracy     IntAcc      ... 4.388
Radial Grid Type                 RadialGrid  ... OptM3 with GC (2021)
Angular Grid (max. ang.)         AngularGrid ... 4 (Lebedev-302)
Angular grid pruning method      GridPruning ... 4 (adaptive)
Weight generation scheme         WeightScheme... mBecke (2022)
Basis function cutoff            BFCut       ... 1.0000e-11
Integration weight cutoff        WCut        ... 1.0000e-14
Partially contracted basis set               ... off
Rotationally invariant grid construction     ... off
Angular grids for H and He will be reduced by one unit
Diffuse basis detected: some atoms will have their outermost
                        angular grid increased by 1.

Total number of grid points                  ...    44804
Total number of batches                      ...      705
Average number of points per batch           ...       63
Average number of grid points per atom       ...     4480
Grids setup in   0.1 sec
Initializing property integral containers    ... done (  0.0 sec)

SHARK setup successfully completed in   0.3 seconds

Maximum memory used throughout the entire STARTUP-calculation: 26.1 MB


           ************************************************************
           *        Program running with 8 parallel MPI-processes     *
           *              working on a common directory               *
           ************************************************************
-------------------------------------------------------------------------------
                                 ORCA GUESS
                   Start orbitals & Density for SCF / CASSCF
-------------------------------------------------------------------------------

------------
SCF SETTINGS
------------
Hamiltonian:
 Density Functional     Method          .... DFT(GTOs)
 Exchange Functional    Exchange        .... no Exchange
  Functional kind                       .... Correlation
  Functional name                       .... Perdew & Wang 91
  Functional family                     .... GGA
  Functional refs                              
    [ 0] J. P. Perdew. In P. Ziesche and H. Eschrig, editors, Proceedings of the 75. WE-Heraeus-Seminar and 21st Annual International Symposium on Electronic Structure of Solids, 11. Berlin, 1991. Akademie Verlag.
    [ 1] J. P. Perdew, J. A. Chevary, S. H. Vosko, K. A. Jackson, M. R. Pederson, D. J. Singh, and C. Fiolhais.,  Phys. Rev. B 46, 6671 (1992), doi: 10.1103/PhysRevB.46.6671
    [ 2] J. P. Perdew, J. A. Chevary, S. H. Vosko, K. A. Jackson, M. R. Pederson, D. J. Singh, and C. Fiolhais.,  Phys. Rev. B 48, 4978 (1993), doi: 10.1103/PhysRevB.48.4978.2
  Functional external parameters        .... 0
 Gradients option       PostSCFGGA      .... off


General Settings:
 Integral files         IntName         .... /cluster/projects/nn14654k/ylvaos/basis_set_n_funcs/functionals/gga_c_pw91/C4H6/inp/C4H6_gga_c_pw91_def2qzvp
 Hartree-Fock type      HFTyp           .... RHF
 Total Charge           Charge          ....    0
 Multiplicity           Mult            ....    1
 Number of Electrons    NEL             ....   30
 Basis Dimension        Dim             ....  408
 Nuclear Repulsion      ENuc            ....    109.2493455784 Eh

Convergence Acceleration:
 AO-DIIS                CNVDIIS         .... on
   Start iteration      DIISMaxIt       ....    12
   Startup error        DIISStart       ....  0.200000
   # of expansion vecs  DIISMaxEq       ....     5
   Bias factor          DIISBfac        ....   1.050
   Max. coefficient     DIISMaxC        ....  10.000
 MO-DIIS                CNVKDIIS        .... off
 Trust-Rad. Augm. Hess. CNVTRAH         .... auto
   Auto Start mean grad. ratio tolernc. ....  1.125000
   Auto Start start iteration           ....    50
   Auto Start num. interpolation iter.  ....    10
   Max. Number of Micro iterations      ....    24
   Max. Number of Macro iterations      .... Maxiter - #DIIS iter
   Number of Davidson start vectors     ....     2
   Converg. threshold    (grad. norm)   ....   1.000e-05
   Grad. Scal. Fac. for Micro threshold ....   0.100
   Minimum threshold for Micro iter.    ....   1.000e-02
   NR start threshold (gradient norm)   ....   1.000e-04
   Initial trust radius                 ....   0.400
   Minimum AH scaling param. (alpha)    ....   1.000
   Maximum AH scaling param. (alpha)    .... 1000.000
   Quad. conv. algorithm                .... NR
   White noise on init. David. guess    .... on
   Maximum white noise                  ....   0.010
   Pseudo random numbers                .... off
   Inactive MOs                         .... canonical
   Orbital update algorithm             .... Taylor
   Preconditioner                       .... Diag
   Full preconditioner red. dimension   ....   250
 SOSCF                 CNVSOSCF           .... on
   Start iteration     SOSCFMaxIt         ....   150
   Startup grad/error  SOSCFStart         ....  0.003300
   Hessian update      SOSCFHessUp        .... L-BFGS
   Autom. constraints  SOSCFAutoConstrain .... off
 Level Shifting         CNVShift        .... on
   Level shift para.    LevelShift      ....    0.2500
   Turn off err/grad.   ShiftErr        ....    0.0010
 Zerner damping         CNVZerner       .... off
 Static damping         CNVDamp         .... on
   Fraction old density DampFac         ....    0.7000
   Max. Damping (<1)    DampMax         ....    0.9800
   Min. Damping (>=0)   DampMin         ....    0.0000
   Turn off err/grad.   DampErr         ....    0.1000

SCF Procedure:
 Maximum # iterations   MaxIter         ....   125
 SCF integral mode      SCFMode         .... Direct
   Integral package                     .... SHARK and LIBINT hybrid scheme
 Reset frequency        DirectResetFreq ....    20
 Integral Threshold     Thresh          ....  2.500e-11 Eh
 Primitive CutOff       TCut            ....  2.500e-12 Eh

Convergence Tolerance:
 Convergence Check Mode ConvCheckMode   .... Total+1el-Energy
 Convergence forced     ConvForced      .... 0
 Energy Change          TolE            ....  1.000e-08 Eh
 1-El. energy change                    ....  1.000e-05 Eh
 Orbital Gradient       TolG            ....  1.000e-05
 Orbital Rotation angle TolX            ....  1.000e-05
 DIIS Error             TolErr          ....  5.000e-07

------------------------------
INITIAL GUESS: MODEL POTENTIAL
------------------------------
Loading Hartree-Fock densities                     ... done
Calculating cut-offs                               ... done
Initializing the effective Hamiltonian             ... done
Setting up the integral package (SHARK)            ... done
Starting the Coulomb interaction                   ... done (   0.0 sec)
Making the grid                                    ... done (   0.0 sec)
Mapping shells                                     ... done
Starting the XC term evaluation                    ... done (   0.0 sec)
  promolecular density results
     # of electrons  =     29.996285088
     EX              =      0.000000000
     EC              =     -1.018168343
     EX+EC           =     -1.018168343
Transforming the Hamiltonian                       ... done (   0.0 sec)
Diagonalizing the Hamiltonian                      ... done (   0.0 sec)
Back transforming the eigenvectors                 ... done (   0.0 sec)
Now organizing SCF variables                       ... done
                      ------------------
                      INITIAL GUESS DONE (   0.1 sec)
                      ------------------
             **** ENERGY FILE WAS UPDATED (/cluster/projects/nn14654k/ylvaos/basis_set_n_funcs/functionals/gga_c_pw91/C4H6/inp/C4H6_gga_c_pw91_def2qzvp.en.tmp) ****
Finished Guess after   0.2 sec
Maximum memory used throughout the entire GUESS-calculation: 24.0 MB


           ************************************************************
           *        Program running with 8 parallel MPI-processes     *
           *              working on a common directory               *
           ************************************************************

-------------------------------------------------------------------------------------------
                                      ORCA LEAN-SCF
                              memory conserving SCF solver
-------------------------------------------------------------------------------------------

----------------------------------------D-I-I-S--------------------------------------------
Iteration    Energy (Eh)           Delta-E    RMSDP     MaxDP     DIISErr   Damp  Time(sec)
-------------------------------------------------------------------------------------------
               ***  Starting incremental Fock matrix formation  ***
    1    -133.3955910911204796     0.00e+00  1.08e-01  4.48e+00  3.60e-01  0.700   4.9
    2    -133.7237393334240778    -3.28e-01  8.62e-02  3.57e+00  1.69e-01  0.700   4.8
                               ***Turning on AO-DIIS***
    3    -133.7968564500499724    -7.31e-02  6.18e-02  2.55e+00  1.01e-01  0.700   4.8
    4    -133.8367371153964882    -3.99e-02  4.25e-02  1.76e+00  6.29e-02  0.700   4.7
    5    -133.8722006762936303    -3.55e-02  9.24e-02  3.85e+00  5.91e-02  0.000   4.6
    6    -133.9685001964823527    -9.63e-02  7.71e-03  2.74e-01  2.91e-02  0.000   4.7
    7    -133.9713750984784610    -2.87e-03  5.37e-03  1.99e-01  1.20e-02  0.000   4.6
                              *** Initializing SOSCF ***
---------------------------------------S-O-S-C-F--------------------------------------
Iteration    Energy (Eh)           Delta-E    RMSDP     MaxDP     MaxGrad    Time(sec)
--------------------------------------------------------------------------------------
    8    -133.9717770576747284    -4.02e-04  3.09e-03  1.18e-01  3.07e-03     4.5
               *** Restarting incremental Fock matrix formation ***
    9    -133.9718117723269302    -3.47e-05  3.52e-03  1.47e-01  6.33e-04     4.8
   10    -133.9718063957162713     5.38e-06  1.93e-03  7.88e-02  1.06e-03     4.3
   11    -133.9718232676198681    -1.69e-05  1.89e-03  7.78e-02  3.02e-04     4.2
   12    -133.9718221518973564     1.12e-06  3.15e-04  1.31e-02  4.57e-04     4.2
   13    -133.9718248244994925    -2.67e-06  1.19e-03  4.89e-02  1.70e-04     4.0
   14    -133.9718250062153970    -1.82e-07  2.63e-04  1.06e-02  1.40e-04     4.1
   15    -133.9718252469513118    -2.41e-07  4.62e-04  1.92e-02  7.23e-05     3.8
   16    -133.9718253122007354    -6.52e-08  2.68e-04  1.11e-02  4.60e-05     4.0
   17    -133.9718253796798990    -6.75e-08  7.59e-06  3.06e-04  5.66e-06     3.8
   18    -133.9718253813034607    -1.62e-09  1.35e-05  5.55e-04  3.70e-06     3.2
                 **** Energy Check signals convergence ****

               *****************************************************
               *                     SUCCESS                       *
               *           SCF CONVERGED AFTER  18 CYCLES          *
               *****************************************************

             **** ENERGY FILE WAS UPDATED (/cluster/projects/nn14654k/ylvaos/basis_set_n_funcs/functionals/gga_c_pw91/C4H6/inp/C4H6_gga_c_pw91_def2qzvp.en.tmp) ****

----------------
TOTAL SCF ENERGY
----------------

Total Energy       :       -133.97182538113123 Eh           -3645.55871 eV

Components:
Nuclear Repulsion  :        109.24934557835338 Eh            2972.82583 eV
Electronic Energy  :       -243.22117095948460 Eh           -6618.38453 eV
One Electron Energy:       -414.82155716937342 Eh          -11287.86843 eV
Two Electron Energy:        171.60038620988882 Eh            4669.48390 eV

Virial components:
Potential Energy   :       -271.89245396637494 Eh           -7398.56981 eV
Kinetic Energy     :        137.92062858524372 Eh            3753.01110 eV
Virial Ratio       :          1.97136901676987

DFT components:
N(Alpha)           :       14.999927591575 electrons
N(Beta)            :       14.999927591575 electrons
N(Total)           :       29.999855183150 electrons
E(X)               :        0.000000000000 Eh       
E(C)               :       -1.005634193450 Eh       
E(XC)              :       -1.005634193450 Eh       

---------------
SCF CONVERGENCE
---------------

  Last Energy change         ...    1.6236e-09  Tolerance :   1.0000e-08
  Last MAX-Density change    ...    5.5524e-04  Tolerance :   1.0000e-07
  Last RMS-Density change    ...    1.3517e-05  Tolerance :   5.0000e-09
  Last DIIS Error            ...    3.0706e-03  Tolerance :   5.0000e-07
  Last Orbital Gradient      ...    3.7042e-06  Tolerance :   1.0000e-05
  Last Orbital Rotation      ...    1.2265e-05  Tolerance :   1.0000e-05


----------------
ORBITAL ENERGIES
----------------

  NO   OCC          E(Eh)            E(eV) 
   0   2.0000      -8.369045      -227.7333 
   1   2.0000      -8.367288      -227.6855 
   2   2.0000      -8.367113      -227.6807 
   3   2.0000      -8.346990      -227.1331 
   4   2.0000      -0.528519       -14.3817 
   5   2.0000      -0.363501        -9.8914 
   6   2.0000      -0.279561        -7.6073 
   7   2.0000      -0.214943        -5.8489 
   8   2.0000      -0.201963        -5.4957 
   9   2.0000      -0.157406        -4.2832 
  10   2.0000      -0.129068        -3.5121 
  11   2.0000      -0.069151        -1.8817 
  12   2.0000      -0.049226        -1.3395 
  13   2.0000      -0.017215        -0.4684 
  14   2.0000      -0.009893        -0.2692 
  15   0.0000       0.106295         2.8924 
  16   0.0000       0.120094         3.2679 
  17   0.0000       0.124307         3.3826 
  18   0.0000       0.135651         3.6912 
  19   0.0000       0.157977         4.2988 
  20   0.0000       0.170895         4.6503 
  21   0.0000       0.182609         4.9690 
  22   0.0000       0.183744         4.9999 
  23   0.0000       0.189419         5.1543 
  24   0.0000       0.220665         6.0046 
  25   0.0000       0.232030         6.3138 
*Only the first 10 virtual orbitals were printed.

                    ********************************
                    * MULLIKEN POPULATION ANALYSIS *
                    ********************************

-----------------------
MULLIKEN ATOMIC CHARGES
-----------------------
   0 C :   -0.253136
   1 C :   -0.036994
   2 C :   -0.800365
   3 C :   -0.800371
   4 H :    0.208664
   5 H :    0.208671
   6 H :    0.368382
   7 H :    0.368379
   8 H :    0.368384
   9 H :    0.368386
Sum of atomic charges:   -0.0000000

--------------------------------
MULLIKEN REDUCED ORBITAL CHARGES
--------------------------------
  0 C s       :     2.941347  s :     2.941347
      pz      :     1.216585  p :     3.191042
      px      :     1.004130
      py      :     0.970328
      dz2     :     0.005169  d :     0.116965
      dxz     :     0.001022
      dyz     :     0.104910
      dx2y2   :     0.005207
      dxy     :     0.000657
      f0      :    -0.000123  f :     0.003071
      f+1     :     0.000097
      f-1     :     0.000489
      f+2     :     0.000973
      f-2     :     0.000104
      f+3     :     0.000054
      f-3     :     0.001477
      g0      :     0.000204  g :     0.000710
      g+1     :     0.000089
      g-1     :     0.000189
      g+2     :     0.000041
      g-2     :    -0.000000
      g+3     :    -0.000001
      g-3     :     0.000171
      g+4     :     0.000017
      g-4     :    -0.000000

  1 C s       :     3.010382  s :     3.010382
      pz      :     0.927983  p :     2.845806
      px      :     0.957211
      py      :     0.960612
      dz2     :     0.063732  d :     0.171815
      dxz     :     0.064636
      dyz     :     0.035692
      dx2y2   :     0.006577
      dxy     :     0.001178
      f0      :     0.002146  f :     0.008472
      f+1     :     0.002809
      f-1     :     0.002867
      f+2     :    -0.000582
      f-2     :     0.001052
      f+3     :     0.000122
      f-3     :     0.000058
      g0      :     0.000189  g :     0.000518
      g+1     :     0.000167
      g-1     :     0.000082
      g+2     :     0.000006
      g-2     :     0.000045
      g+3     :     0.000029
      g-3     :    -0.000003
      g+4     :     0.000001
      g-4     :     0.000003

  2 C s       :     3.036675  s :     3.036675
      pz      :     1.230903  p :     3.642947
      px      :     1.374591
      py      :     1.037454
      dz2     :     0.019577  d :     0.111302
      dxz     :     0.024503
      dyz     :     0.004830
      dx2y2   :     0.010640
      dxy     :     0.051752
      f0      :     0.001322  f :     0.008579
      f+1     :     0.002083
      f-1     :     0.001491
      f+2     :     0.000247
      f-2     :     0.002519
      f+3     :     0.000919
      f-3     :    -0.000003
      g0      :     0.000031  g :     0.000862
      g+1     :     0.000081
      g-1     :     0.000137
      g+2     :     0.000036
      g-2     :     0.000084
      g+3     :     0.000032
      g-3     :     0.000128
      g+4     :     0.000129
      g-4     :     0.000203

  3 C s       :     3.036680  s :     3.036680
      pz      :     1.230894  p :     3.642946
      px      :     1.374591
      py      :     1.037461
      dz2     :     0.019576  d :     0.111304
      dxz     :     0.024503
      dyz     :     0.004833
      dx2y2   :     0.010640
      dxy     :     0.051752
      f0      :     0.001322  f :     0.008579
      f+1     :     0.002083
      f-1     :     0.001491
      f+2     :     0.000248
      f-2     :     0.002519
      f+3     :     0.000919
      f-3     :    -0.000003
      g0      :     0.000031  g :     0.000862
      g+1     :     0.000081
      g-1     :     0.000137
      g+2     :     0.000036
      g-2     :     0.000084
      g+3     :     0.000032
      g-3     :     0.000128
      g+4     :     0.000129
      g-4     :     0.000203

  4 H s       :     0.763690  s :     0.763690
      pz      :     0.002681  p :     0.026937
      px      :     0.013098
      py      :     0.011158
      dz2     :     0.000311  d :     0.000742
      dxz     :     0.000303
      dyz     :    -0.000673
      dx2y2   :     0.000262
      dxy     :     0.000539
      f0      :    -0.000007  f :    -0.000033
      f+1     :    -0.000001
      f-1     :    -0.000002
      f+2     :    -0.000024
      f-2     :    -0.000008
      f+3     :     0.000014
      f-3     :    -0.000004

  5 H s       :     0.763683  s :     0.763683
      pz      :     0.002682  p :     0.026937
      px      :     0.013098
      py      :     0.011158
      dz2     :     0.000311  d :     0.000742
      dxz     :     0.000303
      dyz     :    -0.000673
      dx2y2   :     0.000262
      dxy     :     0.000539
      f0      :    -0.000007  f :    -0.000033
      f+1     :    -0.000001
      f-1     :    -0.000002
      f+2     :    -0.000024
      f-2     :    -0.000008
      f+3     :     0.000014
      f-3     :    -0.000004

  6 H s       :     0.606150  s :     0.606150
      pz      :     0.006654  p :     0.025176
      px      :     0.010399
      py      :     0.008123
      dz2     :     0.000456  d :     0.000333
      dxz     :    -0.000291
      dyz     :    -0.000078
      dx2y2   :     0.000555
      dxy     :    -0.000310
      f0      :    -0.000012  f :    -0.000041
      f+1     :     0.000001
      f-1     :     0.000008
      f+2     :    -0.000002
      f-2     :    -0.000021
      f+3     :     0.000006
      f-3     :    -0.000022

  7 H s       :     0.606153  s :     0.606153
      pz      :     0.006654  p :     0.025176
      px      :     0.010399
      py      :     0.008123
      dz2     :     0.000456  d :     0.000333
      dxz     :    -0.000291
      dyz     :    -0.000078
      dx2y2   :     0.000555
      dxy     :    -0.000310
      f0      :    -0.000012  f :    -0.000041
      f+1     :     0.000001
      f-1     :     0.000008
      f+2     :    -0.000002
      f-2     :    -0.000021
      f+3     :     0.000006
      f-3     :    -0.000022

  8 H s       :     0.606148  s :     0.606148
      pz      :     0.006654  p :     0.025175
      px      :     0.010399
      py      :     0.008123
      dz2     :     0.000456  d :     0.000333
      dxz     :    -0.000291
      dyz     :    -0.000078
      dx2y2   :     0.000555
      dxy     :    -0.000309
      f0      :    -0.000012  f :    -0.000041
      f+1     :     0.000001
      f-1     :     0.000008
      f+2     :    -0.000002
      f-2     :    -0.000021
      f+3     :     0.000006
      f-3     :    -0.000022

  9 H s       :     0.606146  s :     0.606146
      pz      :     0.006654  p :     0.025176
      px      :     0.010399
      py      :     0.008123
      dz2     :     0.000456  d :     0.000333
      dxz     :    -0.000291
      dyz     :    -0.000078
      dx2y2   :     0.000555
      dxy     :    -0.000309
      f0      :    -0.000012  f :    -0.000041
      f+1     :     0.000001
      f-1     :     0.000008
      f+2     :    -0.000002
      f-2     :    -0.000021
      f+3     :     0.000006
      f-3     :    -0.000022



                     *******************************
                     * LOEWDIN POPULATION ANALYSIS *
                     *******************************

----------------------
LOEWDIN ATOMIC CHARGES
----------------------
   0 C :    0.179533
   1 C :   -0.080971
   2 C :    0.194095
   3 C :    0.194095
   4 H :   -0.101006
   5 H :   -0.101006
   6 H :   -0.071185
   7 H :   -0.071185
   8 H :   -0.071185
   9 H :   -0.071185

-------------------------------
LOEWDIN REDUCED ORBITAL CHARGES
-------------------------------
  0 C s       :     2.594627  s :     2.594627
      pz      :     1.033125  p :     2.885130
      px      :     0.879671
      py      :     0.972335
      dz2     :     0.061708  d :     0.283479
      dxz     :     0.036034
      dyz     :     0.170872
      dx2y2   :     0.013920
      dxy     :     0.000944
      f0      :     0.012605  f :     0.050407
      f+1     :     0.009424
      f-1     :     0.023884
      f+2     :     0.002459
      f-2     :     0.000223
      f+3     :     0.000848
      f-3     :     0.000963
      g0      :     0.002389  g :     0.006824
      g+1     :     0.001234
      g-1     :     0.002517
      g+2     :     0.000081
      g-2     :     0.000007
      g+3     :     0.000181
      g-3     :     0.000248
      g+4     :     0.000168
      g-4     :     0.000000

  1 C s       :     2.563167  s :     2.563167
      pz      :     1.069059  p :     2.699193
      px      :     0.752233
      py      :     0.877902
      dz2     :     0.191995  d :     0.684707
      dxz     :     0.179105
      dyz     :     0.215071
      dx2y2   :     0.034953
      dxy     :     0.063583
      f0      :     0.042973  f :     0.119090
      f+1     :     0.011723
      f-1     :     0.028479
      f+2     :     0.011718
      f-2     :     0.020985
      f+3     :     0.002789
      f-3     :     0.000422
      g0      :     0.005114  g :     0.014813
      g+1     :     0.002143
      g-1     :     0.003732
      g+2     :     0.001138
      g-2     :     0.001706
      g+3     :     0.000662
      g-3     :     0.000215
      g+4     :     0.000049
      g-4     :     0.000053

  2 C s       :     2.512167  s :     2.512167
      pz      :     0.917191  p :     2.748094
      px      :     0.948971
      py      :     0.881932
      dz2     :     0.079698  d :     0.448819
      dxz     :     0.059721
      dyz     :     0.116975
      dx2y2   :     0.060252
      dxy     :     0.132173
      f0      :     0.023992  f :     0.090297
      f+1     :     0.007596
      f-1     :     0.007985
      f+2     :     0.021071
      f-2     :     0.006889
      f+3     :     0.013937
      f-3     :     0.008827
      g0      :     0.000798  g :     0.006528
      g+1     :     0.000283
      g-1     :     0.001917
      g+2     :     0.000633
      g-2     :     0.000644
      g+3     :     0.000218
      g-3     :     0.001119
      g+4     :     0.000183
      g-4     :     0.000732

  3 C s       :     2.512167  s :     2.512167
      pz      :     0.917191  p :     2.748094
      px      :     0.948971
      py      :     0.881932
      dz2     :     0.079698  d :     0.448819
      dxz     :     0.059721
      dyz     :     0.116975
      dx2y2   :     0.060252
      dxy     :     0.132173
      f0      :     0.023992  f :     0.090297
      f+1     :     0.007596
      f-1     :     0.007985
      f+2     :     0.021071
      f-2     :     0.006889
      f+3     :     0.013937
      f-3     :     0.008827
      g0      :     0.000798  g :     0.006528
      g+1     :     0.000283
      g-1     :     0.001917
      g+2     :     0.000633
      g-2     :     0.000644
      g+3     :     0.000218
      g-3     :     0.001119
      g+4     :     0.000183
      g-4     :     0.000732

  4 H s       :     0.832499  s :     0.832499
      pz      :     0.066328  p :     0.206932
      px      :     0.063567
      py      :     0.077036
      dz2     :     0.014248  d :     0.053572
      dxz     :     0.005658
      dyz     :     0.013840
      dx2y2   :     0.009791
      dxy     :     0.010034
      f0      :     0.000801  f :     0.008003
      f+1     :     0.000063
      f-1     :     0.002492
      f+2     :     0.001679
      f-2     :     0.001127
      f+3     :     0.000822
      f-3     :     0.001020

  5 H s       :     0.832499  s :     0.832499
      pz      :     0.066328  p :     0.206932
      px      :     0.063567
      py      :     0.077036
      dz2     :     0.014248  d :     0.053572
      dxz     :     0.005658
      dyz     :     0.013840
      dx2y2   :     0.009791
      dxy     :     0.010034
      f0      :     0.000801  f :     0.008003
      f+1     :     0.000063
      f-1     :     0.002492
      f+2     :     0.001679
      f-2     :     0.001127
      f+3     :     0.000822
      f-3     :     0.001020

  6 H s       :     0.800742  s :     0.800742
      pz      :     0.075101  p :     0.205802
      px      :     0.071359
      py      :     0.059342
      dz2     :     0.007447  d :     0.056290
      dxz     :     0.013296
      dyz     :     0.006301
      dx2y2   :     0.016696
      dxy     :     0.012548
      f0      :     0.000741  f :     0.008352
      f+1     :     0.001257
      f-1     :     0.000579
      f+2     :     0.000562
      f-2     :     0.001392
      f+3     :     0.002125
      f-3     :     0.001696

  7 H s       :     0.800742  s :     0.800742
      pz      :     0.075101  p :     0.205802
      px      :     0.071359
      py      :     0.059342
      dz2     :     0.007447  d :     0.056289
      dxz     :     0.013296
      dyz     :     0.006301
      dx2y2   :     0.016696
      dxy     :     0.012548
      f0      :     0.000741  f :     0.008352
      f+1     :     0.001257
      f-1     :     0.000579
      f+2     :     0.000562
      f-2     :     0.001392
      f+3     :     0.002125
      f-3     :     0.001696

  8 H s       :     0.800742  s :     0.800742
      pz      :     0.075101  p :     0.205802
      px      :     0.071359
      py      :     0.059342
      dz2     :     0.007447  d :     0.056290
      dxz     :     0.013296
      dyz     :     0.006301
      dx2y2   :     0.016696
      dxy     :     0.012548
      f0      :     0.000741  f :     0.008352
      f+1     :     0.001257
      f-1     :     0.000579
      f+2     :     0.000562
      f-2     :     0.001392
      f+3     :     0.002125
      f-3     :     0.001696

  9 H s       :     0.800742  s :     0.800742
      pz      :     0.075101  p :     0.205802
      px      :     0.071359
      py      :     0.059342
      dz2     :     0.007447  d :     0.056290
      dxz     :     0.013296
      dyz     :     0.006301
      dx2y2   :     0.016696
      dxy     :     0.012548
      f0      :     0.000741  f :     0.008352
      f+1     :     0.001257
      f-1     :     0.000579
      f+2     :     0.000562
      f-2     :     0.001392
      f+3     :     0.002125
      f-3     :     0.001696



                      *****************************
                      * MAYER POPULATION ANALYSIS *
                      *****************************

  NA   - Mulliken gross atomic population
  ZA   - Total nuclear charge
  QA   - Mulliken gross atomic charge
  VA   - Mayer's total valence
  BVA  - Mayer's bonded valence
  FA   - Mayer's free valence

  ATOM       NA         ZA         QA         VA         BVA        FA
  0 C      6.2531     6.0000    -0.2531     4.0049     4.0049    -0.0000
  1 C      6.0370     6.0000    -0.0370     4.8914     4.8914    -0.0000
  2 C      6.8004     6.0000    -0.8004     3.7312     3.7312     0.0000
  3 C      6.8004     6.0000    -0.8004     3.7312     3.7312    -0.0000
  4 H      0.7913     1.0000     0.2087     0.8855     0.8855     0.0000
  5 H      0.7913     1.0000     0.2087     0.8855     0.8855    -0.0000
  6 H      0.6316     1.0000     0.3684     0.8534     0.8534     0.0000
  7 H      0.6316     1.0000     0.3684     0.8534     0.8534     0.0000
  8 H      0.6316     1.0000     0.3684     0.8534     0.8534    -0.0000
  9 H      0.6316     1.0000     0.3684     0.8534     0.8534     0.0000

  Mayer bond orders larger than 0.100000
B(  0-C ,  1-C ) :   2.4460 B(  0-C ,  4-H ) :   0.8164 B(  0-C ,  5-H ) :   0.8164 
B(  1-C ,  2-C ) :   1.1272 B(  1-C ,  3-C ) :   1.1272 B(  2-C ,  3-C ) :   0.9374 
B(  2-C ,  6-H ) :   0.8161 B(  2-C ,  7-H ) :   0.8161 B(  3-C ,  8-H ) :   0.8161 
B(  3-C ,  9-H ) :   0.8161 

-------
TIMINGS
-------

Total SCF time: 0 days 0 hours 1 min 21 sec 

Total time                  ....      81.290 sec
Sum of individual times     ....      78.208 sec  ( 96.2%)

SCF preparation             ....       0.095 sec  (  0.1%)
Fock matrix formation       ....      77.157 sec  ( 94.9%)
  Startup                   ....       0.015 sec  (  0.0% of F)
  Coulomb formation         ....      77.927 sec  (101.0% of F)
  XC integration            ....       1.998 sec  (  2.6% of F)
    XC Preparation          ....       0.000 sec  (  0.0% of XC)
    Basis function eval.    ....       0.285 sec  ( 14.3% of XC)
    Density eval.           ....       0.405 sec  ( 20.3% of XC)
    XC-Functional eval.     ....       0.044 sec  (  2.2% of XC)
    XC-Potential eval.      ....       0.861 sec  ( 43.1% of XC)
Diagonalization             ....       0.000 sec  (  0.0%)
Density matrix formation    ....       0.108 sec  (  0.1%)
Total Energy calculation    ....       0.046 sec  (  0.1%)
Population analysis         ....       0.027 sec  (  0.0%)
Orbital Transformation      ....       0.059 sec  (  0.1%)
Orbital Orthonormalization  ....       0.000 sec  (  0.0%)
DIIS solution               ....       0.392 sec  (  0.5%)
SOSCF solution              ....       0.324 sec  (  0.4%)
Finished LeanSCF after  81.3 sec

Maximum memory used throughout the entire LEANSCF-calculation: 39.2 MB


           ************************************************************
           *        Program running with 8 parallel MPI-processes     *
           *              working on a common directory               *
           ************************************************************

------------------------------------------------------------------------------
                         ORCA PROPERTY INTEGRAL CALCULATIONS
------------------------------------------------------------------------------

GBWName                                   ... /cluster/projects/nn14654k/ylvaos/basis_set_n_funcs/functionals/gga_c_pw91/C4H6/inp/C4H6_gga_c_pw91_def2qzvp.gbw
Number of atoms                           ...     10
Number of basis functions                 ...    408
Max core memory                           ...   4096 MB

Dipole integrals                          ... YES
Quadrupole integrals                      ... YES
Linear momentum integrals                 ...  NO
Angular momentum integrals                ...  NO
Higher moments length integrals           ...  NO
Higher moments velocity integrals         ...  NO
Kinetic energy integrals                  ...  NO
GIAO right hand sides                     ...  NO
GIAO dipole derivative integrals          ...  NO
SOC integrals                             ...  NO
EPR diamagnetic integrals (GIAO)          ...  NO
EPR gauge integrals                       ...  NO
Field gradient integrals                  ...  NO (   0 nuclei)
Spin-dipole/Fermi contact integrals       ...  NO (   0 nuclei)
Contact density integrals                 ...  NO (   0 nuclei)
Nucleus-orbit integrals                   ...  NO (   0 nuclei)
Geometric perturbations                   ...  NO (  10 nuclei)

Choice of electric origin   ... Center of mass
Position of electric origin ... (  0.0000,  0.0000,  0.0124) 
Choice of magnetic origin   ... GIAO
Position of magnetic origin ... (  0.0000,  0.0000,  0.0000) 

Calculating integrals                     ... Electric Dipole (Length)     done (  0.0 sec)
Calculating integrals                     ... Electric Quadrupole (Length) done (  0.0 sec)

Property integrals calculated in   0.0 sec

Maximum memory used throughout the entire PROPINT-calculation: 27.1 MB
------------------------------------------------------------------------------
                           ORCA ORBITAL LOCALIZATION
------------------------------------------------------------------------------

Input orbitals are from                  ... /cluster/projects/nn14654k/ylvaos/basis_set_n_funcs/functionals/gga_c_pw91/C4H6/inp/C4H6_gga_c_pw91_def2qzvp.gbw
Output orbitals are to                   ... /cluster/projects/nn14654k/ylvaos/basis_set_n_funcs/functionals/gga_c_pw91/C4H6/inp/C4H6_gga_c_pw91_def2qzvp.loc
Max. number of iterations                ... 128
Localizations seeded randomly            ... on
Convergence tolerance                    ... 1.000e-06
Threshold for strong local MOs           ... 9.500e-01
Threshold for bond MOs                   ... 8.500e-01
Operator                                 ... 0
Orbital range for localization           ... 4 to 14
Localization criterion                   ... NEW-BOYS
Doing the dipole integrals               ... o.k.
Initial value of the localization sum :    46.757042
ITERATION   0 : L=   78.4039041296 DL=  3.16e+01 (AVERGE_DL)=    0.7585495929 
ITERATION   1 : L=   87.5513334385 DL=  9.15e+00 (AVERGE_DL)=    0.4078196863 
ITERATION   2 : L=   89.2451252867 DL=  1.69e+00 (AVERGE_DL)=    0.1754885051 
ITERATION   3 : L=   89.2639009324 DL=  1.88e-02 (AVERGE_DL)=    0.0184763464 
ITERATION   4 : L=   89.2641312730 DL=  2.30e-04 (AVERGE_DL)=    0.0020464629 
ITERATION   5 : L=   89.2641344982 DL=  3.23e-06 (AVERGE_DL)=    0.0002421564 
ITERATION   6 : L=   89.2641345353 DL=  3.71e-08 (AVERGE_DL)=    0.0000259781 
LOCALIZATION SUM CONVERGED


--------------------------------------------------------------------------------
                    LOCALIZED MOLECULAR ORBITAL COMPOSITIONS
--------------------------------------------------------------------------------

The Mulliken populations for each LMO on each atom are computed
The LMO`s will be ordered according to atom index and type
  (A) Strongly localized MO`s have populations of >=0.950 on one atom
  (B) Two center bond orbitals have populations of >=0.850 on two atoms
  (C) Other MO`s are considered to be `delocalized`

FOUND  -   0 strongly local MO`s
       -  11 two center bond MO`s
       -   0 significantly delocalized MO`s

Bond-like localized orbitals:
MO  14:   9H  -   0.327957  and   3C  -   0.640928
MO  13:   8H  -   0.327958  and   3C  -   0.640925
MO  12:   7H  -   0.327960  and   2C  -   0.640920
MO  11:   6H  -   0.327959  and   2C  -   0.640923
MO  10:   5H  -   0.447702  and   0C  -   0.498648
MO   9:   4H  -   0.447706  and   0C  -   0.498649
MO   8:   3C  -   0.464888  and   2C  -   0.464888
MO   7:   3C  -   0.822672  and   1C  -   0.375143
MO   6:   2C  -   0.822684  and   1C  -   0.375127
MO   5:   1C  -   0.465561  and   0C  -   0.577434
MO   4:   1C  -   0.465565  and   0C  -   0.577427
Localized MO's were stored in: /cluster/projects/nn14654k/ylvaos/basis_set_n_funcs/functionals/gga_c_pw91/C4H6/inp/C4H6_gga_c_pw91_def2qzvp.loc

-------------------------   --------------------
FINAL SINGLE POINT ENERGY      -133.971825381131
-------------------------   --------------------



           ************************************************************
           *        Program running with 8 parallel MPI-processes     *
           *              working on a common directory               *
           ************************************************************

------------------------------------------------------------------------------
                              ORCA PROPERTY CALCULATIONS
------------------------------------------------------------------------------

GBWName                                 ... /cluster/projects/nn14654k/ylvaos/basis_set_n_funcs/functionals/gga_c_pw91/C4H6/inp/C4H6_gga_c_pw91_def2qzvp.gbw
Number of atoms                         ...     10
Number of basis functions               ...    408
Max core memory                         ...   4096 MB

Electric properties:
Dipole moment                           ... YES
Quadrupole moment                       ... YES
Static polarizability (Dipole/Dipole)   ...  NO
Static polarizability (Dipole/Quad.)    ...  NO
Static polarizability (Quad./Quad.)     ...  NO
Static polarizability (Velocity)        ...  NO
Static hyperpolarizability              ...  NO

Atomic electric properties:
Dipole moment                           ...  NO
Quadrupole moment                       ...  NO
Static polarizability                   ...  NO

Choice of electric origin               ... Center of mass
Position of electric origin             ...     0.000000     0.000000     0.012360

General magnetic properties:
Magnetizability                         ...  NO

EPR properties:
g-Tensor (aka g-matrix)                 ...  NO
Zero-Field splitting spin-orbit         ...  NO
Zero-field splitting spin-spin          ...  NO
Hyperfine couplings                     ...  NO (   0 nuclei)
Quadrupole couplings                    ...  NO (   0 nuclei)
Contact density                         ...  NO (   0 nuclei)

NMR properties:
Chemical shifts                         ...  NO (   0 nuclei)
Spin-rotation constants                 ...  NO (   0 nuclei)
Spin-spin couplings                     ...  NO (   0 nuclei,    0 pairs)

Choice of magnetic origin               ... GIAO
Position of magnetic origin             ...     0.000000     0.000000     0.000000

Properties with geometric perturbations:
SCF Hessian                             ...  NO
IR spectrum                             ...  NO
VCD spectrum                            ...  NO
X-ray spectroscopy properties:
SCF XES/XAS/RIXS spectra                ...  NO

SCF SOC stabilization energy            ...  NO
Diagonal Born-Oppenheimer correction    ...  NO

-------------
DIPOLE MOMENT
-------------

Method             : SCF
Type of density    : Electron Density
Multiplicity       :   1
Irrep              :   0
Energy             :  -133.9718253811312252 Eh
Basis              : AO
                                X                 Y                 Z
Electronic contribution:      0.000000372      -0.000000759       0.044953001
Nuclear contribution   :      0.000000000       0.000000000      -0.371559272
                        -----------------------------------------
Total Dipole Moment    :      0.000000372      -0.000000759      -0.326606271
                        -----------------------------------------
Magnitude (a.u.)       :      0.326606271
Magnitude (Debye)      :      0.830167165



--------------------
Rotational spectrum 
--------------------
 
Rotational constants in cm-1:             0.643527             0.230144             0.181788 
Rotational constants in MHz :         19292.450199          6899.535423          5449.866904 

Dipole components along the rotational axes: 
x,y,z [a.u.] :    -0.326606    -0.000001     0.000000 
x,y,z [Debye]:    -0.830167    -0.000002     0.000001 

 

Dipole moment calculation done in   0.0 sec 

-----------------
QUADRUPOLE MOMENT
-----------------

Method             : SCF
Type of density    : Electron Density
Multiplicity       :   1
Irrep              :   0
Energy             :  -133.9718253811312252 Eh
Basis              : AO

                XX              YY              ZZ              XY              XZ              YZ
  NUC       11.888664720    55.799971245   152.416444257     0.000000000     0.000000000     0.000000000
  EL       -40.473738167   -84.564685558  -182.707977412     0.000000969     0.000000366     0.000004036
  TOT      -28.585073447   -28.764714313   -30.291533155     0.000000969     0.000000366     0.000004036 (a.u.)
           -38.447901396   -38.689524504   -40.743148064     0.000001304     0.000000492     0.000005428 (Buckingham)

diagonalized tensor:
           -30.291533155   -28.764714313   -28.585073447 (a.u.)
           -40.743148064   -38.689524504   -38.447901396 (Buckingham)
            -4.348870227     1.812000451     2.536869776 (traceless form in Buckingham)

            -0.000000214    -0.000005396     1.000000000
            -0.000002643     1.000000000     0.000005396
             1.000000000     0.000002643     0.000000214
        
Isotropic quadrupole :   -29.213773638

Quadrupole moment calculation done in   0.0 sec (  0.0 sec for integrals)

Maximum memory used throughout the entire PROP-calculation: 23.6 MB

--------------------------------
SUGGESTED CITATIONS FOR THIS RUN
--------------------------------

Below you find a list of papers that are relevant to this ORCA run
We neither can nor want to force you to cite these papers, but we appreciate if you do
You receive ORCA, which is the product of decades of hard work by many enthusiastic individuals, for free
The only thing we kindly ask in return is that you cite our papers,
We deeply appreciate it, if you show your appreciation for ORCA by not just citing the generic ORCA reference.

Please note that relegating all ORCA citations to the supporting information does *not* help us.
SI sections are not indexed - citations you put there will not count into any citation statistics
But we need these citations in order to attract the funding resources that allow us to do what we are doing

Therefore, if you are a happy ORCA user, please consider citing a few of the papers listed below in the main body of your paper

In addition to the list printed below, the program has created the file /cluster/projects/nn14654k/ylvaos/basis_set_n_funcs/functionals/gga_c_pw91/C4H6/inp/C4H6_gga_c_pw91_def2qzvp.bibtex that contains the list in bibtex format
You can import this file easily into all common literature databanks and citation aid programs

It goes without saying that in many instances, there are alternative algorithms to achieve similar
results as the ones you have gotten from ORCA. It is, of course, also the case that in some instances
ORCA just re-implements algorithms worked out by others. We are fully aware of that and we are also
fully appreciative of our colleagues work. Hence this citation list should not be read as indicating
that the listed papers, which are focused on our own work, are the only ones worth citing. It simply
meant to make it easier for users to cite ORCA specific papers. It is not a substitute for doing your
own literature research and citing the relevant literature in a scientifically appropriate manner.

List of essential papers. We consider these as the minimum necessary citations

  1. Neese, F.
     Software update: the ORCA program system, version 6.0
     WIRES Comput. Molec. Sci. 2025 15(1), e70019
     doi.org/10.1002/wcms.70019

List of papers to cite with high priority. The work reported in these papers was absolutely
necessary for this run to complete.
Our perspective: the developers of density functionals and basis sets usually get cited in chemistry papers
Good! But without the algorithms to do something with them, the functionals or basis sets would not do anything.
Hence, in our opinion, the algorithm design and method developments papers are equally worthy of getting cited

  1. Lehtola, S.; Steigemann, C.; Oliveira, M.; Marques, M.
     Recent developments in Libxc - A comprehensive library of functionals for density functional theory
     Software X 2018 7 , 
     doi.org/10.1016/j.softx.2017.11.002
  2. Neese, F.
     The SHARK Integral Generation and Digestion System
     J. Comp. Chem. 2022 44(3), 381
     doi.org/10.1002/jcc.26942

List of suggested additional citations. These are papers that are important in the 'surrounding' of 
of this run, or papers that preceded the highly important papers. If you like your results we are grateful for a citation.

  1. Neese, F.
     The ORCA program system
     WIRES Comput. Molec. Sci. 2012 2(1), 73-78
     doi.org/10.1002/wcms.81
  2. Neese, F.
     Software update: the ORCA program system, version 4.0
     WIRES Comput. Molec. Sci. 2018 8(1), 1-6
     doi.org/10.1002/wcms.1327
  3. Neese, F.; Wennmohs, F.; Becker, U.; Riplinger, C.
     The ORCA quantum chemistry program package
     J. Chem. Phys. 2020 152(22), 224108
     doi.org/10.1063/5.0004608
  4. Neese, F.
     Software update: The ORCA program system—Version 5.0
     WIRES Comput. Molec. Sci. 2022 12(1), e1606
     doi.org/10.1002/wcms.1606

List of optional additional citations

  1. Neese, F.
     Approximate second-order SCF convergence for spin unrestricted wavefunctions
     Chem. Phys. Lett. 2000 325(1-3), 93-98
     doi.org/10.1016/s0009-2614(00)00662-x

Timings for individual modules:

Sum of individual times          ...       83.071 sec (=   1.385 min)
Startup calculation              ...        0.590 sec (=   0.010 min)   0.7 %
SCF iterations                   ...       81.936 sec (=   1.366 min)  98.6 %
Property integrals               ...        0.277 sec (=   0.005 min)   0.3 %
Property calculations            ...        0.254 sec (=   0.004 min)   0.3 %
Orbital localization             ...        0.014 sec (=   0.000 min)   0.0 %
                             ****ORCA TERMINATED NORMALLY****
TOTAL RUN TIME: 0 days 0 hours 1 minutes 23 seconds 639 msec
