
                                 *****************
                                 * O   R   C   A *
                                 *****************

                                            #,                                       
                                            ###                                      
                                            ####                                     
                                            #####                                    
                                            ######                                   
                                           ########,                                 
                                     ,,################,,,,,                         
                               ,,#################################,,                 
                          ,,##########################################,,             
                       ,#########################################, ''#####,          
                    ,#############################################,,   '####,        
                  ,##################################################,,,,####,       
                ,###########''''           ''''###############################       
              ,#####''   ,,,,##########,,,,          '''####'''          '####       
            ,##' ,,,,###########################,,,                        '##       
           ' ,,###''''                  '''############,,,                           
         ,,##''                                '''############,,,,        ,,,,,,###''
      ,#''                                            '''#######################'''  
     '                                                          ''''####''''         
             ,#######,   #######,   ,#######,      ##                                
            ,#'     '#,  ##    ##  ,#'     '#,    #''#        ,####,    ,#,          
            ##       ##  ##   ,#'  ##            #'  '#       #'       ,# #          
            ##       ##  #######   ##           ,######,      #####,      #          
            '#,     ,#'  ##    ##  '#,     ,#' ,#      #,     #,   #      #          
             '#######'   ##     ##  '#######'  #'      '#     '####' #    #          



                #########################################################
                #                        -***-                          #
                #          Department of theory and spectroscopy        #
                #                                                       #
                #                      Frank Neese                      #
                #                                                       #
                #     Directorship, Architecture, Infrastructure        #
                #                    SHARK, DRIVERS                     #
                #        Core code/Algorithms in most modules           #
                #                                                       #
                #        Max Planck Institute fuer Kohlenforschung      #
                #                Kaiser Wilhelm Platz 1                 #
                #                 D-45470 Muelheim/Ruhr                 #
                #                      Germany                          #
                #                                                       #
                #                  All rights reserved                  #
                #                        -***-                          #
                #########################################################


                         Program Version 6.1.1  -  RELEASE   -
                                (GIT: $487d211c$)
                          ($2025-11-21 10:33:24 +0100$)


 With contributions from (in alphabetic order):
[Max-Planck-Institut fuer Kohlenforschung]                               
  Daniel Aravena         : Magnetic Suceptibility                        
  Michael Atanasov       : Ab Initio Ligand Field Theory (pilot matlab implementation)
  Alexander A. Auer      : GIAO ZORA, VPT2 properties, NMR spectrum      
  Ute Becker             : All parallelization in ORCA, NUMFREQ, NUMCALC 
  Giovanni Bistoni       : ED, misc. LED, open-shell LED, HFLD           
  Dmytro Bykov           : pre 5.0 version of the SCF Hessian            
  Marcos Casanova-Páez   : Triplet and SCS-CIS(D). UHF-(DLPNO)-IP/EA/STEOM-CCSD. UHF-CVS-IP/STEOM-CCSD   
  Vijay G. Chilkuri      : MRCI spin determinant printing, contributions to CSF-ICE 
  Pauline Colinet        : FMM embedding                                 
  Dipayan Datta          : RHF DLPNO-CCSD density                        
  Achintya Kumar Dutta   : EOM-CC, STEOM-CC                              
  Nicolas Foglia         : Exact transition moments, OPA infrastructure, MCD improvements    
  Dmitry Ganyushin       : Spin-Orbit,Spin-Spin,Magnetic field MRCI      
  Miquel Garcia-Rates    : C-PCM and meta-GGA Hessian, CCSD/C-PCM, Gaussian charge scheme 
  Tiago L. C. Gouveia    : GS-ROHF, GS-ROCIS                             
  Yang Guo               : DLPNO-NEVPT2, F12-NEVPT2, CIM, IAO-localization        
  Andreas Hansen         : Spin unrestricted coupled pair/coupled cluster methods 
  Ingolf Harden          : AUTO-CI MPn and infrastructure                
  Benjamin Helmich-Paris : MC-RPA, TRAH-(SCF,CASSCF), AVAS, COSX integrals, SCF dyn. polar., MC-PDFT, srDFT 
  Lee Huntington         : MR-EOM, pCC                                   
  Robert Izsak           : Overlap fitted RIJCOSX, COSX-SCS-MP3, EOM     
  Riya Kayal             : Wick's Theorem for AUTO-CI, AUTO-CI UHF-CCSDT 
  Emily Kempfer          : AUTO-CI RHF CISDT and CCSDT, approximate NEVPT4
  Christian Kollmar      : KDIIS, OOCD, Brueckner-CCSD(T), CCSD density, CASPT2, CASPT2-K, improved NEVPT2 
  Axel Koslowski         : Symmetry handling                             
  Simone Kossmann        : meta-GGA functionals, TD-DFT gradient, OOMP2, (MP2 Hessian; deprecated post 5.0) 
  Lucas Lang             : DCDCAS, Hyperfine gauge corrections, ICE-SOC+SSC
  Marvin Lechner         : AUTO-CI (C++ implementation), FIC-MRCC        
  Spencer Leger          : CASSCF response                               
  Dagmar Lenk            : GEPOL surface, SMD, ORCA-2-JSON               
  Dimitrios Liakos       : Extrapolation schemes; Compound Job, Property file
  Dimitrios Manganas     : Further ROCIS development; embedding schemes. LFT, Crystal Embedding 
  Dimitrios Pantazis     : SARC Basis sets                               
  Anastasios Papadopoulos: AUTO-CI, single reference methods and gradients 
  Taras Petrenko         : pre 6.0 DFT Hessian and TD-DFT gradient,  ECA, NRVS 
  Petra Pikulova         : Analytic Raman intensities                    
  Peter Pinski           : DLPNO-MP2, DLPNO-MP2 Gradient                 
  Shashank Vittal Rao    : ES-AILFT, MagRelax                            
  Christoph Reimann      : Effective Core Potentials                     
  Marius Retegan         : Local ZFS, SOC                                
  Christoph Riplinger    : Optimizer, TS searches, QM/MM, DLPNO-CCSD(T), (RO)-DLPNO pert. Triples 
  Michael Roemelt        : Original ROCIS implementation, recursive CI coupling coefficients
  Masaaki Saitow         : Open-shell DLPNO-CCSD energy and density      
  Barbara Sandhoefer     : DKH picture change effects                    
  Yorick L. A. Schmerwitz: GMF and freeze-and-release deltaSCF, NEB S-IDPP initial path                    
  Kantharuban Sivalingam : CASSCF convergence/infrastructure, NEVPT2, NEVPT3, NEVPT4(SD), FIC-MRCI and CEPA variants
  Bernardo de Souza      : ESD, SOC TD-DFT                               
  Georgi L. Stoychev     : AutoAux, RI-MP2 NMR, DLPNO-MP2 response, X2C  
  Van Anh Tran           : RI-MP2 g-tensors                              
  Willem Van den Heuvel  : Paramagnetic NMR                              
  Zikuan Wang            : NOTCH, Electric field optimization            
  Frank Wennmohs         : Technical directorship and infrastructure     
  Hang Xu                : AUTO-CI-Response properties                   
                                                                         
[FACCTs GmbH]                                                            
  Markus Bursch, Nicolas Foglia, Miquel Garcia-Rates, Ingolf Harden, Hagen Neugebauer, Anastasios Papadopoulos, 
  Christoph Riplinger, Bernardo de Souza, Georgi L. Stoychev                                                    
                                                                 
  APM, various basis sets, CI-OPT, improved COSX, DLPNO-Multilevel,           
  DOCKER, DRACO, updates on ESD, Fragmentator, GOAT, IRC, LR-CPCM, L-BFGS, MBIS, meta-GGA TD-DFT gradient, ML-optimized integration grids, 
  MM, NACMEs, nearIR, NEB, NEB-TS, NL-DFT gradient (VV10), 2- and 3-layer-ONIOM, interface openCOSMO-RS, QMMM,   
  Crystal-QMMM, RESP, rigid body optimization, SF, symmetry and pop. for TD-DFT, various functionals, SOLVATOR                                   
                                                                         
[Other institutions]                                                     
  V. Asgeirsson          : NEB                                           
  Christoph Bannwarth    : sTDA-DFT, sTD-DFT, PBEh-3c, B97-3c, D3        
  Giovanni Bistoni       : ETS/NOCV, ADLD/ADEX, COVALED                  
  Martin Brehm           : Molecular dynamics                            
  Ronald Cardenas        : ETS/NOCV                                      
  Martina Colucci        : COVALED                                       
  Sebastian Ehlert       : rSCAN, r2SCAN, r2SCAN-3c, D4, dhf basis sets  
  Marvin Friede          : D4 for Fr, Ra, Ac-Lr                          
  Lars Goerigk           : TD-DFT with DH, B97 family of functionals     
  Stefan Grimme          : VdW corrections, initial TS optimization, DFT functionals, gCP, sTDA/sTD-DF 
  Waldemar Hujo          : DFT-NL                                        
  H. Jonsson             : NEB                                           
  Holger Kruse           : gCP                                           
  Marcel Mueller         : wB97X-3c, vDZP basis set                      
  Hagen Neugebauer       : wr2SCAN, Native XTB                           
  Gianluca Regni         : ADLD/ADEX                                     
  Tobias Risthaus        : pre 6.0 range-separated hybrid DFT and stability analysis
  Lukas Wittmann         : regularized MP2, r2SCAN double-hybrids, wr2SCAN        
                                                                         
We gratefully acknowledge several colleagues who have allowed us to      
interface, adapt or use parts of their codes:                            
  Ed Valeev, F. Pavosevic, A. Kumar             : LibInt (2-el integral package), F12 methods 
  Garnet Chan, S. Sharma, J. Yang, R. Olivares  : DMRG                   
  Ulf Ekstrom                                   : XCFun DFT Library      
  Mihaly Kallay                                 : mrcc  (arbitrary order and MRCC methods)
  Frank Weinhold                                : gennbo (NPA and NBO analysis)           
  Simon Mueller                                 : openCOSMO-RS                            
  Christopher J. Cramer and Donald G. Truhlar   : smd solvation model                     
  S Lehtola, MJT Oliveira, MAL Marques          : LibXC Library                           
  Liviu Ungur et al                             : ANISO software                          


 Your calculation uses the libint2 library for the computation of 2-el integrals
 For citations please refer to: http://libint.valeyev.net

 Your ORCA version has been built with support for libXC version: 7.0.0
 For citations please refer to: https://libxc.gitlab.io

 This ORCA versions uses:
   CBLAS   interface :  Fast vector & matrix operations
   LAPACKE interface :  Fast linear algebra routines
   SCALAPACK package :  Parallel linear algebra routines
   Shared memory     :  Shared parallel matrices
   BLAS/LAPACK       :  OpenBLAS 0.3.29  USE64BITINT DYNAMIC_ARCH NO_AFFINITY Cooperlake SINGLE_THREADED
        Core in use  :  Cooperlake
   Copyright (c) 2011-2014, The OpenBLAS Project


  ***********************************
  * Starting time: Wed May 20 12:40:04 2026
  * Host name:     c1-34
  * Process ID:    2555576
  * Working dir.:  /cluster/projects/nn14654k/ylvaos/basis_set_n_funcs/functionals/N12/PO2/out
  ***********************************

Using LibXC functional ID  82 : Minnesota N12 exchange functional
[ 1]  R. Peverati and D. G. Truhlar.,  J. Chem. Theory Comput. 8, 2310 (2012)
Using LibXC functional ID  80 : Minnesota N12 correlation functional
[ 1]  R. Peverati and D. G. Truhlar.,  J. Chem. Theory Comput. 8, 2310 (2012)
Using LibXC functional ID  82 : Minnesota N12 exchange functional
[ 1]  R. Peverati and D. G. Truhlar.,  J. Chem. Theory Comput. 8, 2310 (2012)
Using LibXC functional ID  80 : Minnesota N12 correlation functional
[ 1]  R. Peverati and D. G. Truhlar.,  J. Chem. Theory Comput. 8, 2310 (2012)
Your calculation utilizes LibXC
by S. Lehtola, C. Steigemann, M. J. T. Oliveira & M. A. L. Marques
Please cite in your paper:
Lehtola, S.; Steigemann, C.; Oliveira, M.J.T.; Marques, M. A. L. Software X, 7, (2018), 1.
   

================================================================================

----- Orbital basis set information -----
Your calculation utilizes the basis: cc-pVTZ 
       H, B-Ne : Obtained from the ccRepo (grant-hill.group.shef.ac.uk/ccrepo) Feb. 2017
                 T. H. Dunning, Jr., J. Chem. Phys. 90, 1007 (1989)
            He : Obtained from the ccRepo (grant-hill.group.shef.ac.uk/ccrepo) Feb. 2017
                 D. E. Woon, T. H. Dunning, Jr., J. Chem. Phys. 100, 2975 (1994)
  Li-Be, Na-Mg : Obtained from the ccRepo (grant-hill.group.shef.ac.uk/ccrepo) Feb. 2017
                 B. P. Prascher, D. E. Woon, K. A. Peterson, T. H. Dunning, Jr., A. K. Wilson, Theor. Chem. Acc. 128, 69 (2011)
         Al-Ar : Obtained from the ccRepo (grant-hill.group.shef.ac.uk/ccrepo) Feb. 2017
                 D. E. Woon, T. H. Dunning, Jr., J. Chem. Phys. 98, 1358 (1993)
            Ca : Obtained from the Peterson Research Group Website (tyr0.chem.wsu.edu/~kipeters) Feb. 2017
                 J. Koput, K. A. Peterson, J. Phys. Chem. 106, 9595 (2002)
         Sc-Zn : Obtained from the ccRepo (grant-hill.group.shef.ac.uk/ccrepo) Feb. 2017
                 N. B. Balabanov, K. A. Peterson, J. Chem. Phys. 123, 064107 (2005)
                 N. B. Balabanov, K. A. Peterson, J. Chem. Phys. 125, 074110 (2006)
         Ga-Kr : Obtained from the ccRepo (grant-hill.group.shef.ac.uk/ccrepo) Feb. 2017
                 A. K. Wilson, D. E. Woon, K. A. Peterson, T. H. Dunning, Jr., J. Chem. Phys. 110, 7667 (1999)
             Y : Obtained from the ccRepo (grant-hill.group.shef.ac.uk/ccrepo) Feb. 2017
                 K. A. Peterson, D. Figgen, M. Dolg, H. Stoll, J. Chem. Phys. 126, 124101 (2007)
        Ag, Au : Obtained from the Peterson Research Group Website (tyr0.chem.wsu.edu/~kipeters) Feb. 2017
                 K. A. Peterson, C. Puzzarini, Theor. Chem. Acc. 114, 283 (2005)

================================================================================
                                        WARNINGS
                       Please study these warnings very carefully!
================================================================================


WARNING: your system is open-shell and RHF/RKS was chosen
  ===> : WILL SWITCH to UHF/UKS


================================================================================
                                       INPUT FILE
================================================================================
NAME = /cluster/projects/nn14654k/ylvaos/basis_set_n_funcs/functionals/N12/PO2/inp/PO2_N12_ccpvtz.inp
|  1> ! dft cc-pVTZ TightSCF
|  2> %pal nprocs 8 end
|  3> 
|  4> %loc
|  5>   LocMet NewBoys
|  6>   Occ true
|  7> end
|  8> 
|  9> %method
| 10>   exchange gga_x_N12
| 11>   correlation gga_c_N12
| 12> end
| 13> 
| 14> %elprop
| 15>   Dipole true
| 16>   Quadrupole true
| 17> end
| 18> 
| 19> * xyz 0 2
| 20> P    0.000000000000   0.000000000000   0.287900000000
| 21> O    0.000000000000   1.356300000000  -0.269900000000
| 22> O    0.000000000000  -1.356300000000  -0.269900000000
| 23> *
| 24> 
| 25> 
| 26>                          ****END OF INPUT****
================================================================================

                       ****************************
                       * Single Point Calculation *
                       ****************************

---------------------------------
CARTESIAN COORDINATES (ANGSTROEM)
---------------------------------
  P      0.000000    0.000000    0.287900
  O      0.000000    1.356300   -0.269900
  O      0.000000   -1.356300   -0.269900

----------------------------
CARTESIAN COORDINATES (A.U.)
----------------------------
  NO LB      ZA    FRAG     MASS         X           Y           Z
   0 P    15.0000    0    30.974    0.000000    0.000000    0.544052
   1 O     8.0000    0    15.999    0.000000    2.563036   -0.510037
   2 O     8.0000    0    15.999    0.000000   -2.563036   -0.510037

--------------------------------
INTERNAL COORDINATES (ANGSTROEM)
--------------------------------
 P      0   0   0     0.000000000000     0.00000000     0.00000000
 O      1   0   0     1.466523279733     0.00000000     0.00000000
 O      1   2   0     1.466523279733   135.28860674     0.00000000

---------------------------
INTERNAL COORDINATES (A.U.)
---------------------------
 P      0   0   0     0.000000000000     0.00000000     0.00000000
 O      1   0   0     2.771327367716     0.00000000     0.00000000
 O      1   2   0     2.771327367716   135.28860674     0.00000000

---------------------
BASIS SET INFORMATION
---------------------
There are 2 groups of distinct atoms

 Group   1 Type P   : 41s16p2d1f contracted to 5s4p2d1f pattern {13131311/7711/11/1}
 Group   2 Type O   : 18s5p2d1f contracted to 4s3p2d1f pattern {8811/311/11/1}

Atom   0P    basis set group =>   1
Atom   1O    basis set group =>   2
Atom   2O    basis set group =>   2


           ************************************************************
           *        Program running with 8 parallel MPI-processes     *
           *              working on a common directory               *
           ************************************************************
------------------------------------------------------------------------------
                             ORCA STARTUP CALCULATIONS
------------------------------------------------------------------------------
------------------------------------------------------------------------------
                   ___                                                        
                  /   \      - P O W E R E D   B Y -                         
                 /     \                                                     
                 |  |  |   _    _      __       _____    __    __             
                 |  |  |  | |  | |    /  \     |  _  \  |  |  /  |          
                  \  \/   | |  | |   /    \    | | | |  |  | /  /          
                 / \  \   | |__| |  /  /\  \   | |_| |  |  |/  /          
                |  |  |   |  __  | /  /__\  \  |    /   |      \           
                |  |  |   | |  | | |   __   |  |    \   |  |\   \          
                \     /   | |  | | |  |  |  |  | |\  \  |  | \   \       
                 \___/    |_|  |_| |__|  |__|  |_| \__\ |__|  \__/        
                                                                              
                      - O R C A' S   B I G   F R I E N D -                    
                                      &                                       
                       - I N T E G R A L  F E E D E R -                       
                                                                              
 v1 FN, 2020, v2 2021, v3 2022-2024                                           
------------------------------------------------------------------------------


----------------------
SHARK INTEGRAL PACKAGE
----------------------

Number of atoms                             ...      3
Number of basis functions                   ...    131
Number of shells                            ...     59
Maximum angular momentum                    ...      3
Integral batch strategy                     ... SHARK/LIBINT Hybrid
RI-J (if used) integral strategy            ... SPLIT-RIJ (Revised 2003 algorithm where possible)
Printlevel                                  ...      1
Contraction scheme used                     ... PARTIAL GENERAL contraction
Prescreening option                         ... SCHWARTZ
   Thresh                                   ... 2.500e-11
   Tcut                                     ... 2.500e-12
   Tpresel                                  ... 2.500e-12 
Coulomb Range Separation                    ... NOT USED
Exchange Range Separation                   ... NOT USED
Multipole approximations                    ... NOT USED
Finite Nucleus Model                        ... NOT USED
CABS basis                                  ... NOT available
Auxiliary Coulomb fitting basis             ... NOT available
Auxiliary J/K fitting basis                 ... NOT available
Auxiliary Correlation fitting basis         ... NOT available
Auxiliary 'external' fitting basis          ... NOT available

Checking pre-screening integrals            ... done (  0.0 sec) Dimension = 59
Save PGC pre-screening integrals            ... done (  0.0 sec) Dimension = 59
Calculate PGC overlap integrals             ... done (  0.0 sec) Dimension = 32
Calculating pre-screening integrals (ORCA)  ... done (  0.0 sec) Dimension = 32
Shell pair information
Shell pair cut-off parameter TPreSel        ...   2.5e-12
Total number of shell pairs                 ...      1770
Shell pairs after pre-screening             ...      1448
Total number of primitive shell pairs       ...      2022
Primitive shell pairs kept                  ...      1596
          la=0 lb=0:    417 shell pairs
          la=1 lb=0:    443 shell pairs
          la=1 lb=1:    120 shell pairs
          la=2 lb=0:    196 shell pairs
          la=2 lb=1:     90 shell pairs
          la=2 lb=2:     21 shell pairs
          la=3 lb=0:     92 shell pairs
          la=3 lb=1:     45 shell pairs
          la=3 lb=2:     18 shell pairs
          la=3 lb=3:      6 shell pairs

Checking whether 4 symmetric matrices of dimension 131 fit in memory
:Max Core in MB      =   4096.00
 MB in use           =      3.45
 MB left             =   4092.55
 MB needed           =      0.26
 Data fit in memory  = YES
Calculating Nuclear repulsion               ... done (  0.0 sec) ENN=     99.086296046297 Eh

Diagonalization of the overlap matrix:
Smallest eigenvalue                        ... 3.519e-03
Time for diagonalization                   ...    0.001 sec
Threshold for overlap eigenvalues          ... 1.000e-07
Number of eigenvalues below threshold      ... 0
Time for construction of square roots      ...    0.002 sec
Total time needed                          ...    0.009 sec

-------------------
DFT GRID GENERATION
-------------------

General Integration Accuracy     IntAcc      ... 4.388
Radial Grid Type                 RadialGrid  ... OptM3 with GC (2021)
Angular Grid (max. ang.)         AngularGrid ... 4 (Lebedev-302)
Angular grid pruning method      GridPruning ... 4 (adaptive)
Weight generation scheme         WeightScheme... mBecke (2022)
Basis function cutoff            BFCut       ... 1.0000e-11
Integration weight cutoff        WCut        ... 1.0000e-14
Partially contracted basis set               ... off
Rotationally invariant grid construction     ... off
Angular grids for H and He will be reduced by one unit

Total number of grid points                  ...    19622
Total number of batches                      ...      309
Average number of points per batch           ...       63
Average number of grid points per atom       ...     6541

---------------------
SHARK GRID GENERATION
---------------------

General Integration Accuracy     IntAcc      ... 4.388
Radial Grid Type                 RadialGrid  ... OptM3 with GC (2021)
Angular Grid (max. ang.)         AngularGrid ... 4 (Lebedev-302)
Angular grid pruning method      GridPruning ... 4 (adaptive)
Weight generation scheme         WeightScheme... mBecke (2022)
Basis function cutoff            BFCut       ... 1.0000e-11
Integration weight cutoff        WCut        ... 1.0000e-14
Partially contracted basis set               ... off
Rotationally invariant grid construction     ... off
Angular grids for H and He will be reduced by one unit
Core-polarized basis detected: some atoms will have their core
                               angular grid increased.
Steep s-basis detected: some atoms will have their radial
                        grid points doubled.

Total number of grid points                  ...    44068
Total number of batches                      ...      689
Average number of points per batch           ...       63
Average number of grid points per atom       ...    14689
Grids setup in   0.4 sec
Initializing property integral containers    ... done (  0.0 sec)

SHARK setup successfully completed in   0.6 seconds

Maximum memory used throughout the entire STARTUP-calculation: 48.2 MB


           ************************************************************
           *        Program running with 8 parallel MPI-processes     *
           *              working on a common directory               *
           ************************************************************
-------------------------------------------------------------------------------
                                 ORCA GUESS
                   Start orbitals & Density for SCF / CASSCF
-------------------------------------------------------------------------------

------------
SCF SETTINGS
------------
Hamiltonian:
 Density Functional     Method          .... DFT(GTOs)
  Functional kind                       .... Exchange
  Functional name                       .... Minnesota N12 exchange functional
  Functional family                     .... GGA
  Functional refs                              
    [ 0] R. Peverati and D. G. Truhlar.,  J. Chem. Theory Comput. 8, 2310 (2012), doi: 10.1021/ct3002656
  Functional external parameters        .... 16
    Parameter  0 _CC00      =  1.000000e+00 : _CC00               
    Parameter  1 _CC01      =  5.078800e-01 : _CC01               
    Parameter  2 _CC02      =  1.682330e-01 : _CC02               
    Parameter  3 _CC03      =  1.288870e-01 : _CC03               
    Parameter  4 _CC10      =  8.602110e-02 : _CC10               
    Parameter  5 _CC11      = -1.710080e+01 : _CC11               
    Parameter  6 _CC12      =  6.508140e+01 : _CC12               
    Parameter  7 _CC13      = -7.017260e+01 : _CC13               
    Parameter  8 _CC20      = -3.907550e-01 : _CC20               
    Parameter  9 _CC21      =  5.133920e+01 : _CC21               
    Parameter 10 _CC22      = -1.662200e+02 : _CC22               
    Parameter 11 _CC23      =  1.427380e+02 : _CC23               
    Parameter 12 _CC30      =  4.036110e-01 : _CC30               
    Parameter 13 _CC31      = -3.446310e+01 : _CC31               
    Parameter 14 _CC32      =  7.616610e+01 : _CC32               
    Parameter 15 _CC33      = -2.418340e+00 : _CC33               
  Functional kind                       .... Correlation
  Functional name                       .... Minnesota N12 correlation functional
  Functional family                     .... GGA
  Functional refs                              
    [ 0] R. Peverati and D. G. Truhlar.,  J. Chem. Theory Comput. 8, 2310 (2012), doi: 10.1021/ct3002656
  Functional external parameters        .... 10
    Parameter  0 _css0      =  1.000000e+00 : u^0 coefficient for same-spin correlation
    Parameter  1 _css1      = -5.531700e+00 : u^1 coefficient for same-spin correlation
    Parameter  2 _css2      =  3.079580e+01 : u^2 coefficient for same-spin correlation
    Parameter  3 _css3      = -5.641960e+01 : u^3 coefficient for same-spin correlation
    Parameter  4 _css4      =  3.212500e+01 : u^4 coefficient for same-spin correlation
    Parameter  5 _cos0      =  1.000000e+00 : u^0 coefficient for opposite-spin correlation
    Parameter  6 _cos1      =  3.245110e+00 : u^1 coefficient for opposite-spin correlation
    Parameter  7 _cos2      = -2.528930e+01 : u^2 coefficient for opposite-spin correlation
    Parameter  8 _cos3      =  1.444070e+01 : u^3 coefficient for opposite-spin correlation
    Parameter  9 _cos4      =  1.968700e+01 : u^4 coefficient for opposite-spin correlation
 Gradients option       PostSCFGGA      .... off


General Settings:
 Integral files         IntName         .... /cluster/projects/nn14654k/ylvaos/basis_set_n_funcs/functionals/N12/PO2/inp/PO2_N12_ccpvtz
 Hartree-Fock type      HFTyp           .... UHF
 Total Charge           Charge          ....    0
 Multiplicity           Mult            ....    2
 Number of Electrons    NEL             ....   31
 Basis Dimension        Dim             ....   94
 Nuclear Repulsion      ENuc            ....     99.0862960463 Eh

Convergence Acceleration:
 AO-DIIS                CNVDIIS         .... on
   Start iteration      DIISMaxIt       ....    12
   Startup error        DIISStart       ....  0.200000
   # of expansion vecs  DIISMaxEq       ....     5
   Bias factor          DIISBfac        ....   1.050
   Max. coefficient     DIISMaxC        ....  10.000
 MO-DIIS                CNVKDIIS        .... off
 Trust-Rad. Augm. Hess. CNVTRAH         .... auto
   Auto Start mean grad. ratio tolernc. ....  1.125000
   Auto Start start iteration           ....    50
   Auto Start num. interpolation iter.  ....    10
   Max. Number of Micro iterations      ....    24
   Max. Number of Macro iterations      .... Maxiter - #DIIS iter
   Number of Davidson start vectors     ....     2
   Converg. threshold    (grad. norm)   ....   1.000e-05
   Grad. Scal. Fac. for Micro threshold ....   0.100
   Minimum threshold for Micro iter.    ....   1.000e-02
   NR start threshold (gradient norm)   ....   1.000e-04
   Initial trust radius                 ....   0.400
   Minimum AH scaling param. (alpha)    ....   1.000
   Maximum AH scaling param. (alpha)    .... 1000.000
   Quad. conv. algorithm                .... NR
   White noise on init. David. guess    .... on
   Maximum white noise                  ....   0.010
   Pseudo random numbers                .... off
   Inactive MOs                         .... canonical
   Orbital update algorithm             .... Taylor
   Preconditioner                       .... Diag
   Full preconditioner red. dimension   ....   250
 SOSCF                 CNVSOSCF           .... on
   Start iteration     SOSCFMaxIt         ....   150
   Startup grad/error  SOSCFStart         ....  0.003300
   Hessian update      SOSCFHessUp        .... L-BFGS
   Autom. constraints  SOSCFAutoConstrain .... off
 Level Shifting         CNVShift        .... on
   Level shift para.    LevelShift      ....    0.2500
   Turn off err/grad.   ShiftErr        ....    0.0010
 Zerner damping         CNVZerner       .... off
 Static damping         CNVDamp         .... on
   Fraction old density DampFac         ....    0.7000
   Max. Damping (<1)    DampMax         ....    0.9800
   Min. Damping (>=0)   DampMin         ....    0.0000
   Turn off err/grad.   DampErr         ....    0.1000

SCF Procedure:
 Maximum # iterations   MaxIter         ....   125
 SCF integral mode      SCFMode         .... Direct
   Integral package                     .... SHARK and LIBINT hybrid scheme
 Reset frequency        DirectResetFreq ....    20
 Integral Threshold     Thresh          ....  2.500e-11 Eh
 Primitive CutOff       TCut            ....  2.500e-12 Eh

Convergence Tolerance:
 Convergence Check Mode ConvCheckMode   .... Total+1el-Energy
 Convergence forced     ConvForced      .... 0
 Energy Change          TolE            ....  1.000e-08 Eh
 1-El. energy change                    ....  1.000e-05 Eh
 Orbital Gradient       TolG            ....  1.000e-05
 Orbital Rotation angle TolX            ....  1.000e-05
 DIIS Error             TolErr          ....  5.000e-07

------------------------------
INITIAL GUESS: MODEL POTENTIAL
------------------------------
Loading Hartree-Fock densities                     ... done
Calculating cut-offs                               ... done
Initializing the effective Hamiltonian             ... done
Setting up the integral package (SHARK)            ... done
Starting the Coulomb interaction                   ... done (   0.1 sec)
Making the grid                                    ... done (   0.1 sec)
Mapping shells                                     ... done
Starting the XC term evaluation                    ... done (   0.0 sec)
  promolecular density results
     # of electrons  =     31.000340810
     EX              =    -38.233372540
     EC              =     -1.877210814
     EX+EC           =    -40.110583354
Transforming the Hamiltonian                       ... done (   0.0 sec)
Diagonalizing the Hamiltonian                      ... done (   0.0 sec)
Back transforming the eigenvectors                 ... done (   0.0 sec)
Now organizing SCF variables                       ... done
                      ------------------
                      INITIAL GUESS DONE (   0.3 sec)
                      ------------------
             **** ENERGY FILE WAS UPDATED (/cluster/projects/nn14654k/ylvaos/basis_set_n_funcs/functionals/N12/PO2/inp/PO2_N12_ccpvtz.en.tmp) ****
Finished Guess after   0.4 sec
Maximum memory used throughout the entire GUESS-calculation: 7.3 MB


           ************************************************************
           *        Program running with 8 parallel MPI-processes     *
           *              working on a common directory               *
           ************************************************************

-------------------------------------------------------------------------------------------
                                      ORCA LEAN-SCF
                              memory conserving SCF solver
-------------------------------------------------------------------------------------------

----------------------------------------D-I-I-S--------------------------------------------
Iteration    Energy (Eh)           Delta-E    RMSDP     MaxDP     DIISErr   Damp  Time(sec)
-------------------------------------------------------------------------------------------
               ***  Starting incremental Fock matrix formation  ***
    1    -491.4241370592018825     0.00e+00  7.94e-03  6.35e-02  2.13e-01  0.700   0.2
Warning: op=1 Small HOMO/LUMO gap (   0.057) - skipping pre-diagonalization
         Will do a full diagonalization
    2    -491.6302026472612283    -2.06e-01  3.17e-03  2.23e-02  5.33e-02  0.700   0.5
                               ***Turning on AO-DIIS***
    3    -491.6717501799478782    -4.15e-02  1.16e-03  8.94e-03  1.55e-02  0.700   0.2
    4    -491.7030781203772563    -3.13e-02  2.12e-03  1.73e-02  2.41e-02  0.000   0.1
    5    -491.7899382810794009    -8.69e-02  9.94e-04  1.45e-02  1.53e-02  0.000   0.2
    6    -491.7922177618008277    -2.28e-03  4.21e-04  6.55e-03  5.28e-03  0.000   0.2
                              *** Initializing SOSCF ***
---------------------------------------S-O-S-C-F--------------------------------------
Iteration    Energy (Eh)           Delta-E    RMSDP     MaxDP     MaxGrad    Time(sec)
--------------------------------------------------------------------------------------
    7    -491.7924985076460302    -2.81e-04  1.95e-04  3.38e-03  1.87e-03     0.4
               *** Restarting incremental Fock matrix formation ***
    8    -491.7925374983714732    -3.90e-05  2.06e-04  2.37e-03  1.27e-03     0.2
    9    -491.7925199159247427     1.76e-05  1.04e-04  1.04e-03  2.14e-03     0.2
   10    -491.7925477425027907    -2.78e-05  3.39e-05  4.10e-04  1.43e-04     0.4
   11    -491.7925481238513044    -3.81e-07  8.00e-06  6.54e-05  6.93e-05     0.2
   12    -491.7925481880458278    -6.42e-08  3.00e-06  5.72e-05  1.09e-05     0.6
   13    -491.7925481903736795    -2.33e-09  8.00e-07  1.07e-05  5.99e-06     0.2
                 **** Energy Check signals convergence ****

               *****************************************************
               *                     SUCCESS                       *
               *           SCF CONVERGED AFTER  13 CYCLES          *
               *****************************************************

             **** ENERGY FILE WAS UPDATED (/cluster/projects/nn14654k/ylvaos/basis_set_n_funcs/functionals/N12/PO2/inp/PO2_N12_ccpvtz.en.tmp) ****

----------------
TOTAL SCF ENERGY
----------------

Total Energy       :       -491.79254819076499 Eh          -13382.35558 eV

Components:
Nuclear Repulsion  :         99.08629604629714 Eh            2696.27519 eV
Electronic Energy  :       -590.87884423706214 Eh          -16078.63077 eV
One Electron Energy:       -876.51395720809910 Eh          -23851.15735 eV
Two Electron Energy:        285.63511297103690 Eh            7772.52657 eV

Virial components:
Potential Energy   :       -982.57246907970318 Eh          -26737.15617 eV
Kinetic Energy     :        490.77992088893819 Eh           13354.80059 eV
Virial Ratio       :          2.00206330222311

DFT components:
N(Alpha)           :       16.000009286642 electrons
N(Beta)            :       15.000005536415 electrons
N(Total)           :       31.000014823057 electrons
E(X)               :      -38.584419585491 Eh       
E(C)               :       -1.890587451186 Eh       
E(XC)              :      -40.475007036676 Eh       

---------------
SCF CONVERGENCE
---------------

  Last Energy change         ...    2.3279e-09  Tolerance :   1.0000e-08
  Last MAX-Density change    ...    1.0675e-05  Tolerance :   1.0000e-07
  Last RMS-Density change    ...    8.0036e-07  Tolerance :   5.0000e-09
  Last DIIS Error            ...    1.8687e-03  Tolerance :   5.0000e-07
  Last Orbital Gradient      ...    5.9912e-06  Tolerance :   1.0000e-05
  Last Orbital Rotation      ...    1.4325e-05  Tolerance :   1.0000e-05


----------------------
UHF SPIN CONTAMINATION
----------------------

Warning: in a DFT calculation there is little theoretical justification to 
         calculate <S**2> as in Hartree-Fock theory. We will do it anyways
         but you should keep in mind that the values have only limited relevance

Expectation value of <S**2>     :     0.752701
Ideal value S*(S+1) for S=0.5   :     0.750000
Deviation                       :     0.002701

----------------
ORBITAL ENERGIES
----------------
                 SPIN UP ORBITALS
  NO   OCC          E(Eh)            E(eV) 
   0   1.0000     -76.321762     -2076.8207 
   1   1.0000     -18.801089      -511.6036 
   2   1.0000     -18.801080      -511.6034 
   3   1.0000      -6.436946      -175.1582 
   4   1.0000      -4.757819      -129.4668 
   5   1.0000      -4.754625      -129.3799 
   6   1.0000      -4.752096      -129.3111 
   7   1.0000      -0.978996       -26.6398 
   8   1.0000      -0.934819       -25.4377 
   9   1.0000      -0.504627       -13.7316 
  10   1.0000      -0.415208       -11.2984 
  11   1.0000      -0.398806       -10.8521 
  12   1.0000      -0.398534       -10.8447 
  13   1.0000      -0.331046        -9.0082 
  14   1.0000      -0.324126        -8.8199 
  15   1.0000      -0.263014        -7.1570 
  16   0.0000      -0.118460        -3.2234 
  17   0.0000      -0.009050        -0.2463 
  18   0.0000       0.080299         2.1850 
  19   0.0000       0.172399         4.6912 
  20   0.0000       0.200405         5.4533 
  21   0.0000       0.214754         5.8438 
  22   0.0000       0.240337         6.5399 
  23   0.0000       0.256192         6.9713 
  24   0.0000       0.271735         7.3943 
  25   0.0000       0.372020        10.1232 
  26   0.0000       0.476627        12.9697 

                 SPIN DOWN ORBITALS
  NO   OCC          E(Eh)            E(eV) 
   0   1.0000     -76.319028     -2076.7463 
   1   1.0000     -18.792106      -511.3592 
   2   1.0000     -18.792097      -511.3590 
   3   1.0000      -6.435717      -175.1248 
   4   1.0000      -4.756735      -129.4373 
   5   1.0000      -4.751565      -129.2967 
   6   1.0000      -4.751097      -129.2839 
   7   1.0000      -0.963300       -26.2127 
   8   1.0000      -0.918080       -24.9822 
   9   1.0000      -0.481439       -13.1006 
  10   1.0000      -0.391942       -10.6653 
  11   1.0000      -0.388903       -10.5826 
  12   1.0000      -0.381555       -10.3826 
  13   1.0000      -0.323143        -8.7932 
  14   1.0000      -0.310117        -8.4387 
  15   0.0000      -0.213889        -5.8202 
  16   0.0000      -0.094377        -2.5681 
  17   0.0000       0.007842         0.2134 
  18   0.0000       0.101228         2.7546 
  19   0.0000       0.205755         5.5989 
  20   0.0000       0.230952         6.2845 
  21   0.0000       0.253970         6.9109 
  22   0.0000       0.260058         7.0766 
  23   0.0000       0.269821         7.3422 
  24   0.0000       0.294693         8.0190 
  25   0.0000       0.380563        10.3557 
*Only the first 10 virtual orbitals were printed.

                    ********************************
                    * MULLIKEN POPULATION ANALYSIS *
                    ********************************

--------------------------------------------
MULLIKEN ATOMIC CHARGES AND SPIN POPULATIONS
--------------------------------------------
   0 P :    0.627289    0.560816
   1 O :   -0.313644    0.219592
   2 O :   -0.313644    0.219592
Sum of atomic charges         :   -0.0000000
Sum of atomic spin populations:    1.0000000

-----------------------------------------------------
MULLIKEN REDUCED ORBITAL CHARGES AND SPIN POPULATIONS
-----------------------------------------------------
CHARGE
  0 P s       :     5.490580  s :     5.490580
      pz      :     2.863603  p :     8.238974
      px      :     2.742739
      py      :     2.632632
      dz2     :     0.074877  d :     0.572275
      dxz     :     0.013448
      dyz     :     0.176750
      dx2y2   :     0.137661
      dxy     :     0.169539
      f0      :     0.004633  f :     0.070882
      f+1     :     0.000158
      f-1     :     0.024472
      f+2     :     0.010865
      f-2     :     0.009620
      f+3     :     0.012937
      f-3     :     0.008197

  1 O s       :     3.772005  s :     3.772005
      pz      :     1.535150  p :     4.513246
      px      :     1.516658
      py      :     1.461439
      dz2     :     0.003873  d :     0.027050
      dxz     :     0.001164
      dyz     :     0.007633
      dx2y2   :     0.006839
      dxy     :     0.007541
      f0      :     0.000114  f :     0.001343
      f+1     :     0.000005
      f-1     :     0.000311
      f+2     :     0.000257
      f-2     :     0.000137
      f+3     :     0.000275
      f-3     :     0.000244

  2 O s       :     3.772005  s :     3.772005
      pz      :     1.535150  p :     4.513246
      px      :     1.516658
      py      :     1.461439
      dz2     :     0.003873  d :     0.027050
      dxz     :     0.001164
      dyz     :     0.007633
      dx2y2   :     0.006839
      dxy     :     0.007541
      f0      :     0.000114  f :     0.001343
      f+1     :     0.000005
      f-1     :     0.000311
      f+2     :     0.000257
      f-2     :     0.000137
      f+3     :     0.000275
      f-3     :     0.000244


SPIN
  0 P s       :     0.322554  s :     0.322554
      pz      :     0.170341  p :     0.169394
      px      :     0.020257
      py      :    -0.021203
      dz2     :     0.028415  d :     0.074161
      dxz     :    -0.003133
      dyz     :    -0.003778
      dx2y2   :     0.054258
      dxy     :    -0.001601
      f0      :    -0.000197  f :    -0.005293
      f+1     :    -0.000055
      f-1     :    -0.001804
      f+2     :    -0.000655
      f-2     :    -0.000483
      f+3     :    -0.001508
      f-3     :    -0.000592

  1 O s       :    -0.004924  s :    -0.004924
      pz      :     0.187956  p :     0.224541
      px      :    -0.006866
      py      :     0.043450
      dz2     :    -0.000011  d :    -0.000149
      dxz     :     0.000033
      dyz     :    -0.000279
      dx2y2   :     0.000062
      dxy     :     0.000046
      f0      :     0.000001  f :     0.000124
      f+1     :    -0.000004
      f-1     :     0.000020
      f+2     :     0.000037
      f-2     :     0.000032
      f+3     :     0.000019
      f-3     :     0.000018

  2 O s       :    -0.004924  s :    -0.004924
      pz      :     0.187956  p :     0.224541
      px      :    -0.006866
      py      :     0.043450
      dz2     :    -0.000011  d :    -0.000149
      dxz     :     0.000033
      dyz     :    -0.000279
      dx2y2   :     0.000062
      dxy     :     0.000046
      f0      :     0.000001  f :     0.000124
      f+1     :    -0.000004
      f-1     :     0.000020
      f+2     :     0.000037
      f-2     :     0.000032
      f+3     :     0.000019
      f-3     :     0.000018



                     *******************************
                     * LOEWDIN POPULATION ANALYSIS *
                     *******************************

-------------------------------------------
LOEWDIN ATOMIC CHARGES AND SPIN POPULATIONS
-------------------------------------------
   0 P :    0.101650    0.551072
   1 O :   -0.050825    0.224464
   2 O :   -0.050825    0.224464

----------------------------------------------------
LOEWDIN REDUCED ORBITAL CHARGES AND SPIN POPULATIONS
----------------------------------------------------
CHARGE
  0 P s       :     5.176160  s :     5.176160
      pz      :     2.907963  p :     8.409558
      px      :     2.724914
      py      :     2.776682
      dz2     :     0.137009  d :     1.071486
      dxz     :     0.018362
      dyz     :     0.336500
      dx2y2   :     0.303113
      dxy     :     0.276503
      f0      :     0.019437  f :     0.241145
      f+1     :     0.000271
      f-1     :     0.073238
      f+2     :     0.044318
      f-2     :     0.031215
      f+3     :     0.030932
      f-3     :     0.041735

  1 O s       :     3.515396  s :     3.515396
      pz      :     1.488327  p :     4.483311
      px      :     1.447651
      py      :     1.547333
      dz2     :     0.005726  d :     0.049854
      dxz     :     0.001389
      dyz     :     0.017486
      dx2y2   :     0.015984
      dxy     :     0.009268
      f0      :     0.000250  f :     0.002265
      f+1     :     0.000013
      f-1     :     0.000453
      f+2     :     0.000534
      f-2     :     0.000185
      f+3     :     0.000396
      f-3     :     0.000434

  2 O s       :     3.515396  s :     3.515396
      pz      :     1.488327  p :     4.483311
      px      :     1.447651
      py      :     1.547333
      dz2     :     0.005726  d :     0.049854
      dxz     :     0.001389
      dyz     :     0.017486
      dx2y2   :     0.015984
      dxy     :     0.009268
      f0      :     0.000250  f :     0.002265
      f+1     :     0.000013
      f-1     :     0.000453
      f+2     :     0.000534
      f-2     :     0.000185
      f+3     :     0.000396
      f-3     :     0.000434


SPIN
  0 P s       :     0.221221  s :     0.221221
      pz      :     0.183915  p :     0.188018
      px      :     0.017358
      py      :    -0.013255
      dz2     :     0.056769  d :     0.144113
      dxz     :    -0.003090
      dyz     :    -0.004792
      dx2y2   :     0.097259
      dxy     :    -0.002034
      f0      :     0.000295  f :    -0.002280
      f+1     :    -0.000047
      f-1     :    -0.000626
      f+2     :    -0.000574
      f-2     :    -0.000412
      f+3     :    -0.001570
      f-3     :     0.000654

  1 O s       :     0.012836  s :     0.012836
      pz      :     0.173191  p :     0.210581
      px      :    -0.005301
      py      :     0.042691
      dz2     :     0.000227  d :     0.000959
      dxz     :     0.000055
      dyz     :     0.000652
      dx2y2   :    -0.000083
      dxy     :     0.000108
      f0      :    -0.000003  f :     0.000088
      f+1     :    -0.000001
      f-1     :     0.000024
      f+2     :     0.000014
      f-2     :     0.000024
      f+3     :     0.000012
      f-3     :     0.000019

  2 O s       :     0.012836  s :     0.012836
      pz      :     0.173191  p :     0.210581
      px      :    -0.005301
      py      :     0.042691
      dz2     :     0.000227  d :     0.000959
      dxz     :     0.000055
      dyz     :     0.000652
      dx2y2   :    -0.000083
      dxy     :     0.000108
      f0      :    -0.000003  f :     0.000088
      f+1     :    -0.000001
      f-1     :     0.000024
      f+2     :     0.000014
      f-2     :     0.000024
      f+3     :     0.000012
      f-3     :     0.000019



                      *****************************
                      * MAYER POPULATION ANALYSIS *
                      *****************************

  NA   - Mulliken gross atomic population
  ZA   - Total nuclear charge
  QA   - Mulliken gross atomic charge
  VA   - Mayer's total valence
  BVA  - Mayer's bonded valence
  FA   - Mayer's free valence

  ATOM       NA         ZA         QA         VA         BVA        FA
  0 P     14.3727    15.0000     0.6273     4.6135     4.2594     0.3540
  1 O      8.3136     8.0000    -0.3136     2.3636     2.3107     0.0529
  2 O      8.3136     8.0000    -0.3136     2.3636     2.3107     0.0529

  Mayer bond orders larger than 0.100000
B(  0-P ,  1-O ) :   2.1297 B(  0-P ,  2-O ) :   2.1297 B(  1-O ,  2-O ) :   0.1810 


-------
TIMINGS
-------

Total SCF time: 0 days 0 hours 0 min 3 sec 

Total time                  ....       3.870 sec
Sum of individual times     ....       3.777 sec  ( 97.6%)

SCF preparation             ....       0.079 sec  (  2.0%)
Fock matrix formation       ....       2.022 sec  ( 52.2%)
  Startup                   ....       0.027 sec  (  1.3% of F)
  Coulomb formation         ....       0.534 sec  ( 26.4% of F)
  XC integration            ....       0.631 sec  ( 31.2% of F)
    XC Preparation          ....       0.000 sec  (  0.0% of XC)
    Basis function eval.    ....       0.039 sec  (  6.1% of XC)
    Density eval.           ....       0.026 sec  (  4.2% of XC)
    XC-Functional eval.     ....       0.032 sec  (  5.1% of XC)
    XC-Potential eval.      ....       0.065 sec  ( 10.3% of XC)
Diagonalization             ....       0.000 sec  (  0.0%)
Density matrix formation    ....       0.442 sec  ( 11.4%)
Total Energy calculation    ....       0.057 sec  (  1.5%)
Population analysis         ....       0.019 sec  (  0.5%)
Orbital Transformation      ....       0.098 sec  (  2.5%)
Orbital Orthonormalization  ....       0.000 sec  (  0.0%)
DIIS solution               ....       0.288 sec  (  7.4%)
SOSCF solution              ....       0.773 sec  ( 20.0%)
Finished LeanSCF after   4.0 sec

Maximum memory used throughout the entire LEANSCF-calculation: 11.6 MB


           ************************************************************
           *        Program running with 8 parallel MPI-processes     *
           *              working on a common directory               *
           ************************************************************

------------------------------------------------------------------------------
                         ORCA PROPERTY INTEGRAL CALCULATIONS
------------------------------------------------------------------------------

GBWName                                   ... /cluster/projects/nn14654k/ylvaos/basis_set_n_funcs/functionals/N12/PO2/inp/PO2_N12_ccpvtz.gbw
Number of atoms                           ...      3
Number of basis functions                 ...    131
Max core memory                           ...   4096 MB

Dipole integrals                          ... YES
Quadrupole integrals                      ... YES
Linear momentum integrals                 ...  NO
Angular momentum integrals                ...  NO
Higher moments length integrals           ...  NO
Higher moments velocity integrals         ...  NO
Kinetic energy integrals                  ...  NO
GIAO right hand sides                     ...  NO
GIAO dipole derivative integrals          ...  NO
SOC integrals                             ...  NO
EPR diamagnetic integrals (GIAO)          ...  NO
EPR gauge integrals                       ...  NO
Field gradient integrals                  ...  NO (   0 nuclei)
Spin-dipole/Fermi contact integrals       ...  NO (   0 nuclei)
Contact density integrals                 ...  NO (   0 nuclei)
Nucleus-orbit integrals                   ...  NO (   0 nuclei)
Geometric perturbations                   ...  NO (   3 nuclei)

Choice of electric origin   ... Center of mass
Position of electric origin ... (  0.0000,  0.0000,  0.0084) 
Choice of magnetic origin   ... GIAO
Position of magnetic origin ... (  0.0000,  0.0000,  0.0000) 

Calculating integrals                     ... Electric Dipole (Length)     done (  0.0 sec)
Calculating integrals                     ... Electric Quadrupole (Length) done (  0.1 sec)

Property integrals calculated in   0.1 sec

Maximum memory used throughout the entire PROPINT-calculation: 7.7 MB
------------------------------------------------------------------------------
                           ORCA ORBITAL LOCALIZATION
------------------------------------------------------------------------------

Input orbitals are from                  ... /cluster/projects/nn14654k/ylvaos/basis_set_n_funcs/functionals/N12/PO2/inp/PO2_N12_ccpvtz.gbw
Output orbitals are to                   ... /cluster/projects/nn14654k/ylvaos/basis_set_n_funcs/functionals/N12/PO2/inp/PO2_N12_ccpvtz.loc
Max. number of iterations                ... 128
Localizations seeded randomly            ... on
Convergence tolerance                    ... 1.000e-06
Threshold for strong local MOs           ... 9.500e-01
Threshold for bond MOs                   ... 8.500e-01
Operator                                 ... 0
Orbital range for localization           ... 4 to 15
Localization criterion                   ... NEW-BOYS
Doing the dipole integrals               ... o.k.
Initial value of the localization sum :    31.717076
ITERATION   0 : L=   46.9942309727 DL=  1.53e+01 (AVERGE_DL)=    0.4811154218 
ITERATION   1 : L=   49.8794827613 DL=  2.89e+00 (AVERGE_DL)=    0.2090835627 
ITERATION   2 : L=   50.1699050571 DL=  2.90e-01 (AVERGE_DL)=    0.0663350421 
ITERATION   3 : L=   50.1767189947 DL=  6.81e-03 (AVERGE_DL)=    0.0101607814 
ITERATION   4 : L=   50.1779496248 DL=  1.23e-03 (AVERGE_DL)=    0.0043180910 
ITERATION   5 : L=   50.1782491305 DL=  3.00e-04 (AVERGE_DL)=    0.0021302501 
ITERATION   6 : L=   50.1783276160 DL=  7.85e-05 (AVERGE_DL)=    0.0010904927 
ITERATION   7 : L=   50.1783478200 DL=  2.02e-05 (AVERGE_DL)=    0.0005532824 
ITERATION   8 : L=   50.1783529768 DL=  5.16e-06 (AVERGE_DL)=    0.0002795218 
ITERATION   9 : L=   50.1783542864 DL=  1.31e-06 (AVERGE_DL)=    0.0001408630 
ITERATION  10 : L=   50.1783546183 DL=  3.32e-07 (AVERGE_DL)=    0.0000709154 
LOCALIZATION SUM CONVERGED


--------------------------------------------------------------------------------
                    LOCALIZED MOLECULAR ORBITAL COMPOSITIONS
--------------------------------------------------------------------------------

The Mulliken populations for each LMO on each atom are computed
The LMO`s will be ordered according to atom index and type
  (A) Strongly localized MO`s have populations of >=0.950 on one atom
  (B) Two center bond orbitals have populations of >=0.850 on two atoms
  (C) Other MO`s are considered to be `delocalized`

FOUND  -   4 strongly local MO`s
       -   8 two center bond MO`s
       -   0 significantly delocalized MO`s

Rather strongly localized orbitals:
MO   7:   0P  -   1.042710
MO   6:   0P  -   1.000727
MO   5:   0P  -   1.000727
MO   4:   0P  -   1.003954
Bond-like localized orbitals:
MO  15:   2O  -   0.878316  and   0P  -   0.121345
MO  14:   2O  -   0.728279  and   0P  -   0.269879
MO  13:   2O  -   0.728270  and   0P  -   0.269890
MO  12:   2O  -   0.949453  and   0P  -   0.050211
MO  11:   1O  -   0.728279  and   0P  -   0.269881
MO  10:   1O  -   0.878311  and   0P  -   0.121351
MO   9:   1O  -   0.949457  and   0P  -   0.050206
MO   8:   1O  -   0.728272  and   0P  -   0.269887
Localized MO's were stored in: /cluster/projects/nn14654k/ylvaos/basis_set_n_funcs/functionals/N12/PO2/inp/PO2_N12_ccpvtz.loc
------------------------------------------------------------------------------
                           ORCA ORBITAL LOCALIZATION
------------------------------------------------------------------------------

Input orbitals are from                  ... /cluster/projects/nn14654k/ylvaos/basis_set_n_funcs/functionals/N12/PO2/inp/PO2_N12_ccpvtz.loc
Output orbitals are to                   ... /cluster/projects/nn14654k/ylvaos/basis_set_n_funcs/functionals/N12/PO2/inp/PO2_N12_ccpvtz.loc
Max. number of iterations                ... 128
Localizations seeded randomly            ... on
Convergence tolerance                    ... 1.000e-06
Threshold for strong local MOs           ... 9.500e-01
Threshold for bond MOs                   ... 8.500e-01
Operator                                 ... 1
Orbital range for localization           ... 4 to 14
Localization criterion                   ... NEW-BOYS
Doing the dipole integrals               ... o.k.
Initial value of the localization sum :    28.819993
ITERATION   0 : L=   40.4558011160 DL=  1.16e+01 (AVERGE_DL)=    0.4599566812 
ITERATION   1 : L=   42.4070025876 DL=  1.95e+00 (AVERGE_DL)=    0.1883517730 
ITERATION   2 : L=   42.7467249073 DL=  3.40e-01 (AVERGE_DL)=    0.0785924262 
ITERATION   3 : L=   42.7677603370 DL=  2.10e-02 (AVERGE_DL)=    0.0195566449 
ITERATION   4 : L=   42.7692241961 DL=  1.46e-03 (AVERGE_DL)=    0.0051590328 
ITERATION   5 : L=   42.7693371391 DL=  1.13e-04 (AVERGE_DL)=    0.0014330074 
ITERATION   6 : L=   42.7693739617 DL=  3.68e-05 (AVERGE_DL)=    0.0008182305 
ITERATION   7 : L=   42.7693990490 DL=  2.51e-05 (AVERGE_DL)=    0.0006753758 
ITERATION   8 : L=   42.7694163265 DL=  1.73e-05 (AVERGE_DL)=    0.0005604793 
ITERATION   9 : L=   42.7694280897 DL=  1.18e-05 (AVERGE_DL)=    0.0004624674 
ITERATION  10 : L=   42.7694360877 DL=  8.00e-06 (AVERGE_DL)=    0.0003813360 
ITERATION  11 : L=   42.7694415263 DL=  5.44e-06 (AVERGE_DL)=    0.0003144575 
ITERATION  12 : L=   42.7694452290 DL=  3.70e-06 (AVERGE_DL)=    0.0002594675 
ITERATION  13 : L=   42.7694477511 DL=  2.52e-06 (AVERGE_DL)=    0.0002141395 
ITERATION  14 : L=   42.7694494697 DL=  1.72e-06 (AVERGE_DL)=    0.0001767687 
ITERATION  15 : L=   42.7694506425 DL=  1.17e-06 (AVERGE_DL)=    0.0001460251 
ITERATION  16 : L=   42.7694514424 DL=  8.00e-07 (AVERGE_DL)=    0.0001206015 
LOCALIZATION SUM CONVERGED


--------------------------------------------------------------------------------
                    LOCALIZED MOLECULAR ORBITAL COMPOSITIONS
--------------------------------------------------------------------------------

The Mulliken populations for each LMO on each atom are computed
The LMO`s will be ordered according to atom index and type
  (A) Strongly localized MO`s have populations of >=0.950 on one atom
  (B) Two center bond orbitals have populations of >=0.850 on two atoms
  (C) Other MO`s are considered to be `delocalized`

FOUND  -   3 strongly local MO`s
       -   8 two center bond MO`s
       -   0 significantly delocalized MO`s

Rather strongly localized orbitals:
MO   6:   0P  -   1.000468
MO   5:   0P  -   1.000467
MO   4:   0P  -   1.003668
Bond-like localized orbitals:
MO  14:   2O  -   0.568010  and   0P  -   0.424090
MO  13:   2O  -   0.762166  and   0P  -   0.235727
MO  12:   2O  -   0.762463  and   0P  -   0.235419
MO  11:   2O  -   0.939746  and   0P  -   0.057488
MO  10:   1O  -   0.568017  and   0P  -   0.424082
MO   9:   1O  -   0.762223  and   0P  -   0.235672
MO   8:   1O  -   0.762399  and   0P  -   0.235483
MO   7:   1O  -   0.939745  and   0P  -   0.057488
Localized MO's were stored in: /cluster/projects/nn14654k/ylvaos/basis_set_n_funcs/functionals/N12/PO2/inp/PO2_N12_ccpvtz.loc

-------------------------   --------------------
FINAL SINGLE POINT ENERGY      -491.792548190765
-------------------------   --------------------



           ************************************************************
           *        Program running with 8 parallel MPI-processes     *
           *              working on a common directory               *
           ************************************************************

------------------------------------------------------------------------------
                              ORCA PROPERTY CALCULATIONS
------------------------------------------------------------------------------

GBWName                                 ... /cluster/projects/nn14654k/ylvaos/basis_set_n_funcs/functionals/N12/PO2/inp/PO2_N12_ccpvtz.gbw
Number of atoms                         ...      3
Number of basis functions               ...    131
Max core memory                         ...   4096 MB

Electric properties:
Dipole moment                           ... YES
Quadrupole moment                       ... YES
Static polarizability (Dipole/Dipole)   ...  NO
Static polarizability (Dipole/Quad.)    ...  NO
Static polarizability (Quad./Quad.)     ...  NO
Static polarizability (Velocity)        ...  NO
Static hyperpolarizability              ...  NO

Atomic electric properties:
Dipole moment                           ...  NO
Quadrupole moment                       ...  NO
Static polarizability                   ...  NO

Choice of electric origin               ... Center of mass
Position of electric origin             ...     0.000000     0.000000     0.008437

General magnetic properties:
Magnetizability                         ...  NO

EPR properties:
g-Tensor (aka g-matrix)                 ...  NO
Zero-Field splitting spin-orbit         ...  NO
Zero-field splitting spin-spin          ...  NO
Hyperfine couplings                     ...  NO (   0 nuclei)
Quadrupole couplings                    ...  NO (   0 nuclei)
Contact density                         ...  NO (   0 nuclei)

NMR properties:
Chemical shifts                         ...  NO (   0 nuclei)
Spin-rotation constants                 ...  NO (   0 nuclei)
Spin-spin couplings                     ...  NO (   0 nuclei,    0 pairs)

Choice of magnetic origin               ... GIAO
Position of magnetic origin             ...     0.000000     0.000000     0.000000

Properties with geometric perturbations:
SCF Hessian                             ...  NO
IR spectrum                             ...  NO
VCD spectrum                            ...  NO
X-ray spectroscopy properties:
SCF XES/XAS/RIXS spectra                ...  NO

SCF SOC stabilization energy            ...  NO
Diagonal Born-Oppenheimer correction    ...  NO

-------------
DIPOLE MOMENT
-------------

Method             : SCF
Type of density    : Electron Density
Multiplicity       :   2
Irrep              :   0
Energy             :  -491.7925481907649896 Eh
Basis              : AO
                                X                 Y                 Z
Electronic contribution:     -0.000000000      -0.000000001       0.760210413
Nuclear contribution   :      0.000000000       0.000000000      -0.261362976
                        -----------------------------------------
Total Dipole Moment    :     -0.000000000      -0.000000001       0.498847437
                        -----------------------------------------
Magnitude (a.u.)       :      0.498847437
Magnitude (Debye)      :      1.267969417



--------------------
Rotational spectrum 
--------------------
 
Rotational constants in cm-1:             3.442444             0.286393             0.264396 
Rotational constants in MHz :        103201.869580          8585.841533          7926.407020 

Dipole components along the rotational axes: 
x,y,z [a.u.] :    -0.000000     0.498847    -0.000000 
x,y,z [Debye]:    -0.000000     1.267969    -0.000000 

 

Dipole moment calculation done in   0.0 sec 

-----------------
QUADRUPOLE MOMENT
-----------------

Method             : SCF
Type of density    : Electron Density
Multiplicity       :   2
Irrep              :   0
Energy             :  -491.7925481907649896 Eh
Basis              : AO

                XX              YY              ZZ              XY              XZ              YZ
  NUC        0.000000000   105.106420135     8.604299986     0.000000000     0.000000000     0.000000000
  EL       -15.144663163  -125.655175449   -24.424391818     0.000000000     0.000000000     0.000000001
  TOT      -15.144663163   -20.548755314   -15.820091832     0.000000000     0.000000000     0.000000001 (a.u.)
           -20.370089902   -27.638778664   -21.278564561     0.000000000     0.000000000     0.000000001 (Buckingham)

diagonalized tensor:
           -20.548755314   -15.820091832   -15.144663163 (a.u.)
           -27.638778664   -21.278564561   -20.370089902 (Buckingham)
           -13.628902866     5.451739443     8.177163422 (traceless form in Buckingham)

            -0.000000000    -0.000000000     1.000000000
             1.000000000     0.000000000     0.000000000
            -0.000000000     1.000000000     0.000000000
        
Isotropic quadrupole :   -17.171170103

Quadrupole moment calculation done in   0.0 sec (  0.0 sec for integrals)

Maximum memory used throughout the entire PROP-calculation: 4.0 MB

--------------------------------
SUGGESTED CITATIONS FOR THIS RUN
--------------------------------

Below you find a list of papers that are relevant to this ORCA run
We neither can nor want to force you to cite these papers, but we appreciate if you do
You receive ORCA, which is the product of decades of hard work by many enthusiastic individuals, for free
The only thing we kindly ask in return is that you cite our papers,
We deeply appreciate it, if you show your appreciation for ORCA by not just citing the generic ORCA reference.

Please note that relegating all ORCA citations to the supporting information does *not* help us.
SI sections are not indexed - citations you put there will not count into any citation statistics
But we need these citations in order to attract the funding resources that allow us to do what we are doing

Therefore, if you are a happy ORCA user, please consider citing a few of the papers listed below in the main body of your paper

In addition to the list printed below, the program has created the file /cluster/projects/nn14654k/ylvaos/basis_set_n_funcs/functionals/N12/PO2/inp/PO2_N12_ccpvtz.bibtex that contains the list in bibtex format
You can import this file easily into all common literature databanks and citation aid programs

It goes without saying that in many instances, there are alternative algorithms to achieve similar
results as the ones you have gotten from ORCA. It is, of course, also the case that in some instances
ORCA just re-implements algorithms worked out by others. We are fully aware of that and we are also
fully appreciative of our colleagues work. Hence this citation list should not be read as indicating
that the listed papers, which are focused on our own work, are the only ones worth citing. It simply
meant to make it easier for users to cite ORCA specific papers. It is not a substitute for doing your
own literature research and citing the relevant literature in a scientifically appropriate manner.

List of essential papers. We consider these as the minimum necessary citations

  1. Neese, F.
     Software update: the ORCA program system, version 6.0
     WIRES Comput. Molec. Sci. 2025 15(1), e70019
     doi.org/10.1002/wcms.70019

List of papers to cite with high priority. The work reported in these papers was absolutely
necessary for this run to complete.
Our perspective: the developers of density functionals and basis sets usually get cited in chemistry papers
Good! But without the algorithms to do something with them, the functionals or basis sets would not do anything.
Hence, in our opinion, the algorithm design and method developments papers are equally worthy of getting cited

  1. Lehtola, S.; Steigemann, C.; Oliveira, M.; Marques, M.
     Recent developments in Libxc - A comprehensive library of functionals for density functional theory
     Software X 2018 7 , 
     doi.org/10.1016/j.softx.2017.11.002
  2. Neese, F.
     The SHARK Integral Generation and Digestion System
     J. Comp. Chem. 2022 44(3), 381
     doi.org/10.1002/jcc.26942

List of suggested additional citations. These are papers that are important in the 'surrounding' of 
of this run, or papers that preceded the highly important papers. If you like your results we are grateful for a citation.

  1. Neese, F.
     The ORCA program system
     WIRES Comput. Molec. Sci. 2012 2(1), 73-78
     doi.org/10.1002/wcms.81
  2. Neese, F.
     Software update: the ORCA program system, version 4.0
     WIRES Comput. Molec. Sci. 2018 8(1), 1-6
     doi.org/10.1002/wcms.1327
  3. Neese, F.; Wennmohs, F.; Becker, U.; Riplinger, C.
     The ORCA quantum chemistry program package
     J. Chem. Phys. 2020 152(22), 224108
     doi.org/10.1063/5.0004608
  4. Neese, F.
     Software update: The ORCA program system—Version 5.0
     WIRES Comput. Molec. Sci. 2022 12(1), e1606
     doi.org/10.1002/wcms.1606

List of optional additional citations

  1. Neese, F.
     Approximate second-order SCF convergence for spin unrestricted wavefunctions
     Chem. Phys. Lett. 2000 325(1-3), 93-98
     doi.org/10.1016/s0009-2614(00)00662-x

Timings for individual modules:

Sum of individual times          ...        6.306 sec (=   0.105 min)
Startup calculation              ...        0.824 sec (=   0.014 min)  13.1 %
SCF iterations                   ...        4.707 sec (=   0.078 min)  74.6 %
Property integrals               ...        0.422 sec (=   0.007 min)   6.7 %
Property calculations            ...        0.308 sec (=   0.005 min)   4.9 %
Orbital localization             ...        0.046 sec (=   0.001 min)   0.7 %
                             ****ORCA TERMINATED NORMALLY****
TOTAL RUN TIME: 0 days 0 hours 0 minutes 7 seconds 885 msec
