
                                 *****************
                                 * O   R   C   A *
                                 *****************

                                            #,                                       
                                            ###                                      
                                            ####                                     
                                            #####                                    
                                            ######                                   
                                           ########,                                 
                                     ,,################,,,,,                         
                               ,,#################################,,                 
                          ,,##########################################,,             
                       ,#########################################, ''#####,          
                    ,#############################################,,   '####,        
                  ,##################################################,,,,####,       
                ,###########''''           ''''###############################       
              ,#####''   ,,,,##########,,,,          '''####'''          '####       
            ,##' ,,,,###########################,,,                        '##       
           ' ,,###''''                  '''############,,,                           
         ,,##''                                '''############,,,,        ,,,,,,###''
      ,#''                                            '''#######################'''  
     '                                                          ''''####''''         
             ,#######,   #######,   ,#######,      ##                                
            ,#'     '#,  ##    ##  ,#'     '#,    #''#        ,####,    ,#,          
            ##       ##  ##   ,#'  ##            #'  '#       #'       ,# #          
            ##       ##  #######   ##           ,######,      #####,      #          
            '#,     ,#'  ##    ##  '#,     ,#' ,#      #,     #,   #      #          
             '#######'   ##     ##  '#######'  #'      '#     '####' #    #          



                #########################################################
                #                        -***-                          #
                #          Department of theory and spectroscopy        #
                #                                                       #
                #                      Frank Neese                      #
                #                                                       #
                #     Directorship, Architecture, Infrastructure        #
                #                    SHARK, DRIVERS                     #
                #        Core code/Algorithms in most modules           #
                #                                                       #
                #        Max Planck Institute fuer Kohlenforschung      #
                #                Kaiser Wilhelm Platz 1                 #
                #                 D-45470 Muelheim/Ruhr                 #
                #                      Germany                          #
                #                                                       #
                #                  All rights reserved                  #
                #                        -***-                          #
                #########################################################


                         Program Version 6.1.1  -  RELEASE   -
                                (GIT: $487d211c$)
                          ($2025-11-21 10:33:24 +0100$)


 With contributions from (in alphabetic order):
[Max-Planck-Institut fuer Kohlenforschung]                               
  Daniel Aravena         : Magnetic Suceptibility                        
  Michael Atanasov       : Ab Initio Ligand Field Theory (pilot matlab implementation)
  Alexander A. Auer      : GIAO ZORA, VPT2 properties, NMR spectrum      
  Ute Becker             : All parallelization in ORCA, NUMFREQ, NUMCALC 
  Giovanni Bistoni       : ED, misc. LED, open-shell LED, HFLD           
  Dmytro Bykov           : pre 5.0 version of the SCF Hessian            
  Marcos Casanova-Páez   : Triplet and SCS-CIS(D). UHF-(DLPNO)-IP/EA/STEOM-CCSD. UHF-CVS-IP/STEOM-CCSD   
  Vijay G. Chilkuri      : MRCI spin determinant printing, contributions to CSF-ICE 
  Pauline Colinet        : FMM embedding                                 
  Dipayan Datta          : RHF DLPNO-CCSD density                        
  Achintya Kumar Dutta   : EOM-CC, STEOM-CC                              
  Nicolas Foglia         : Exact transition moments, OPA infrastructure, MCD improvements    
  Dmitry Ganyushin       : Spin-Orbit,Spin-Spin,Magnetic field MRCI      
  Miquel Garcia-Rates    : C-PCM and meta-GGA Hessian, CCSD/C-PCM, Gaussian charge scheme 
  Tiago L. C. Gouveia    : GS-ROHF, GS-ROCIS                             
  Yang Guo               : DLPNO-NEVPT2, F12-NEVPT2, CIM, IAO-localization        
  Andreas Hansen         : Spin unrestricted coupled pair/coupled cluster methods 
  Ingolf Harden          : AUTO-CI MPn and infrastructure                
  Benjamin Helmich-Paris : MC-RPA, TRAH-(SCF,CASSCF), AVAS, COSX integrals, SCF dyn. polar., MC-PDFT, srDFT 
  Lee Huntington         : MR-EOM, pCC                                   
  Robert Izsak           : Overlap fitted RIJCOSX, COSX-SCS-MP3, EOM     
  Riya Kayal             : Wick's Theorem for AUTO-CI, AUTO-CI UHF-CCSDT 
  Emily Kempfer          : AUTO-CI RHF CISDT and CCSDT, approximate NEVPT4
  Christian Kollmar      : KDIIS, OOCD, Brueckner-CCSD(T), CCSD density, CASPT2, CASPT2-K, improved NEVPT2 
  Axel Koslowski         : Symmetry handling                             
  Simone Kossmann        : meta-GGA functionals, TD-DFT gradient, OOMP2, (MP2 Hessian; deprecated post 5.0) 
  Lucas Lang             : DCDCAS, Hyperfine gauge corrections, ICE-SOC+SSC
  Marvin Lechner         : AUTO-CI (C++ implementation), FIC-MRCC        
  Spencer Leger          : CASSCF response                               
  Dagmar Lenk            : GEPOL surface, SMD, ORCA-2-JSON               
  Dimitrios Liakos       : Extrapolation schemes; Compound Job, Property file
  Dimitrios Manganas     : Further ROCIS development; embedding schemes. LFT, Crystal Embedding 
  Dimitrios Pantazis     : SARC Basis sets                               
  Anastasios Papadopoulos: AUTO-CI, single reference methods and gradients 
  Taras Petrenko         : pre 6.0 DFT Hessian and TD-DFT gradient,  ECA, NRVS 
  Petra Pikulova         : Analytic Raman intensities                    
  Peter Pinski           : DLPNO-MP2, DLPNO-MP2 Gradient                 
  Shashank Vittal Rao    : ES-AILFT, MagRelax                            
  Christoph Reimann      : Effective Core Potentials                     
  Marius Retegan         : Local ZFS, SOC                                
  Christoph Riplinger    : Optimizer, TS searches, QM/MM, DLPNO-CCSD(T), (RO)-DLPNO pert. Triples 
  Michael Roemelt        : Original ROCIS implementation, recursive CI coupling coefficients
  Masaaki Saitow         : Open-shell DLPNO-CCSD energy and density      
  Barbara Sandhoefer     : DKH picture change effects                    
  Yorick L. A. Schmerwitz: GMF and freeze-and-release deltaSCF, NEB S-IDPP initial path                    
  Kantharuban Sivalingam : CASSCF convergence/infrastructure, NEVPT2, NEVPT3, NEVPT4(SD), FIC-MRCI and CEPA variants
  Bernardo de Souza      : ESD, SOC TD-DFT                               
  Georgi L. Stoychev     : AutoAux, RI-MP2 NMR, DLPNO-MP2 response, X2C  
  Van Anh Tran           : RI-MP2 g-tensors                              
  Willem Van den Heuvel  : Paramagnetic NMR                              
  Zikuan Wang            : NOTCH, Electric field optimization            
  Frank Wennmohs         : Technical directorship and infrastructure     
  Hang Xu                : AUTO-CI-Response properties                   
                                                                         
[FACCTs GmbH]                                                            
  Markus Bursch, Nicolas Foglia, Miquel Garcia-Rates, Ingolf Harden, Hagen Neugebauer, Anastasios Papadopoulos, 
  Christoph Riplinger, Bernardo de Souza, Georgi L. Stoychev                                                    
                                                                 
  APM, various basis sets, CI-OPT, improved COSX, DLPNO-Multilevel,           
  DOCKER, DRACO, updates on ESD, Fragmentator, GOAT, IRC, LR-CPCM, L-BFGS, MBIS, meta-GGA TD-DFT gradient, ML-optimized integration grids, 
  MM, NACMEs, nearIR, NEB, NEB-TS, NL-DFT gradient (VV10), 2- and 3-layer-ONIOM, interface openCOSMO-RS, QMMM,   
  Crystal-QMMM, RESP, rigid body optimization, SF, symmetry and pop. for TD-DFT, various functionals, SOLVATOR                                   
                                                                         
[Other institutions]                                                     
  V. Asgeirsson          : NEB                                           
  Christoph Bannwarth    : sTDA-DFT, sTD-DFT, PBEh-3c, B97-3c, D3        
  Giovanni Bistoni       : ETS/NOCV, ADLD/ADEX, COVALED                  
  Martin Brehm           : Molecular dynamics                            
  Ronald Cardenas        : ETS/NOCV                                      
  Martina Colucci        : COVALED                                       
  Sebastian Ehlert       : rSCAN, r2SCAN, r2SCAN-3c, D4, dhf basis sets  
  Marvin Friede          : D4 for Fr, Ra, Ac-Lr                          
  Lars Goerigk           : TD-DFT with DH, B97 family of functionals     
  Stefan Grimme          : VdW corrections, initial TS optimization, DFT functionals, gCP, sTDA/sTD-DF 
  Waldemar Hujo          : DFT-NL                                        
  H. Jonsson             : NEB                                           
  Holger Kruse           : gCP                                           
  Marcel Mueller         : wB97X-3c, vDZP basis set                      
  Hagen Neugebauer       : wr2SCAN, Native XTB                           
  Gianluca Regni         : ADLD/ADEX                                     
  Tobias Risthaus        : pre 6.0 range-separated hybrid DFT and stability analysis
  Lukas Wittmann         : regularized MP2, r2SCAN double-hybrids, wr2SCAN        
                                                                         
We gratefully acknowledge several colleagues who have allowed us to      
interface, adapt or use parts of their codes:                            
  Ed Valeev, F. Pavosevic, A. Kumar             : LibInt (2-el integral package), F12 methods 
  Garnet Chan, S. Sharma, J. Yang, R. Olivares  : DMRG                   
  Ulf Ekstrom                                   : XCFun DFT Library      
  Mihaly Kallay                                 : mrcc  (arbitrary order and MRCC methods)
  Frank Weinhold                                : gennbo (NPA and NBO analysis)           
  Simon Mueller                                 : openCOSMO-RS                            
  Christopher J. Cramer and Donald G. Truhlar   : smd solvation model                     
  S Lehtola, MJT Oliveira, MAL Marques          : LibXC Library                           
  Liviu Ungur et al                             : ANISO software                          


 Your calculation uses the libint2 library for the computation of 2-el integrals
 For citations please refer to: http://libint.valeyev.net

 Your ORCA version has been built with support for libXC version: 7.0.0
 For citations please refer to: https://libxc.gitlab.io

 This ORCA versions uses:
   CBLAS   interface :  Fast vector & matrix operations
   LAPACKE interface :  Fast linear algebra routines
   SCALAPACK package :  Parallel linear algebra routines
   Shared memory     :  Shared parallel matrices
   BLAS/LAPACK       :  OpenBLAS 0.3.29  USE64BITINT DYNAMIC_ARCH NO_AFFINITY Cooperlake SINGLE_THREADED
        Core in use  :  Cooperlake
   Copyright (c) 2011-2014, The OpenBLAS Project


  ***********************************
  * Starting time: Wed May 20 12:40:04 2026
  * Host name:     c1-37
  * Process ID:    685625
  * Working dir.:  /cluster/projects/nn14654k/ylvaos/basis_set_n_funcs/functionals/N12/PO2/out
  ***********************************

Using LibXC functional ID  82 : Minnesota N12 exchange functional
[ 1]  R. Peverati and D. G. Truhlar.,  J. Chem. Theory Comput. 8, 2310 (2012)
Using LibXC functional ID  80 : Minnesota N12 correlation functional
[ 1]  R. Peverati and D. G. Truhlar.,  J. Chem. Theory Comput. 8, 2310 (2012)
Using LibXC functional ID  82 : Minnesota N12 exchange functional
[ 1]  R. Peverati and D. G. Truhlar.,  J. Chem. Theory Comput. 8, 2310 (2012)
Using LibXC functional ID  80 : Minnesota N12 correlation functional
[ 1]  R. Peverati and D. G. Truhlar.,  J. Chem. Theory Comput. 8, 2310 (2012)
Your calculation utilizes LibXC
by S. Lehtola, C. Steigemann, M. J. T. Oliveira & M. A. L. Marques
Please cite in your paper:
Lehtola, S.; Steigemann, C.; Oliveira, M.J.T.; Marques, M. A. L. Software X, 7, (2018), 1.
   

================================================================================

----- Orbital basis set information -----
Your calculation utilizes the basis: pc-4
   H, C-F              : F. Jensen, J. Chem. Phys. 115, 9113 (2001).
                         F. Jensen, J. Chem. Phys. 116, 7372 (2002).
                         F. Jensen, J. Chem. Phys. 117, 9234 (2002).
   Si-Cl               : F. Jensen, T. Helgaker, J. Chem. Phys. 121, 3463 (2004).
   He-B, Ne-Mg, Al, Ar : F. Jensen, J. Phys. Chem. A 111, 11198 (2007).
   K, Ca, Ga-Kr        : F. Jensen, J. Chem. Phys. 136, 094110 (2012).
   Sc-Zn               : F. Jensen, J. Chem. Phys. 138, 014107 (2013).

================================================================================
                                        WARNINGS
                       Please study these warnings very carefully!
================================================================================


WARNING: The basis set has functions with high angular momentum (Lmax>4).
         We might need to increase small grids for safety reasons and
         in general, DEFGRID3 is recommend for such cases.
  ===> : GRIDX1, TD-DFT and the CP-SCF AngGrids will be increased to at least 2


WARNING: your system is open-shell and RHF/RKS was chosen
  ===> : WILL SWITCH to UHF/UKS


================================================================================
                                       INPUT FILE
================================================================================
NAME = /cluster/projects/nn14654k/ylvaos/basis_set_n_funcs/functionals/N12/PO2/inp/PO2_N12_pc4.inp
|  1> ! dft pc-4 TightSCF
|  2> %pal nprocs 8 end
|  3> 
|  4> %loc
|  5>   LocMet NewBoys
|  6>   Occ true
|  7> end
|  8> 
|  9> %method
| 10>   exchange gga_x_N12
| 11>   correlation gga_c_N12
| 12> end
| 13> 
| 14> %elprop
| 15>   Dipole true
| 16>   Quadrupole true
| 17> end
| 18> 
| 19> * xyz 0 2
| 20> P    0.000000000000   0.000000000000   0.287900000000
| 21> O    0.000000000000   1.356300000000  -0.269900000000
| 22> O    0.000000000000  -1.356300000000  -0.269900000000
| 23> *
| 24> 
| 25> 
| 26>                          ****END OF INPUT****
================================================================================

                       ****************************
                       * Single Point Calculation *
                       ****************************

---------------------------------
CARTESIAN COORDINATES (ANGSTROEM)
---------------------------------
  P      0.000000    0.000000    0.287900
  O      0.000000    1.356300   -0.269900
  O      0.000000   -1.356300   -0.269900

----------------------------
CARTESIAN COORDINATES (A.U.)
----------------------------
  NO LB      ZA    FRAG     MASS         X           Y           Z
   0 P    15.0000    0    30.974    0.000000    0.000000    0.544052
   1 O     8.0000    0    15.999    0.000000    2.563036   -0.510037
   2 O     8.0000    0    15.999    0.000000   -2.563036   -0.510037

--------------------------------
INTERNAL COORDINATES (ANGSTROEM)
--------------------------------
 P      0   0   0     0.000000000000     0.00000000     0.00000000
 O      1   0   0     1.466523279733     0.00000000     0.00000000
 O      1   2   0     1.466523279733   135.28860674     0.00000000

---------------------------
INTERNAL COORDINATES (A.U.)
---------------------------
 P      0   0   0     0.000000000000     0.00000000     0.00000000
 O      1   0   0     2.771327367716     0.00000000     0.00000000
 O      1   2   0     2.771327367716   135.28860674     0.00000000

---------------------
BASIS SET INFORMATION
---------------------
There are 2 groups of distinct atoms

 Group   1 Type P   : 43s26p6d3f2g1h contracted to 7s6p6d3f2g1h pattern {1512121111/11111111/111111/111/11/1}
 Group   2 Type O   : 26s11p6d3f2g1h contracted to 8s7p6d3f2g1h pattern {119111111/5111111/111111/111/11/1}

Atom   0P    basis set group =>   1
Atom   1O    basis set group =>   2
Atom   2O    basis set group =>   2


           ************************************************************
           *        Program running with 8 parallel MPI-processes     *
           *              working on a common directory               *
           ************************************************************
------------------------------------------------------------------------------
                             ORCA STARTUP CALCULATIONS
------------------------------------------------------------------------------
------------------------------------------------------------------------------
                   ___                                                        
                  /   \      - P O W E R E D   B Y -                         
                 /     \                                                     
                 |  |  |   _    _      __       _____    __    __             
                 |  |  |  | |  | |    /  \     |  _  \  |  |  /  |          
                  \  \/   | |  | |   /    \    | | | |  |  | /  /          
                 / \  \   | |__| |  /  /\  \   | |_| |  |  |/  /          
                |  |  |   |  __  | /  /__\  \  |    /   |      \           
                |  |  |   | |  | | |   __   |  |    \   |  |\   \          
                \     /   | |  | | |  |  |  |  | |\  \  |  | \   \       
                 \___/    |_|  |_| |__|  |__|  |_| \__\ |__|  \__/        
                                                                              
                      - O R C A' S   B I G   F R I E N D -                    
                                      &                                       
                       - I N T E G R A L  F E E D E R -                       
                                                                              
 v1 FN, 2020, v2 2021, v3 2022-2024                                           
------------------------------------------------------------------------------


----------------------
SHARK INTEGRAL PACKAGE
----------------------

Number of atoms                             ...      3
Number of basis functions                   ...    323
Number of shells                            ...     79
Maximum angular momentum                    ...      5
Integral batch strategy                     ... SHARK/LIBINT Hybrid
RI-J (if used) integral strategy            ... SPLIT-RIJ (Revised 2003 algorithm where possible)
Printlevel                                  ...      1
Contraction scheme used                     ... SEGMENTED contraction
Prescreening option                         ... SCHWARTZ
   Thresh                                   ... 2.500e-11
   Tcut                                     ... 2.500e-12
   Tpresel                                  ... 2.500e-12 
Coulomb Range Separation                    ... NOT USED
Exchange Range Separation                   ... NOT USED
Multipole approximations                    ... NOT USED
Finite Nucleus Model                        ... NOT USED
CABS basis                                  ... NOT available
Auxiliary Coulomb fitting basis             ... NOT available
Auxiliary J/K fitting basis                 ... NOT available
Auxiliary Correlation fitting basis         ... NOT available
Auxiliary 'external' fitting basis          ... NOT available

Checking pre-screening integrals            ... done (  0.0 sec) Dimension = 79
   => SHARK Basis and OBASIS are compatible. Storing Pre-screening
Shell pair information
Shell pair cut-off parameter TPreSel        ...   2.5e-12
Total number of shell pairs                 ...      3160
Shell pairs after pre-screening             ...      2987
Total number of primitive shell pairs       ...     16659
Primitive shell pairs kept                  ...     12306
          la=0 lb=0:    250 shell pairs
          la=1 lb=0:    434 shell pairs
          la=1 lb=1:    202 shell pairs
          la=2 lb=0:    378 shell pairs
          la=2 lb=1:    342 shell pairs
          la=2 lb=2:    157 shell pairs
          la=3 lb=0:    199 shell pairs
          la=3 lb=1:    176 shell pairs
          la=3 lb=2:    158 shell pairs
          la=3 lb=3:     45 shell pairs
          la=4 lb=0:    130 shell pairs
          la=4 lb=1:    116 shell pairs
          la=4 lb=2:    104 shell pairs
          la=4 lb=3:     54 shell pairs
          la=4 lb=4:     20 shell pairs
          la=5 lb=0:     63 shell pairs
          la=5 lb=1:     58 shell pairs
          la=5 lb=2:     50 shell pairs
          la=5 lb=3:     27 shell pairs
          la=5 lb=4:     18 shell pairs
          la=5 lb=5:      6 shell pairs

Checking whether 4 symmetric matrices of dimension 323 fit in memory
:Max Core in MB      =   4096.00
 MB in use           =     11.15
 MB left             =   4084.85
 MB needed           =      1.60
 Data fit in memory  = YES
Calculating Nuclear repulsion               ... done (  0.0 sec) ENN=     99.086296046297 Eh

Diagonalization of the overlap matrix:
Smallest eigenvalue                        ... 1.430e-05
Time for diagonalization                   ...    0.006 sec
Threshold for overlap eigenvalues          ... 1.000e-07
Number of eigenvalues below threshold      ... 0
Time for construction of square roots      ...    0.004 sec
Total time needed                          ...    0.012 sec

-------------------
DFT GRID GENERATION
-------------------

General Integration Accuracy     IntAcc      ... 4.388
Radial Grid Type                 RadialGrid  ... OptM3 with GC (2021)
Angular Grid (max. ang.)         AngularGrid ... 4 (Lebedev-302)
Angular grid pruning method      GridPruning ... 4 (adaptive)
Weight generation scheme         WeightScheme... mBecke (2022)
Basis function cutoff            BFCut       ... 1.0000e-11
Integration weight cutoff        WCut        ... 1.0000e-14
Partially contracted basis set               ... off
Rotationally invariant grid construction     ... off
Angular grids for H and He will be reduced by one unit
Diffuse basis detected: some atoms will have their outermost
                        angular grid increased by 1.
Core-polarized basis detected: some atoms will have their core
                               angular grid increased.

Total number of grid points                  ...    26050
Total number of batches                      ...      408
Average number of points per batch           ...       63
Average number of grid points per atom       ...     8683
Grids setup in   0.1 sec
Initializing property integral containers    ... done (  0.0 sec)

SHARK setup successfully completed in   0.4 seconds

Maximum memory used throughout the entire STARTUP-calculation: 100.0 MB


           ************************************************************
           *        Program running with 8 parallel MPI-processes     *
           *              working on a common directory               *
           ************************************************************
-------------------------------------------------------------------------------
                                 ORCA GUESS
                   Start orbitals & Density for SCF / CASSCF
-------------------------------------------------------------------------------

------------
SCF SETTINGS
------------
Hamiltonian:
 Density Functional     Method          .... DFT(GTOs)
  Functional kind                       .... Exchange
  Functional name                       .... Minnesota N12 exchange functional
  Functional family                     .... GGA
  Functional refs                              
    [ 0] R. Peverati and D. G. Truhlar.,  J. Chem. Theory Comput. 8, 2310 (2012), doi: 10.1021/ct3002656
  Functional external parameters        .... 16
    Parameter  0 _CC00      =  1.000000e+00 : _CC00               
    Parameter  1 _CC01      =  5.078800e-01 : _CC01               
    Parameter  2 _CC02      =  1.682330e-01 : _CC02               
    Parameter  3 _CC03      =  1.288870e-01 : _CC03               
    Parameter  4 _CC10      =  8.602110e-02 : _CC10               
    Parameter  5 _CC11      = -1.710080e+01 : _CC11               
    Parameter  6 _CC12      =  6.508140e+01 : _CC12               
    Parameter  7 _CC13      = -7.017260e+01 : _CC13               
    Parameter  8 _CC20      = -3.907550e-01 : _CC20               
    Parameter  9 _CC21      =  5.133920e+01 : _CC21               
    Parameter 10 _CC22      = -1.662200e+02 : _CC22               
    Parameter 11 _CC23      =  1.427380e+02 : _CC23               
    Parameter 12 _CC30      =  4.036110e-01 : _CC30               
    Parameter 13 _CC31      = -3.446310e+01 : _CC31               
    Parameter 14 _CC32      =  7.616610e+01 : _CC32               
    Parameter 15 _CC33      = -2.418340e+00 : _CC33               
  Functional kind                       .... Correlation
  Functional name                       .... Minnesota N12 correlation functional
  Functional family                     .... GGA
  Functional refs                              
    [ 0] R. Peverati and D. G. Truhlar.,  J. Chem. Theory Comput. 8, 2310 (2012), doi: 10.1021/ct3002656
  Functional external parameters        .... 10
    Parameter  0 _css0      =  1.000000e+00 : u^0 coefficient for same-spin correlation
    Parameter  1 _css1      = -5.531700e+00 : u^1 coefficient for same-spin correlation
    Parameter  2 _css2      =  3.079580e+01 : u^2 coefficient for same-spin correlation
    Parameter  3 _css3      = -5.641960e+01 : u^3 coefficient for same-spin correlation
    Parameter  4 _css4      =  3.212500e+01 : u^4 coefficient for same-spin correlation
    Parameter  5 _cos0      =  1.000000e+00 : u^0 coefficient for opposite-spin correlation
    Parameter  6 _cos1      =  3.245110e+00 : u^1 coefficient for opposite-spin correlation
    Parameter  7 _cos2      = -2.528930e+01 : u^2 coefficient for opposite-spin correlation
    Parameter  8 _cos3      =  1.444070e+01 : u^3 coefficient for opposite-spin correlation
    Parameter  9 _cos4      =  1.968700e+01 : u^4 coefficient for opposite-spin correlation
 Gradients option       PostSCFGGA      .... off


General Settings:
 Integral files         IntName         .... /cluster/projects/nn14654k/ylvaos/basis_set_n_funcs/functionals/N12/PO2/inp/PO2_N12_pc4
 Hartree-Fock type      HFTyp           .... UHF
 Total Charge           Charge          ....    0
 Multiplicity           Mult            ....    2
 Number of Electrons    NEL             ....   31
 Basis Dimension        Dim             ....  323
 Nuclear Repulsion      ENuc            ....     99.0862960463 Eh

Convergence Acceleration:
 AO-DIIS                CNVDIIS         .... on
   Start iteration      DIISMaxIt       ....    12
   Startup error        DIISStart       ....  0.200000
   # of expansion vecs  DIISMaxEq       ....     5
   Bias factor          DIISBfac        ....   1.050
   Max. coefficient     DIISMaxC        ....  10.000
 MO-DIIS                CNVKDIIS        .... off
 Trust-Rad. Augm. Hess. CNVTRAH         .... auto
   Auto Start mean grad. ratio tolernc. ....  1.125000
   Auto Start start iteration           ....    50
   Auto Start num. interpolation iter.  ....    10
   Max. Number of Micro iterations      ....    24
   Max. Number of Macro iterations      .... Maxiter - #DIIS iter
   Number of Davidson start vectors     ....     2
   Converg. threshold    (grad. norm)   ....   1.000e-05
   Grad. Scal. Fac. for Micro threshold ....   0.100
   Minimum threshold for Micro iter.    ....   1.000e-02
   NR start threshold (gradient norm)   ....   1.000e-04
   Initial trust radius                 ....   0.400
   Minimum AH scaling param. (alpha)    ....   1.000
   Maximum AH scaling param. (alpha)    .... 1000.000
   Quad. conv. algorithm                .... NR
   White noise on init. David. guess    .... on
   Maximum white noise                  ....   0.010
   Pseudo random numbers                .... off
   Inactive MOs                         .... canonical
   Orbital update algorithm             .... Taylor
   Preconditioner                       .... Diag
   Full preconditioner red. dimension   ....   250
 SOSCF                 CNVSOSCF           .... on
   Start iteration     SOSCFMaxIt         ....   150
   Startup grad/error  SOSCFStart         ....  0.003300
   Hessian update      SOSCFHessUp        .... L-BFGS
   Autom. constraints  SOSCFAutoConstrain .... off
 Level Shifting         CNVShift        .... on
   Level shift para.    LevelShift      ....    0.2500
   Turn off err/grad.   ShiftErr        ....    0.0010
 Zerner damping         CNVZerner       .... off
 Static damping         CNVDamp         .... on
   Fraction old density DampFac         ....    0.7000
   Max. Damping (<1)    DampMax         ....    0.9800
   Min. Damping (>=0)   DampMin         ....    0.0000
   Turn off err/grad.   DampErr         ....    0.1000

SCF Procedure:
 Maximum # iterations   MaxIter         ....   125
 SCF integral mode      SCFMode         .... Direct
   Integral package                     .... SHARK and LIBINT hybrid scheme
 Reset frequency        DirectResetFreq ....    20
 Integral Threshold     Thresh          ....  2.500e-11 Eh
 Primitive CutOff       TCut            ....  2.500e-12 Eh

Convergence Tolerance:
 Convergence Check Mode ConvCheckMode   .... Total+1el-Energy
 Convergence forced     ConvForced      .... 0
 Energy Change          TolE            ....  1.000e-08 Eh
 1-El. energy change                    ....  1.000e-05 Eh
 Orbital Gradient       TolG            ....  1.000e-05
 Orbital Rotation angle TolX            ....  1.000e-05
 DIIS Error             TolErr          ....  5.000e-07

------------------------------
INITIAL GUESS: MODEL POTENTIAL
------------------------------
Loading Hartree-Fock densities                     ... done
Calculating cut-offs                               ... done
Initializing the effective Hamiltonian             ... done
Setting up the integral package (SHARK)            ... done
Starting the Coulomb interaction                   ... done (   0.0 sec)
Making the grid                                    ... done (   0.0 sec)
Mapping shells                                     ... done
Starting the XC term evaluation                    ... done (   0.0 sec)
  promolecular density results
     # of electrons  =     31.000270345
     EX              =    -38.233398681
     EC              =     -1.877191770
     EX+EC           =    -40.110590451
Transforming the Hamiltonian                       ... done (   0.0 sec)
Diagonalizing the Hamiltonian                      ... done (   0.0 sec)
Back transforming the eigenvectors                 ... done (   0.0 sec)
Now organizing SCF variables                       ... done
                      ------------------
                      INITIAL GUESS DONE (   0.1 sec)
                      ------------------
             **** ENERGY FILE WAS UPDATED (/cluster/projects/nn14654k/ylvaos/basis_set_n_funcs/functionals/N12/PO2/inp/PO2_N12_pc4.en.tmp) ****
Finished Guess after   0.3 sec
Maximum memory used throughout the entire GUESS-calculation: 24.8 MB


           ************************************************************
           *        Program running with 8 parallel MPI-processes     *
           *              working on a common directory               *
           ************************************************************

-------------------------------------------------------------------------------------------
                                      ORCA LEAN-SCF
                              memory conserving SCF solver
-------------------------------------------------------------------------------------------

----------------------------------------D-I-I-S--------------------------------------------
Iteration    Energy (Eh)           Delta-E    RMSDP     MaxDP     DIISErr   Damp  Time(sec)
-------------------------------------------------------------------------------------------
               ***  Starting incremental Fock matrix formation  ***
    1    -491.4803925212858644     0.00e+00  3.30e-03  1.12e-01  1.96e-01  0.700   5.6
Warning: op=1 Small HOMO/LUMO gap (   0.055) - skipping pre-diagonalization
         Will do a full diagonalization
    2    -491.6836860660141042    -2.03e-01  1.87e-03  7.96e-02  4.76e-02  0.700   5.4
                               ***Turning on AO-DIIS***
    3    -491.7242709373032881    -4.06e-02  1.25e-03  5.36e-02  1.78e-02  0.700   5.3
    4    -491.7558212204018560    -3.16e-02  2.76e-03  1.18e-01  2.27e-02  0.000   5.3
    5    -491.8422944187465760    -8.65e-02  5.56e-04  3.03e-02  1.31e-02  0.000   5.3
    6    -491.8440116900276848    -1.72e-03  3.46e-04  1.65e-02  4.63e-03  0.000   5.3
                              *** Initializing SOSCF ***
---------------------------------------S-O-S-C-F--------------------------------------
Iteration    Energy (Eh)           Delta-E    RMSDP     MaxDP     MaxGrad    Time(sec)
--------------------------------------------------------------------------------------
    7    -491.8442324060460464    -2.21e-04  1.62e-04  7.50e-03  1.74e-03     5.2
               *** Restarting incremental Fock matrix formation ***
    8    -491.8442668609012003    -3.45e-05  1.81e-04  7.91e-03  1.15e-03     5.3
    9    -491.8442510765124212     1.58e-05  6.27e-05  2.29e-03  2.02e-03     4.8
   10    -491.8442770351427384    -2.60e-05  5.12e-05  1.48e-03  1.29e-04     4.7
   11    -491.8442774802227291    -4.45e-07  9.14e-06  3.25e-04  6.38e-05     4.7
   12    -491.8442775483018181    -6.81e-08  2.51e-06  9.06e-05  1.09e-05     4.4
   13    -491.8442775521241970    -3.82e-09  1.52e-06  5.06e-05  7.12e-06     4.1
                 **** Energy Check signals convergence ****

               *****************************************************
               *                     SUCCESS                       *
               *           SCF CONVERGED AFTER  13 CYCLES          *
               *****************************************************

             **** ENERGY FILE WAS UPDATED (/cluster/projects/nn14654k/ylvaos/basis_set_n_funcs/functionals/N12/PO2/inp/PO2_N12_pc4.en.tmp) ****

----------------
TOTAL SCF ENERGY
----------------

Total Energy       :       -491.84427755283247 Eh          -13383.76321 eV

Components:
Nuclear Repulsion  :         99.08629604629714 Eh            2696.27519 eV
Electronic Energy  :       -590.93057359912973 Eh          -16080.03840 eV
One Electron Energy:       -876.63789361064437 Eh          -23854.52983 eV
Two Electron Energy:        285.70732001151470 Eh            7774.49143 eV

Virial components:
Potential Energy   :       -983.07524316955448 Eh          -26750.83735 eV
Kinetic Energy     :        491.23096561672202 Eh           13367.07414 eV
Virial Ratio       :          2.00124852051080

DFT components:
N(Alpha)           :       16.000053726137 electrons
N(Beta)            :       14.999991179390 electrons
N(Total)           :       31.000044905527 electrons
E(X)               :      -38.605437904900 Eh       
E(C)               :       -1.889906843458 Eh       
E(XC)              :      -40.495344748358 Eh       

---------------
SCF CONVERGENCE
---------------

  Last Energy change         ...    3.8224e-09  Tolerance :   1.0000e-08
  Last MAX-Density change    ...    5.0598e-05  Tolerance :   1.0000e-07
  Last RMS-Density change    ...    1.5246e-06  Tolerance :   5.0000e-09
  Last DIIS Error            ...    1.7393e-03  Tolerance :   5.0000e-07
  Last Orbital Gradient      ...    7.1233e-06  Tolerance :   1.0000e-05
  Last Orbital Rotation      ...    2.1106e-05  Tolerance :   1.0000e-05


----------------------
UHF SPIN CONTAMINATION
----------------------

Warning: in a DFT calculation there is little theoretical justification to 
         calculate <S**2> as in Hartree-Fock theory. We will do it anyways
         but you should keep in mind that the values have only limited relevance

Expectation value of <S**2>     :     0.753046
Ideal value S*(S+1) for S=0.5   :     0.750000
Deviation                       :     0.003046

----------------
ORBITAL ENERGIES
----------------
                 SPIN UP ORBITALS
  NO   OCC          E(Eh)            E(eV) 
   0   1.0000     -76.277481     -2075.6158 
   1   1.0000     -18.806835      -511.7600 
   2   1.0000     -18.806835      -511.7600 
   3   1.0000      -6.428857      -174.9381 
   4   1.0000      -4.749037      -129.2279 
   5   1.0000      -4.745947      -129.1438 
   6   1.0000      -4.742718      -129.0559 
   7   1.0000      -0.983320       -26.7575 
   8   1.0000      -0.939242       -25.5581 
   9   1.0000      -0.509900       -13.8751 
  10   1.0000      -0.421303       -11.4642 
  11   1.0000      -0.404362       -11.0033 
  12   1.0000      -0.404345       -11.0028 
  13   1.0000      -0.339237        -9.2311 
  14   1.0000      -0.332147        -9.0382 
  15   1.0000      -0.273594        -7.4449 
  16   0.0000      -0.127367        -3.4658 
  17   0.0000      -0.037833        -1.0295 
  18   0.0000      -0.004980        -0.1355 
  19   0.0000       0.002735         0.0744 
  20   0.0000       0.012147         0.3305 
  21   0.0000       0.042380         1.1532 
  22   0.0000       0.077282         2.1029 
  23   0.0000       0.085650         2.3306 
  24   0.0000       0.092009         2.5037 
  25   0.0000       0.106465         2.8971 
  26   0.0000       0.114503         3.1158 

                 SPIN DOWN ORBITALS
  NO   OCC          E(Eh)            E(eV) 
   0   1.0000     -76.274714     -2075.5405 
   1   1.0000     -18.798466      -511.5323 
   2   1.0000     -18.798466      -511.5323 
   3   1.0000      -6.427404      -174.8986 
   4   1.0000      -4.747905      -129.1971 
   5   1.0000      -4.742864      -129.0599 
   6   1.0000      -4.741181      -129.0141 
   7   1.0000      -0.968094       -26.3432 
   8   1.0000      -0.923194       -25.1214 
   9   1.0000      -0.486685       -13.2434 
  10   1.0000      -0.398546       -10.8450 
  11   1.0000      -0.394307       -10.7296 
  12   1.0000      -0.387542       -10.5455 
  13   1.0000      -0.331975        -9.0335 
  14   1.0000      -0.319051        -8.6818 
  15   0.0000      -0.223842        -6.0910 
  16   0.0000      -0.100900        -2.7456 
  17   0.0000      -0.021203        -0.5770 
  18   0.0000      -0.005444        -0.1481 
  19   0.0000       0.008485         0.2309 
  20   0.0000       0.008782         0.2390 
  21   0.0000       0.050343         1.3699 
  22   0.0000       0.085083         2.3152 
  23   0.0000       0.098021         2.6673 
  24   0.0000       0.100975         2.7477 
  25   0.0000       0.122246         3.3265 
*Only the first 10 virtual orbitals were printed.

                    ********************************
                    * MULLIKEN POPULATION ANALYSIS *
                    ********************************

--------------------------------------------
MULLIKEN ATOMIC CHARGES AND SPIN POPULATIONS
--------------------------------------------
   0 P :    0.505354    0.647095
   1 O :   -0.252664    0.176449
   2 O :   -0.252691    0.176456
Sum of atomic charges         :   -0.0000000
Sum of atomic spin populations:    1.0000000

-----------------------------------------------------
MULLIKEN REDUCED ORBITAL CHARGES AND SPIN POPULATIONS
-----------------------------------------------------
CHARGE
  0 P s       :     5.574302  s :     5.574302
      pz      :     2.844577  p :     8.229199
      px      :     2.687563
      py      :     2.697058
      dz2     :     0.090813  d :     0.619437
      dxz     :     0.012506
      dyz     :     0.176364
      dx2y2   :     0.157392
      dxy     :     0.182363
      f0      :     0.003552  f :     0.059238
      f+1     :     0.000127
      f-1     :     0.019753
      f+2     :     0.007829
      f-2     :     0.009938
      f+3     :     0.008855
      f-3     :     0.009183
      g0      :     0.000974  g :     0.010897
      g+1     :     0.000150
      g-1     :     0.000846
      g+2     :     0.001626
      g-2     :    -0.000001
      g+3     :     0.001588
      g-3     :     0.001396
      g+4     :     0.001126
      g-4     :     0.003192
      h0      :     0.000068  h :     0.001574
      h+1     :     0.000004
      h-1     :     0.000336
      h+2     :     0.000129
      h-2     :     0.000054
      h+3     :     0.000009
      h-3     :     0.000287
      h+4     :     0.000154
      h-4     :     0.000306
      h+5     :     0.000124
      h-5     :     0.000103

  1 O s       :     3.803282  s :     3.803282
      pz      :     1.512037  p :     4.403216
      px      :     1.531956
      py      :     1.359223
      dz2     :     0.004992  d :     0.040795
      dxz     :     0.001949
      dyz     :     0.012964
      dx2y2   :     0.009406
      dxy     :     0.011483
      f0      :     0.000561  f :     0.004904
      f+1     :     0.000007
      f-1     :     0.000860
      f+2     :     0.001418
      f-2     :     0.000369
      f+3     :     0.000746
      f-3     :     0.000943
      g0      :     0.000032  g :     0.000442
      g+1     :     0.000003
      g-1     :     0.000073
      g+2     :     0.000052
      g-2     :     0.000000
      g+3     :     0.000041
      g-3     :     0.000112
      g+4     :     0.000078
      g-4     :     0.000051
      h0      :     0.000002  h :     0.000024
      h+1     :     0.000000
      h-1     :     0.000003
      h+2     :     0.000004
      h-2     :     0.000000
      h+3     :     0.000000
      h-3     :     0.000002
      h+4     :     0.000006
      h-4     :     0.000002
      h+5     :     0.000002
      h-5     :     0.000004

  2 O s       :     3.803301  s :     3.803301
      pz      :     1.512038  p :     4.403223
      px      :     1.531956
      py      :     1.359229
      dz2     :     0.004991  d :     0.040796
      dxz     :     0.001949
      dyz     :     0.012965
      dx2y2   :     0.009407
      dxy     :     0.011483
      f0      :     0.000561  f :     0.004904
      f+1     :     0.000007
      f-1     :     0.000860
      f+2     :     0.001418
      f-2     :     0.000369
      f+3     :     0.000746
      f-3     :     0.000943
      g0      :     0.000032  g :     0.000442
      g+1     :     0.000003
      g-1     :     0.000073
      g+2     :     0.000052
      g-2     :     0.000000
      g+3     :     0.000041
      g-3     :     0.000112
      g+4     :     0.000078
      g-4     :     0.000051
      h0      :     0.000002  h :     0.000024
      h+1     :     0.000000
      h-1     :     0.000003
      h+2     :     0.000004
      h-2     :     0.000000
      h+3     :     0.000000
      h-3     :     0.000002
      h+4     :     0.000006
      h-4     :     0.000002
      h+5     :     0.000002
      h-5     :     0.000004


SPIN
  0 P s       :     0.160643  s :     0.160643
      pz      :     0.257959  p :     0.326941
      px      :     0.042598
      py      :     0.026383
      dz2     :     0.035785  d :     0.147479
      dxz     :    -0.002234
      dyz     :     0.016475
      dx2y2   :     0.090495
      dxy     :     0.006959
      f0      :     0.001239  f :     0.009616
      f+1     :    -0.000019
      f-1     :     0.003446
      f+2     :     0.002804
      f-2     :     0.000160
      f+3     :     0.001496
      f-3     :     0.000489
      g0      :     0.000384  g :     0.001953
      g+1     :     0.000029
      g-1     :     0.000226
      g+2     :     0.000731
      g-2     :     0.000001
      g+3     :     0.000414
      g-3     :     0.000089
      g+4     :     0.000503
      g-4     :    -0.000423
      h0      :     0.000066  h :     0.000463
      h+1     :     0.000002
      h-1     :     0.000013
      h+2     :     0.000114
      h-2     :     0.000000
      h+3     :     0.000003
      h-3     :     0.000039
      h+4     :     0.000076
      h-4     :     0.000028
      h+5     :     0.000067
      h-5     :     0.000056

  1 O s       :     0.006376  s :     0.006376
      pz      :     0.174868  p :     0.172885
      px      :    -0.021650
      py      :     0.019667
      dz2     :    -0.001086  d :    -0.002028
      dxz     :    -0.000500
      dyz     :     0.001760
      dx2y2   :    -0.000159
      dxy     :    -0.002042
      f0      :    -0.000014  f :    -0.000777
      f+1     :    -0.000002
      f-1     :    -0.000305
      f+2     :    -0.000061
      f-2     :    -0.000087
      f+3     :    -0.000255
      f-3     :    -0.000054
      g0      :    -0.000003  g :    -0.000010
      g+1     :    -0.000000
      g-1     :     0.000002
      g+2     :    -0.000006
      g-2     :     0.000000
      g+3     :    -0.000001
      g-3     :     0.000004
      g+4     :    -0.000002
      g-4     :    -0.000004
      h0      :     0.000000  h :     0.000002
      h+1     :     0.000000
      h-1     :     0.000000
      h+2     :     0.000000
      h-2     :     0.000000
      h+3     :     0.000000
      h-3     :     0.000000
      h+4     :     0.000000
      h-4     :     0.000000
      h+5     :     0.000000
      h-5     :     0.000000

  2 O s       :     0.006384  s :     0.006384
      pz      :     0.174866  p :     0.172884
      px      :    -0.021650
      py      :     0.019667
      dz2     :    -0.001087  d :    -0.002027
      dxz     :    -0.000500
      dyz     :     0.001760
      dx2y2   :    -0.000159
      dxy     :    -0.002042
      f0      :    -0.000014  f :    -0.000777
      f+1     :    -0.000002
      f-1     :    -0.000305
      f+2     :    -0.000061
      f-2     :    -0.000087
      f+3     :    -0.000255
      f-3     :    -0.000054
      g0      :    -0.000003  g :    -0.000010
      g+1     :    -0.000000
      g-1     :     0.000002
      g+2     :    -0.000006
      g-2     :     0.000000
      g+3     :    -0.000001
      g-3     :     0.000004
      g+4     :    -0.000002
      g-4     :    -0.000004
      h0      :     0.000000  h :     0.000002
      h+1     :     0.000000
      h-1     :     0.000000
      h+2     :     0.000000
      h-2     :     0.000000
      h+3     :     0.000000
      h-3     :     0.000000
      h+4     :     0.000000
      h-4     :     0.000000
      h+5     :     0.000000
      h-5     :     0.000000



                     *******************************
                     * LOEWDIN POPULATION ANALYSIS *
                     *******************************

-------------------------------------------
LOEWDIN ATOMIC CHARGES AND SPIN POPULATIONS
-------------------------------------------
   0 P :    0.370170    0.517267
   1 O :   -0.185085    0.241367
   2 O :   -0.185085    0.241367

----------------------------------------------------
LOEWDIN REDUCED ORBITAL CHARGES AND SPIN POPULATIONS
----------------------------------------------------
CHARGE
  0 P s       :     4.794871  s :     4.794871
      pz      :     2.756183  p :     8.103215
      px      :     2.581418
      py      :     2.765614
      dz2     :     0.154281  d :     1.217497
      dxz     :     0.015511
      dyz     :     0.387079
      dx2y2   :     0.350492
      dxy     :     0.310134
      f0      :     0.030654  f :     0.356299
      f+1     :     0.000392
      f-1     :     0.101250
      f+2     :     0.069974
      f-2     :     0.044272
      f+3     :     0.041906
      f-3     :     0.067851
      g0      :     0.012089  g :     0.126203
      g+1     :     0.001159
      g-1     :     0.011955
      g+2     :     0.021733
      g-2     :     0.000012
      g+3     :     0.013243
      g-3     :     0.019772
      g+4     :     0.015978
      g-4     :     0.030261
      h0      :     0.001485  h :     0.031745
      h+1     :     0.000041
      h-1     :     0.005978
      h+2     :     0.002586
      h-2     :     0.000914
      h+3     :     0.000083
      h-3     :     0.005750
      h+4     :     0.002848
      h-4     :     0.006382
      h+5     :     0.003316
      h-5     :     0.002363

  1 O s       :     3.449439  s :     3.449439
      pz      :     1.484341  p :     4.512785
      px      :     1.427638
      py      :     1.600806
      dz2     :     0.018664  d :     0.169582
      dxz     :     0.004522
      dyz     :     0.067003
      dx2y2   :     0.046425
      dxy     :     0.032967
      f0      :     0.006004  f :     0.050401
      f+1     :     0.000116
      f-1     :     0.008338
      f+2     :     0.013682
      f-2     :     0.002898
      f+3     :     0.007010
      f-3     :     0.012354
      g0      :     0.000120  g :     0.002685
      g+1     :     0.000012
      g-1     :     0.000618
      g+2     :     0.000191
      g-2     :     0.000003
      g+3     :     0.000124
      g-3     :     0.000817
      g+4     :     0.000626
      g-4     :     0.000173
      h0      :     0.000016  h :     0.000193
      h+1     :     0.000000
      h-1     :     0.000018
      h+2     :     0.000037
      h-2     :     0.000002
      h+3     :     0.000001
      h-3     :     0.000009
      h+4     :     0.000062
      h-4     :     0.000005
      h+5     :     0.000006
      h-5     :     0.000038

  2 O s       :     3.449439  s :     3.449439
      pz      :     1.484341  p :     4.512785
      px      :     1.427638
      py      :     1.600806
      dz2     :     0.018664  d :     0.169582
      dxz     :     0.004522
      dyz     :     0.067003
      dx2y2   :     0.046425
      dxy     :     0.032967
      f0      :     0.006004  f :     0.050401
      f+1     :     0.000116
      f-1     :     0.008338
      f+2     :     0.013682
      f-2     :     0.002898
      f+3     :     0.007010
      f-3     :     0.012354
      g0      :     0.000120  g :     0.002685
      g+1     :     0.000012
      g-1     :     0.000618
      g+2     :     0.000191
      g-2     :     0.000003
      g+3     :     0.000124
      g-3     :     0.000817
      g+4     :     0.000626
      g-4     :     0.000173
      h0      :     0.000016  h :     0.000193
      h+1     :     0.000000
      h-1     :     0.000018
      h+2     :     0.000037
      h-2     :     0.000002
      h+3     :     0.000001
      h-3     :     0.000009
      h+4     :     0.000062
      h-4     :     0.000005
      h+5     :     0.000006
      h-5     :     0.000038


SPIN
  0 P s       :     0.171251  s :     0.171251
      pz      :     0.156693  p :     0.164155
      px      :     0.018207
      py      :    -0.010745
      dz2     :     0.070170  d :     0.169953
      dxz     :    -0.003144
      dyz     :    -0.003734
      dx2y2   :     0.107909
      dxy     :    -0.001249
      f0      :     0.000444  f :    -0.000510
      f+1     :    -0.000064
      f-1     :    -0.000631
      f+2     :     0.001657
      f-2     :    -0.000538
      f+3     :    -0.002076
      f-3     :     0.000699
      g0      :     0.002218  g :     0.010129
      g+1     :    -0.000014
      g-1     :     0.000306
      g+2     :     0.004622
      g-2     :     0.000002
      g+3     :    -0.000048
      g-3     :     0.000167
      g+4     :     0.002957
      g-4     :    -0.000081
      h0      :     0.000547  h :     0.002289
      h+1     :     0.000001
      h-1     :     0.000092
      h+2     :     0.000910
      h-2     :     0.000015
      h+3     :     0.000001
      h-3     :     0.000106
      h+4     :     0.000378
      h-4     :     0.000090
      h+5     :    -0.000004
      h-5     :     0.000154

  1 O s       :     0.028908  s :     0.028908
      pz      :     0.148678  p :     0.194066
      px      :    -0.006795
      py      :     0.052182
      dz2     :     0.001497  d :     0.016409
      dxz     :     0.000199
      dyz     :     0.013560
      dx2y2   :     0.000428
      dxy     :     0.000725
      f0      :     0.000026  f :     0.001918
      f+1     :    -0.000011
      f-1     :     0.001171
      f+2     :     0.000344
      f-2     :     0.000173
      f+3     :     0.000146
      f-3     :     0.000069
      g0      :     0.000015  g :     0.000062
      g+1     :     0.000001
      g-1     :     0.000000
      g+2     :     0.000023
      g-2     :    -0.000000
      g+3     :     0.000008
      g-3     :     0.000000
      g+4     :     0.000010
      g-4     :     0.000006
      h0      :     0.000000  h :     0.000003
      h+1     :     0.000000
      h-1     :     0.000001
      h+2     :     0.000000
      h-2     :     0.000000
      h+3     :     0.000000
      h-3     :     0.000000
      h+4     :     0.000001
      h-4     :     0.000000
      h+5     :     0.000000
      h-5     :     0.000001

  2 O s       :     0.028908  s :     0.028908
      pz      :     0.148678  p :     0.194066
      px      :    -0.006795
      py      :     0.052182
      dz2     :     0.001497  d :     0.016409
      dxz     :     0.000199
      dyz     :     0.013560
      dx2y2   :     0.000428
      dxy     :     0.000725
      f0      :     0.000026  f :     0.001918
      f+1     :    -0.000011
      f-1     :     0.001171
      f+2     :     0.000344
      f-2     :     0.000173
      f+3     :     0.000146
      f-3     :     0.000069
      g0      :     0.000015  g :     0.000062
      g+1     :     0.000001
      g-1     :     0.000000
      g+2     :     0.000023
      g-2     :    -0.000000
      g+3     :     0.000008
      g-3     :     0.000000
      g+4     :     0.000010
      g-4     :     0.000006
      h0      :     0.000000  h :     0.000003
      h+1     :     0.000000
      h-1     :     0.000001
      h+2     :     0.000000
      h-2     :     0.000000
      h+3     :     0.000000
      h-3     :     0.000000
      h+4     :     0.000001
      h-4     :     0.000000
      h+5     :     0.000000
      h-5     :     0.000001



                      *****************************
                      * MAYER POPULATION ANALYSIS *
                      *****************************

  NA   - Mulliken gross atomic population
  ZA   - Total nuclear charge
  QA   - Mulliken gross atomic charge
  VA   - Mayer's total valence
  BVA  - Mayer's bonded valence
  FA   - Mayer's free valence

  ATOM       NA         ZA         QA         VA         BVA        FA
  0 P     14.4946    15.0000     0.5054     4.6235     4.3407     0.2829
  1 O      8.2527     8.0000    -0.2527     2.2995     2.2817     0.0178
  2 O      8.2527     8.0000    -0.2527     2.2995     2.2817     0.0178

  Mayer bond orders larger than 0.100000
B(  0-P ,  1-O ) :   2.1703 B(  0-P ,  2-O ) :   2.1703 B(  1-O ,  2-O ) :   0.1114 


-------
TIMINGS
-------

Total SCF time: 0 days 0 hours 1 min 9 sec 

Total time                  ....      69.264 sec
Sum of individual times     ....      65.494 sec  ( 94.6%)

SCF preparation             ....       0.115 sec  (  0.2%)
Fock matrix formation       ....      64.599 sec  ( 93.3%)
  Startup                   ....       0.028 sec  (  0.0% of F)
  Coulomb formation         ....      66.575 sec  (103.1% of F)
  XC integration            ....       1.399 sec  (  2.2% of F)
    XC Preparation          ....       0.000 sec  (  0.0% of XC)
    Basis function eval.    ....       0.118 sec  (  8.4% of XC)
    Density eval.           ....       0.247 sec  ( 17.7% of XC)
    XC-Functional eval.     ....       0.043 sec  (  3.0% of XC)
    XC-Potential eval.      ....       0.775 sec  ( 55.4% of XC)
Diagonalization             ....       0.000 sec  (  0.0%)
Density matrix formation    ....       0.125 sec  (  0.2%)
Total Energy calculation    ....       0.037 sec  (  0.1%)
Population analysis         ....       0.029 sec  (  0.0%)
Orbital Transformation      ....       0.089 sec  (  0.1%)
Orbital Orthonormalization  ....       0.000 sec  (  0.0%)
DIIS solution               ....       0.307 sec  (  0.4%)
SOSCF solution              ....       0.193 sec  (  0.3%)
Finished LeanSCF after  69.3 sec

Maximum memory used throughout the entire LEANSCF-calculation: 107.6 MB


           ************************************************************
           *        Program running with 8 parallel MPI-processes     *
           *              working on a common directory               *
           ************************************************************

------------------------------------------------------------------------------
                         ORCA PROPERTY INTEGRAL CALCULATIONS
------------------------------------------------------------------------------

GBWName                                   ... /cluster/projects/nn14654k/ylvaos/basis_set_n_funcs/functionals/N12/PO2/inp/PO2_N12_pc4.gbw
Number of atoms                           ...      3
Number of basis functions                 ...    323
Max core memory                           ...   4096 MB

Dipole integrals                          ... YES
Quadrupole integrals                      ... YES
Linear momentum integrals                 ...  NO
Angular momentum integrals                ...  NO
Higher moments length integrals           ...  NO
Higher moments velocity integrals         ...  NO
Kinetic energy integrals                  ...  NO
GIAO right hand sides                     ...  NO
GIAO dipole derivative integrals          ...  NO
SOC integrals                             ...  NO
EPR diamagnetic integrals (GIAO)          ...  NO
EPR gauge integrals                       ...  NO
Field gradient integrals                  ...  NO (   0 nuclei)
Spin-dipole/Fermi contact integrals       ...  NO (   0 nuclei)
Contact density integrals                 ...  NO (   0 nuclei)
Nucleus-orbit integrals                   ...  NO (   0 nuclei)
Geometric perturbations                   ...  NO (   3 nuclei)

Choice of electric origin   ... Center of mass
Position of electric origin ... (  0.0000,  0.0000,  0.0084) 
Choice of magnetic origin   ... GIAO
Position of magnetic origin ... (  0.0000,  0.0000,  0.0000) 

Calculating integrals                     ... Electric Dipole (Length)     done (  0.0 sec)
Calculating integrals                     ... Electric Quadrupole (Length) done (  0.0 sec)

Property integrals calculated in   0.0 sec

Maximum memory used throughout the entire PROPINT-calculation: 27.6 MB
------------------------------------------------------------------------------
                           ORCA ORBITAL LOCALIZATION
------------------------------------------------------------------------------

Input orbitals are from                  ... /cluster/projects/nn14654k/ylvaos/basis_set_n_funcs/functionals/N12/PO2/inp/PO2_N12_pc4.gbw
Output orbitals are to                   ... /cluster/projects/nn14654k/ylvaos/basis_set_n_funcs/functionals/N12/PO2/inp/PO2_N12_pc4.loc
Max. number of iterations                ... 128
Localizations seeded randomly            ... on
Convergence tolerance                    ... 1.000e-06
Threshold for strong local MOs           ... 9.500e-01
Threshold for bond MOs                   ... 8.500e-01
Operator                                 ... 0
Orbital range for localization           ... 4 to 15
Localization criterion                   ... NEW-BOYS
Doing the dipole integrals               ... o.k.
Initial value of the localization sum :    23.310165
ITERATION   0 : L=   45.7841298520 DL=  2.25e+01 (AVERGE_DL)=    0.5835363105 
ITERATION   1 : L=   49.8092254701 DL=  4.03e+00 (AVERGE_DL)=    0.2469540387 
ITERATION   2 : L=   50.1437218029 DL=  3.34e-01 (AVERGE_DL)=    0.0711907737 
ITERATION   3 : L=   50.1647551153 DL=  2.10e-02 (AVERGE_DL)=    0.0178517941 
ITERATION   4 : L=   50.1802493755 DL=  1.55e-02 (AVERGE_DL)=    0.0153219293 
ITERATION   5 : L=   50.2037813331 DL=  2.35e-02 (AVERGE_DL)=    0.0188823943 
ITERATION   6 : L=   50.2307312823 DL=  2.69e-02 (AVERGE_DL)=    0.0202072403 
ITERATION   7 : L=   50.2506293878 DL=  1.99e-02 (AVERGE_DL)=    0.0173633651 
ITERATION   8 : L=   50.2608959199 DL=  1.03e-02 (AVERGE_DL)=    0.0124721096 
ITERATION   9 : L=   50.2650747055 DL=  4.18e-03 (AVERGE_DL)=    0.0079570682 
ITERATION  10 : L=   50.2665662076 DL=  1.49e-03 (AVERGE_DL)=    0.0047537897 
ITERATION  11 : L=   50.2670638063 DL=  4.98e-04 (AVERGE_DL)=    0.0027457921 
ITERATION  12 : L=   50.2672236815 DL=  1.60e-04 (AVERGE_DL)=    0.0015563906 
ITERATION  13 : L=   50.2672736618 DL=  5.00e-05 (AVERGE_DL)=    0.0008702172 
ITERATION  14 : L=   50.2672889040 DL=  1.52e-05 (AVERGE_DL)=    0.0004805637 
ITERATION  15 : L=   50.2672934410 DL=  4.54e-06 (AVERGE_DL)=    0.0002621882 
ITERATION  16 : L=   50.2672947605 DL=  1.32e-06 (AVERGE_DL)=    0.0001413947 
ITERATION  17 : L=   50.2672951355 DL=  3.75e-07 (AVERGE_DL)=    0.0000753803 
LOCALIZATION SUM CONVERGED


--------------------------------------------------------------------------------
                    LOCALIZED MOLECULAR ORBITAL COMPOSITIONS
--------------------------------------------------------------------------------

The Mulliken populations for each LMO on each atom are computed
The LMO`s will be ordered according to atom index and type
  (A) Strongly localized MO`s have populations of >=0.950 on one atom
  (B) Two center bond orbitals have populations of >=0.850 on two atoms
  (C) Other MO`s are considered to be `delocalized`

FOUND  -   6 strongly local MO`s
       -   6 two center bond MO`s
       -   0 significantly delocalized MO`s

Rather strongly localized orbitals:
MO   9:   2O  -   0.983605
MO   8:   1O  -   0.983593
MO   7:   0P  -   1.004441
MO   6:   0P  -   0.997818
MO   5:   0P  -   0.977022
MO   4:   0P  -   0.997817
Bond-like localized orbitals:
MO  15:   2O  -   0.673200  and   0P  -   0.323691
MO  14:   2O  -   0.867511  and   0P  -   0.135046
MO  13:   2O  -   0.673202  and   0P  -   0.323688
MO  12:   1O  -   0.673166  and   0P  -   0.323726
MO  11:   1O  -   0.673197  and   0P  -   0.323687
MO  10:   1O  -   0.867554  and   0P  -   0.135003
Localized MO's were stored in: /cluster/projects/nn14654k/ylvaos/basis_set_n_funcs/functionals/N12/PO2/inp/PO2_N12_pc4.loc
------------------------------------------------------------------------------
                           ORCA ORBITAL LOCALIZATION
------------------------------------------------------------------------------

Input orbitals are from                  ... /cluster/projects/nn14654k/ylvaos/basis_set_n_funcs/functionals/N12/PO2/inp/PO2_N12_pc4.loc
Output orbitals are to                   ... /cluster/projects/nn14654k/ylvaos/basis_set_n_funcs/functionals/N12/PO2/inp/PO2_N12_pc4.loc
Max. number of iterations                ... 128
Localizations seeded randomly            ... on
Convergence tolerance                    ... 1.000e-06
Threshold for strong local MOs           ... 9.500e-01
Threshold for bond MOs                   ... 8.500e-01
Operator                                 ... 1
Orbital range for localization           ... 4 to 14
Localization criterion                   ... NEW-BOYS
Doing the dipole integrals               ... o.k.
Initial value of the localization sum :    32.601921
ITERATION   0 : L=   39.5244147932 DL=  6.92e+00 (AVERGE_DL)=    0.3547724875 
ITERATION   1 : L=   42.8369476556 DL=  3.31e+00 (AVERGE_DL)=    0.2454136716 
ITERATION   2 : L=   42.9993793626 DL=  1.62e-01 (AVERGE_DL)=    0.0543443075 
ITERATION   3 : L=   43.0226170971 DL=  2.32e-02 (AVERGE_DL)=    0.0205549085 
ITERATION   4 : L=   43.0297832624 DL=  7.17e-03 (AVERGE_DL)=    0.0114146359 
ITERATION   5 : L=   43.0351538631 DL=  5.37e-03 (AVERGE_DL)=    0.0098816641 
ITERATION   6 : L=   43.0392572257 DL=  4.10e-03 (AVERGE_DL)=    0.0086375108 
ITERATION   7 : L=   43.0422790292 DL=  3.02e-03 (AVERGE_DL)=    0.0074122790 
ITERATION   8 : L=   43.0444457839 DL=  2.17e-03 (AVERGE_DL)=    0.0062765867 
ITERATION   9 : L=   43.0459750201 DL=  1.53e-03 (AVERGE_DL)=    0.0052729778 
ITERATION  10 : L=   43.0470437458 DL=  1.07e-03 (AVERGE_DL)=    0.0044081034 
ITERATION  11 : L=   43.0477861207 DL=  7.42e-04 (AVERGE_DL)=    0.0036739252 
ITERATION  12 : L=   43.0482999280 DL=  5.14e-04 (AVERGE_DL)=    0.0030564603 
ITERATION  13 : L=   43.0486548052 DL=  3.55e-04 (AVERGE_DL)=    0.0025401405 
ITERATION  14 : L=   43.0488996563 DL=  2.45e-04 (AVERGE_DL)=    0.0021099379 
ITERATION  15 : L=   43.0490685269 DL=  1.69e-04 (AVERGE_DL)=    0.0017522482 
ITERATION  16 : L=   43.0491849900 DL=  1.16e-04 (AVERGE_DL)=    0.0014551673 
ITERATION  17 : L=   43.0492653276 DL=  8.03e-05 (AVERGE_DL)=    0.0012085875 
ITERATION  18 : L=   43.0493207668 DL=  5.54e-05 (AVERGE_DL)=    0.0010039842 
ITERATION  19 : L=   43.0493590373 DL=  3.83e-05 (AVERGE_DL)=    0.0008341627 
ITERATION  20 : L=   43.0493854657 DL=  2.64e-05 (AVERGE_DL)=    0.0006931930 
ITERATION  21 : L=   43.0494037278 DL=  1.83e-05 (AVERGE_DL)=    0.0005762281 
ITERATION  22 : L=   43.0494163529 DL=  1.26e-05 (AVERGE_DL)=    0.0004791106 
ITERATION  23 : L=   43.0494250822 DL=  8.73e-06 (AVERGE_DL)=    0.0003983889 
ITERATION  24 : L=   43.0494311213 DL=  6.04e-06 (AVERGE_DL)=    0.0003313644 
ITERATION  25 : L=   43.0494353006 DL=  4.18e-06 (AVERGE_DL)=    0.0002756595 
ITERATION  26 : L=   43.0494381938 DL=  2.89e-06 (AVERGE_DL)=    0.0002293533 
ITERATION  27 : L=   43.0494401986 DL=  2.00e-06 (AVERGE_DL)=    0.0001909222 
ITERATION  28 : L=   43.0494415860 DL=  1.39e-06 (AVERGE_DL)=    0.0001588248 
ITERATION  29 : L=   43.0494425476 DL=  9.62e-07 (AVERGE_DL)=    0.0001322221 
LOCALIZATION SUM CONVERGED


--------------------------------------------------------------------------------
                    LOCALIZED MOLECULAR ORBITAL COMPOSITIONS
--------------------------------------------------------------------------------

The Mulliken populations for each LMO on each atom are computed
The LMO`s will be ordered according to atom index and type
  (A) Strongly localized MO`s have populations of >=0.950 on one atom
  (B) Two center bond orbitals have populations of >=0.850 on two atoms
  (C) Other MO`s are considered to be `delocalized`

FOUND  -   5 strongly local MO`s
       -   6 two center bond MO`s
       -   0 significantly delocalized MO`s

Rather strongly localized orbitals:
MO   8:   2O  -   0.975748
MO   7:   1O  -   0.975746
MO   6:   0P  -   0.987624
MO   5:   0P  -   1.000704
MO   4:   0P  -   0.987622
Bond-like localized orbitals:
MO  14:   2O  -   0.777640  and   0P  -   0.220843
MO  13:   2O  -   0.484958  and   0P  -   0.515343
MO  12:   2O  -   0.777007  and   0P  -   0.221486
MO  11:   1O  -   0.777550  and   0P  -   0.220933
MO  10:   1O  -   0.777147  and   0P  -   0.221347
MO   9:   1O  -   0.484902  and   0P  -   0.515398
Localized MO's were stored in: /cluster/projects/nn14654k/ylvaos/basis_set_n_funcs/functionals/N12/PO2/inp/PO2_N12_pc4.loc

-------------------------   --------------------
FINAL SINGLE POINT ENERGY      -491.844277552832
-------------------------   --------------------



           ************************************************************
           *        Program running with 8 parallel MPI-processes     *
           *              working on a common directory               *
           ************************************************************

------------------------------------------------------------------------------
                              ORCA PROPERTY CALCULATIONS
------------------------------------------------------------------------------

GBWName                                 ... /cluster/projects/nn14654k/ylvaos/basis_set_n_funcs/functionals/N12/PO2/inp/PO2_N12_pc4.gbw
Number of atoms                         ...      3
Number of basis functions               ...    323
Max core memory                         ...   4096 MB

Electric properties:
Dipole moment                           ... YES
Quadrupole moment                       ... YES
Static polarizability (Dipole/Dipole)   ...  NO
Static polarizability (Dipole/Quad.)    ...  NO
Static polarizability (Quad./Quad.)     ...  NO
Static polarizability (Velocity)        ...  NO
Static hyperpolarizability              ...  NO

Atomic electric properties:
Dipole moment                           ...  NO
Quadrupole moment                       ...  NO
Static polarizability                   ...  NO

Choice of electric origin               ... Center of mass
Position of electric origin             ...     0.000000     0.000000     0.008437

General magnetic properties:
Magnetizability                         ...  NO

EPR properties:
g-Tensor (aka g-matrix)                 ...  NO
Zero-Field splitting spin-orbit         ...  NO
Zero-field splitting spin-spin          ...  NO
Hyperfine couplings                     ...  NO (   0 nuclei)
Quadrupole couplings                    ...  NO (   0 nuclei)
Contact density                         ...  NO (   0 nuclei)

NMR properties:
Chemical shifts                         ...  NO (   0 nuclei)
Spin-rotation constants                 ...  NO (   0 nuclei)
Spin-spin couplings                     ...  NO (   0 nuclei,    0 pairs)

Choice of magnetic origin               ... GIAO
Position of magnetic origin             ...     0.000000     0.000000     0.000000

Properties with geometric perturbations:
SCF Hessian                             ...  NO
IR spectrum                             ...  NO
VCD spectrum                            ...  NO
X-ray spectroscopy properties:
SCF XES/XAS/RIXS spectra                ...  NO

SCF SOC stabilization energy            ...  NO
Diagonal Born-Oppenheimer correction    ...  NO

-------------
DIPOLE MOMENT
-------------

Method             : SCF
Type of density    : Electron Density
Multiplicity       :   2
Irrep              :   0
Energy             :  -491.8442775528324660 Eh
Basis              : AO
                                X                 Y                 Z
Electronic contribution:     -0.000000000      -0.000000012       0.781278611
Nuclear contribution   :      0.000000000       0.000000000      -0.261362976
                        -----------------------------------------
Total Dipole Moment    :     -0.000000000      -0.000000012       0.519915634
                        -----------------------------------------
Magnitude (a.u.)       :      0.519915634
Magnitude (Debye)      :      1.321520519



--------------------
Rotational spectrum 
--------------------
 
Rotational constants in cm-1:             3.442444             0.286393             0.264396 
Rotational constants in MHz :        103201.869580          8585.841533          7926.407020 

Dipole components along the rotational axes: 
x,y,z [a.u.] :    -0.000000     0.519916    -0.000000 
x,y,z [Debye]:    -0.000000     1.321521    -0.000000 

 

Dipole moment calculation done in   0.0 sec 

-----------------
QUADRUPOLE MOMENT
-----------------

Method             : SCF
Type of density    : Electron Density
Multiplicity       :   2
Irrep              :   0
Energy             :  -491.8442775528324660 Eh
Basis              : AO

                XX              YY              ZZ              XY              XZ              YZ
  NUC        0.000000000   105.106420135     8.604299986     0.000000000     0.000000000     0.000000000
  EL       -15.390052428  -126.001260907   -24.699390784    -0.000000000    -0.000000000     0.000000003
  TOT      -15.390052428   -20.894840772   -16.095090798    -0.000000000    -0.000000000     0.000000003 (a.u.)
           -20.700146856   -28.104275442   -21.648447576    -0.000000000    -0.000000000     0.000000004 (Buckingham)

diagonalized tensor:
           -20.894840772   -16.095090798   -15.390052428 (a.u.)
           -28.104275442   -21.648447576   -20.700146856 (Buckingham)
           -13.859956452     5.507527146     8.352429306 (traceless form in Buckingham)

             0.000000000    -0.000000000     1.000000000
             1.000000000    -0.000000001    -0.000000000
            -0.000000001    -1.000000000    -0.000000000
        
Isotropic quadrupole :   -17.459994666

Quadrupole moment calculation done in   0.0 sec (  0.0 sec for integrals)

Maximum memory used throughout the entire PROP-calculation: 21.0 MB

--------------------------------
SUGGESTED CITATIONS FOR THIS RUN
--------------------------------

Below you find a list of papers that are relevant to this ORCA run
We neither can nor want to force you to cite these papers, but we appreciate if you do
You receive ORCA, which is the product of decades of hard work by many enthusiastic individuals, for free
The only thing we kindly ask in return is that you cite our papers,
We deeply appreciate it, if you show your appreciation for ORCA by not just citing the generic ORCA reference.

Please note that relegating all ORCA citations to the supporting information does *not* help us.
SI sections are not indexed - citations you put there will not count into any citation statistics
But we need these citations in order to attract the funding resources that allow us to do what we are doing

Therefore, if you are a happy ORCA user, please consider citing a few of the papers listed below in the main body of your paper

In addition to the list printed below, the program has created the file /cluster/projects/nn14654k/ylvaos/basis_set_n_funcs/functionals/N12/PO2/inp/PO2_N12_pc4.bibtex that contains the list in bibtex format
You can import this file easily into all common literature databanks and citation aid programs

It goes without saying that in many instances, there are alternative algorithms to achieve similar
results as the ones you have gotten from ORCA. It is, of course, also the case that in some instances
ORCA just re-implements algorithms worked out by others. We are fully aware of that and we are also
fully appreciative of our colleagues work. Hence this citation list should not be read as indicating
that the listed papers, which are focused on our own work, are the only ones worth citing. It simply
meant to make it easier for users to cite ORCA specific papers. It is not a substitute for doing your
own literature research and citing the relevant literature in a scientifically appropriate manner.

List of essential papers. We consider these as the minimum necessary citations

  1. Neese, F.
     Software update: the ORCA program system, version 6.0
     WIRES Comput. Molec. Sci. 2025 15(1), e70019
     doi.org/10.1002/wcms.70019

List of papers to cite with high priority. The work reported in these papers was absolutely
necessary for this run to complete.
Our perspective: the developers of density functionals and basis sets usually get cited in chemistry papers
Good! But without the algorithms to do something with them, the functionals or basis sets would not do anything.
Hence, in our opinion, the algorithm design and method developments papers are equally worthy of getting cited

  1. Lehtola, S.; Steigemann, C.; Oliveira, M.; Marques, M.
     Recent developments in Libxc - A comprehensive library of functionals for density functional theory
     Software X 2018 7 , 
     doi.org/10.1016/j.softx.2017.11.002
  2. Neese, F.
     The SHARK Integral Generation and Digestion System
     J. Comp. Chem. 2022 44(3), 381
     doi.org/10.1002/jcc.26942

List of suggested additional citations. These are papers that are important in the 'surrounding' of 
of this run, or papers that preceded the highly important papers. If you like your results we are grateful for a citation.

  1. Neese, F.
     The ORCA program system
     WIRES Comput. Molec. Sci. 2012 2(1), 73-78
     doi.org/10.1002/wcms.81
  2. Neese, F.
     Software update: the ORCA program system, version 4.0
     WIRES Comput. Molec. Sci. 2018 8(1), 1-6
     doi.org/10.1002/wcms.1327
  3. Neese, F.; Wennmohs, F.; Becker, U.; Riplinger, C.
     The ORCA quantum chemistry program package
     J. Chem. Phys. 2020 152(22), 224108
     doi.org/10.1063/5.0004608
  4. Neese, F.
     Software update: The ORCA program system—Version 5.0
     WIRES Comput. Molec. Sci. 2022 12(1), e1606
     doi.org/10.1002/wcms.1606

List of optional additional citations

  1. Neese, F.
     Approximate second-order SCF convergence for spin unrestricted wavefunctions
     Chem. Phys. Lett. 2000 325(1-3), 93-98
     doi.org/10.1016/s0009-2614(00)00662-x

Timings for individual modules:

Sum of individual times          ...       71.175 sec (=   1.186 min)
Startup calculation              ...        0.604 sec (=   0.010 min)   0.8 %
SCF iterations                   ...       69.989 sec (=   1.166 min)  98.3 %
Property integrals               ...        0.277 sec (=   0.005 min)   0.4 %
Property calculations            ...        0.279 sec (=   0.005 min)   0.4 %
Orbital localization             ...        0.025 sec (=   0.000 min)   0.0 %
                             ****ORCA TERMINATED NORMALLY****
TOTAL RUN TIME: 0 days 0 hours 1 minutes 11 seconds 856 msec
