
                                 *****************
                                 * O   R   C   A *
                                 *****************

                                            #,                                       
                                            ###                                      
                                            ####                                     
                                            #####                                    
                                            ######                                   
                                           ########,                                 
                                     ,,################,,,,,                         
                               ,,#################################,,                 
                          ,,##########################################,,             
                       ,#########################################, ''#####,          
                    ,#############################################,,   '####,        
                  ,##################################################,,,,####,       
                ,###########''''           ''''###############################       
              ,#####''   ,,,,##########,,,,          '''####'''          '####       
            ,##' ,,,,###########################,,,                        '##       
           ' ,,###''''                  '''############,,,                           
         ,,##''                                '''############,,,,        ,,,,,,###''
      ,#''                                            '''#######################'''  
     '                                                          ''''####''''         
             ,#######,   #######,   ,#######,      ##                                
            ,#'     '#,  ##    ##  ,#'     '#,    #''#        ,####,    ,#,          
            ##       ##  ##   ,#'  ##            #'  '#       #'       ,# #          
            ##       ##  #######   ##           ,######,      #####,      #          
            '#,     ,#'  ##    ##  '#,     ,#' ,#      #,     #,   #      #          
             '#######'   ##     ##  '#######'  #'      '#     '####' #    #          



                #########################################################
                #                        -***-                          #
                #          Department of theory and spectroscopy        #
                #                                                       #
                #                      Frank Neese                      #
                #                                                       #
                #     Directorship, Architecture, Infrastructure        #
                #                    SHARK, DRIVERS                     #
                #        Core code/Algorithms in most modules           #
                #                                                       #
                #        Max Planck Institute fuer Kohlenforschung      #
                #                Kaiser Wilhelm Platz 1                 #
                #                 D-45470 Muelheim/Ruhr                 #
                #                      Germany                          #
                #                                                       #
                #                  All rights reserved                  #
                #                        -***-                          #
                #########################################################


                         Program Version 6.1.1  -  RELEASE   -
                                (GIT: $487d211c$)
                          ($2025-11-21 10:33:24 +0100$)


 With contributions from (in alphabetic order):
[Max-Planck-Institut fuer Kohlenforschung]                               
  Daniel Aravena         : Magnetic Suceptibility                        
  Michael Atanasov       : Ab Initio Ligand Field Theory (pilot matlab implementation)
  Alexander A. Auer      : GIAO ZORA, VPT2 properties, NMR spectrum      
  Ute Becker             : All parallelization in ORCA, NUMFREQ, NUMCALC 
  Giovanni Bistoni       : ED, misc. LED, open-shell LED, HFLD           
  Dmytro Bykov           : pre 5.0 version of the SCF Hessian            
  Marcos Casanova-Páez   : Triplet and SCS-CIS(D). UHF-(DLPNO)-IP/EA/STEOM-CCSD. UHF-CVS-IP/STEOM-CCSD   
  Vijay G. Chilkuri      : MRCI spin determinant printing, contributions to CSF-ICE 
  Pauline Colinet        : FMM embedding                                 
  Dipayan Datta          : RHF DLPNO-CCSD density                        
  Achintya Kumar Dutta   : EOM-CC, STEOM-CC                              
  Nicolas Foglia         : Exact transition moments, OPA infrastructure, MCD improvements    
  Dmitry Ganyushin       : Spin-Orbit,Spin-Spin,Magnetic field MRCI      
  Miquel Garcia-Rates    : C-PCM and meta-GGA Hessian, CCSD/C-PCM, Gaussian charge scheme 
  Tiago L. C. Gouveia    : GS-ROHF, GS-ROCIS                             
  Yang Guo               : DLPNO-NEVPT2, F12-NEVPT2, CIM, IAO-localization        
  Andreas Hansen         : Spin unrestricted coupled pair/coupled cluster methods 
  Ingolf Harden          : AUTO-CI MPn and infrastructure                
  Benjamin Helmich-Paris : MC-RPA, TRAH-(SCF,CASSCF), AVAS, COSX integrals, SCF dyn. polar., MC-PDFT, srDFT 
  Lee Huntington         : MR-EOM, pCC                                   
  Robert Izsak           : Overlap fitted RIJCOSX, COSX-SCS-MP3, EOM     
  Riya Kayal             : Wick's Theorem for AUTO-CI, AUTO-CI UHF-CCSDT 
  Emily Kempfer          : AUTO-CI RHF CISDT and CCSDT, approximate NEVPT4
  Christian Kollmar      : KDIIS, OOCD, Brueckner-CCSD(T), CCSD density, CASPT2, CASPT2-K, improved NEVPT2 
  Axel Koslowski         : Symmetry handling                             
  Simone Kossmann        : meta-GGA functionals, TD-DFT gradient, OOMP2, (MP2 Hessian; deprecated post 5.0) 
  Lucas Lang             : DCDCAS, Hyperfine gauge corrections, ICE-SOC+SSC
  Marvin Lechner         : AUTO-CI (C++ implementation), FIC-MRCC        
  Spencer Leger          : CASSCF response                               
  Dagmar Lenk            : GEPOL surface, SMD, ORCA-2-JSON               
  Dimitrios Liakos       : Extrapolation schemes; Compound Job, Property file
  Dimitrios Manganas     : Further ROCIS development; embedding schemes. LFT, Crystal Embedding 
  Dimitrios Pantazis     : SARC Basis sets                               
  Anastasios Papadopoulos: AUTO-CI, single reference methods and gradients 
  Taras Petrenko         : pre 6.0 DFT Hessian and TD-DFT gradient,  ECA, NRVS 
  Petra Pikulova         : Analytic Raman intensities                    
  Peter Pinski           : DLPNO-MP2, DLPNO-MP2 Gradient                 
  Shashank Vittal Rao    : ES-AILFT, MagRelax                            
  Christoph Reimann      : Effective Core Potentials                     
  Marius Retegan         : Local ZFS, SOC                                
  Christoph Riplinger    : Optimizer, TS searches, QM/MM, DLPNO-CCSD(T), (RO)-DLPNO pert. Triples 
  Michael Roemelt        : Original ROCIS implementation, recursive CI coupling coefficients
  Masaaki Saitow         : Open-shell DLPNO-CCSD energy and density      
  Barbara Sandhoefer     : DKH picture change effects                    
  Yorick L. A. Schmerwitz: GMF and freeze-and-release deltaSCF, NEB S-IDPP initial path                    
  Kantharuban Sivalingam : CASSCF convergence/infrastructure, NEVPT2, NEVPT3, NEVPT4(SD), FIC-MRCI and CEPA variants
  Bernardo de Souza      : ESD, SOC TD-DFT                               
  Georgi L. Stoychev     : AutoAux, RI-MP2 NMR, DLPNO-MP2 response, X2C  
  Van Anh Tran           : RI-MP2 g-tensors                              
  Willem Van den Heuvel  : Paramagnetic NMR                              
  Zikuan Wang            : NOTCH, Electric field optimization            
  Frank Wennmohs         : Technical directorship and infrastructure     
  Hang Xu                : AUTO-CI-Response properties                   
                                                                         
[FACCTs GmbH]                                                            
  Markus Bursch, Nicolas Foglia, Miquel Garcia-Rates, Ingolf Harden, Hagen Neugebauer, Anastasios Papadopoulos, 
  Christoph Riplinger, Bernardo de Souza, Georgi L. Stoychev                                                    
                                                                 
  APM, various basis sets, CI-OPT, improved COSX, DLPNO-Multilevel,           
  DOCKER, DRACO, updates on ESD, Fragmentator, GOAT, IRC, LR-CPCM, L-BFGS, MBIS, meta-GGA TD-DFT gradient, ML-optimized integration grids, 
  MM, NACMEs, nearIR, NEB, NEB-TS, NL-DFT gradient (VV10), 2- and 3-layer-ONIOM, interface openCOSMO-RS, QMMM,   
  Crystal-QMMM, RESP, rigid body optimization, SF, symmetry and pop. for TD-DFT, various functionals, SOLVATOR                                   
                                                                         
[Other institutions]                                                     
  V. Asgeirsson          : NEB                                           
  Christoph Bannwarth    : sTDA-DFT, sTD-DFT, PBEh-3c, B97-3c, D3        
  Giovanni Bistoni       : ETS/NOCV, ADLD/ADEX, COVALED                  
  Martin Brehm           : Molecular dynamics                            
  Ronald Cardenas        : ETS/NOCV                                      
  Martina Colucci        : COVALED                                       
  Sebastian Ehlert       : rSCAN, r2SCAN, r2SCAN-3c, D4, dhf basis sets  
  Marvin Friede          : D4 for Fr, Ra, Ac-Lr                          
  Lars Goerigk           : TD-DFT with DH, B97 family of functionals     
  Stefan Grimme          : VdW corrections, initial TS optimization, DFT functionals, gCP, sTDA/sTD-DF 
  Waldemar Hujo          : DFT-NL                                        
  H. Jonsson             : NEB                                           
  Holger Kruse           : gCP                                           
  Marcel Mueller         : wB97X-3c, vDZP basis set                      
  Hagen Neugebauer       : wr2SCAN, Native XTB                           
  Gianluca Regni         : ADLD/ADEX                                     
  Tobias Risthaus        : pre 6.0 range-separated hybrid DFT and stability analysis
  Lukas Wittmann         : regularized MP2, r2SCAN double-hybrids, wr2SCAN        
                                                                         
We gratefully acknowledge several colleagues who have allowed us to      
interface, adapt or use parts of their codes:                            
  Ed Valeev, F. Pavosevic, A. Kumar             : LibInt (2-el integral package), F12 methods 
  Garnet Chan, S. Sharma, J. Yang, R. Olivares  : DMRG                   
  Ulf Ekstrom                                   : XCFun DFT Library      
  Mihaly Kallay                                 : mrcc  (arbitrary order and MRCC methods)
  Frank Weinhold                                : gennbo (NPA and NBO analysis)           
  Simon Mueller                                 : openCOSMO-RS                            
  Christopher J. Cramer and Donald G. Truhlar   : smd solvation model                     
  S Lehtola, MJT Oliveira, MAL Marques          : LibXC Library                           
  Liviu Ungur et al                             : ANISO software                          


 Your calculation uses the libint2 library for the computation of 2-el integrals
 For citations please refer to: http://libint.valeyev.net

 Your ORCA version has been built with support for libXC version: 7.0.0
 For citations please refer to: https://libxc.gitlab.io

 This ORCA versions uses:
   CBLAS   interface :  Fast vector & matrix operations
   LAPACKE interface :  Fast linear algebra routines
   SCALAPACK package :  Parallel linear algebra routines
   Shared memory     :  Shared parallel matrices
   BLAS/LAPACK       :  OpenBLAS 0.3.29  USE64BITINT DYNAMIC_ARCH NO_AFFINITY Cooperlake SINGLE_THREADED
        Core in use  :  Cooperlake
   Copyright (c) 2011-2014, The OpenBLAS Project


  ***********************************
  * Starting time: Wed May 20 12:40:04 2026
  * Host name:     c1-37
  * Process ID:    685645
  * Working dir.:  /cluster/projects/nn14654k/ylvaos/basis_set_n_funcs/functionals/N12/PO2/out
  ***********************************

Using LibXC functional ID  82 : Minnesota N12 exchange functional
[ 1]  R. Peverati and D. G. Truhlar.,  J. Chem. Theory Comput. 8, 2310 (2012)
Using LibXC functional ID  80 : Minnesota N12 correlation functional
[ 1]  R. Peverati and D. G. Truhlar.,  J. Chem. Theory Comput. 8, 2310 (2012)
Using LibXC functional ID  82 : Minnesota N12 exchange functional
[ 1]  R. Peverati and D. G. Truhlar.,  J. Chem. Theory Comput. 8, 2310 (2012)
Using LibXC functional ID  80 : Minnesota N12 correlation functional
[ 1]  R. Peverati and D. G. Truhlar.,  J. Chem. Theory Comput. 8, 2310 (2012)
Your calculation utilizes LibXC
by S. Lehtola, C. Steigemann, M. J. T. Oliveira & M. A. L. Marques
Please cite in your paper:
Lehtola, S.; Steigemann, C.; Oliveira, M.J.T.; Marques, M. A. L. Software X, 7, (2018), 1.
   

================================================================================

----- Orbital basis set information -----
Your calculation utilizes the basis: pcseg-4
   F. Jensen, J. Chem. Theory Comput. 10, 1074 (2014).

================================================================================
                                        WARNINGS
                       Please study these warnings very carefully!
================================================================================


WARNING: The basis set has functions with high angular momentum (Lmax>4).
         We might need to increase small grids for safety reasons and
         in general, DEFGRID3 is recommend for such cases.
  ===> : GRIDX1, TD-DFT and the CP-SCF AngGrids will be increased to at least 2


WARNING: your system is open-shell and RHF/RKS was chosen
  ===> : WILL SWITCH to UHF/UKS


================================================================================
                                       INPUT FILE
================================================================================
NAME = /cluster/projects/nn14654k/ylvaos/basis_set_n_funcs/functionals/N12/PO2/inp/PO2_N12_pcseg4.inp
|  1> ! dft pcseg-4 TightSCF
|  2> %pal nprocs 8 end
|  3> 
|  4> %loc
|  5>   LocMet NewBoys
|  6>   Occ true
|  7> end
|  8> 
|  9> %method
| 10>   exchange gga_x_N12
| 11>   correlation gga_c_N12
| 12> end
| 13> 
| 14> %elprop
| 15>   Dipole true
| 16>   Quadrupole true
| 17> end
| 18> 
| 19> * xyz 0 2
| 20> P    0.000000000000   0.000000000000   0.287900000000
| 21> O    0.000000000000   1.356300000000  -0.269900000000
| 22> O    0.000000000000  -1.356300000000  -0.269900000000
| 23> *
| 24> 
| 25> 
| 26>                          ****END OF INPUT****
================================================================================

                       ****************************
                       * Single Point Calculation *
                       ****************************

---------------------------------
CARTESIAN COORDINATES (ANGSTROEM)
---------------------------------
  P      0.000000    0.000000    0.287900
  O      0.000000    1.356300   -0.269900
  O      0.000000   -1.356300   -0.269900

----------------------------
CARTESIAN COORDINATES (A.U.)
----------------------------
  NO LB      ZA    FRAG     MASS         X           Y           Z
   0 P    15.0000    0    30.974    0.000000    0.000000    0.544052
   1 O     8.0000    0    15.999    0.000000    2.563036   -0.510037
   2 O     8.0000    0    15.999    0.000000   -2.563036   -0.510037

--------------------------------
INTERNAL COORDINATES (ANGSTROEM)
--------------------------------
 P      0   0   0     0.000000000000     0.00000000     0.00000000
 O      1   0   0     1.466523279733     0.00000000     0.00000000
 O      1   2   0     1.466523279733   135.28860674     0.00000000

---------------------------
INTERNAL COORDINATES (A.U.)
---------------------------
 P      0   0   0     0.000000000000     0.00000000     0.00000000
 O      1   0   0     2.771327367716     0.00000000     0.00000000
 O      1   2   0     2.771327367716   135.28860674     0.00000000

---------------------
BASIS SET INFORMATION
---------------------
There are 2 groups of distinct atoms

 Group   1 Type P   : 25s17p6d3f2g1h contracted to 7s6p6d3f2g1h pattern {14521111/1121111/111111/111/11/1}
 Group   2 Type O   : 20s11p6d3f2g1h contracted to 6s5p6d3f2g1h pattern {1241111/71111/111111/111/11/1}

Atom   0P    basis set group =>   1
Atom   1O    basis set group =>   2
Atom   2O    basis set group =>   2


           ************************************************************
           *        Program running with 8 parallel MPI-processes     *
           *              working on a common directory               *
           ************************************************************
------------------------------------------------------------------------------
                             ORCA STARTUP CALCULATIONS
------------------------------------------------------------------------------
------------------------------------------------------------------------------
                   ___                                                        
                  /   \      - P O W E R E D   B Y -                         
                 /     \                                                     
                 |  |  |   _    _      __       _____    __    __             
                 |  |  |  | |  | |    /  \     |  _  \  |  |  /  |          
                  \  \/   | |  | |   /    \    | | | |  |  | /  /          
                 / \  \   | |__| |  /  /\  \   | |_| |  |  |/  /          
                |  |  |   |  __  | /  /__\  \  |    /   |      \           
                |  |  |   | |  | | |   __   |  |    \   |  |\   \          
                \     /   | |  | | |  |  |  |  | |\  \  |  | \   \       
                 \___/    |_|  |_| |__|  |__|  |_| \__\ |__|  \__/        
                                                                              
                      - O R C A' S   B I G   F R I E N D -                    
                                      &                                       
                       - I N T E G R A L  F E E D E R -                       
                                                                              
 v1 FN, 2020, v2 2021, v3 2022-2024                                           
------------------------------------------------------------------------------


----------------------
SHARK INTEGRAL PACKAGE
----------------------

Number of atoms                             ...      3
Number of basis functions                   ...    307
Number of shells                            ...     71
Maximum angular momentum                    ...      5
Integral batch strategy                     ... SHARK/LIBINT Hybrid
RI-J (if used) integral strategy            ... SPLIT-RIJ (Revised 2003 algorithm where possible)
Printlevel                                  ...      1
Contraction scheme used                     ... SEGMENTED contraction
Prescreening option                         ... SCHWARTZ
   Thresh                                   ... 2.500e-11
   Tcut                                     ... 2.500e-12
   Tpresel                                  ... 2.500e-12 
Coulomb Range Separation                    ... NOT USED
Exchange Range Separation                   ... NOT USED
Multipole approximations                    ... NOT USED
Finite Nucleus Model                        ... NOT USED
CABS basis                                  ... NOT available
Auxiliary Coulomb fitting basis             ... NOT available
Auxiliary J/K fitting basis                 ... NOT available
Auxiliary Correlation fitting basis         ... NOT available
Auxiliary 'external' fitting basis          ... NOT available

Checking pre-screening integrals            ... done (  0.0 sec) Dimension = 71
   => SHARK Basis and OBASIS are compatible. Storing Pre-screening
Shell pair information
Shell pair cut-off parameter TPreSel        ...   2.5e-12
Total number of shell pairs                 ...      2556
Shell pairs after pre-screening             ...      2474
Total number of primitive shell pairs       ...     10214
Primitive shell pairs kept                  ...      7926
          la=0 lb=0:    180 shell pairs
          la=1 lb=0:    300 shell pairs
          la=1 lb=1:    135 shell pairs
          la=2 lb=0:    320 shell pairs
          la=2 lb=1:    284 shell pairs
          la=2 lb=2:    157 shell pairs
          la=3 lb=0:    167 shell pairs
          la=3 lb=1:    144 shell pairs
          la=3 lb=2:    158 shell pairs
          la=3 lb=3:     45 shell pairs
          la=4 lb=0:    110 shell pairs
          la=4 lb=1:     94 shell pairs
          la=4 lb=2:    104 shell pairs
          la=4 lb=3:     54 shell pairs
          la=4 lb=4:     20 shell pairs
          la=5 lb=0:     53 shell pairs
          la=5 lb=1:     48 shell pairs
          la=5 lb=2:     50 shell pairs
          la=5 lb=3:     27 shell pairs
          la=5 lb=4:     18 shell pairs
          la=5 lb=5:      6 shell pairs

Checking whether 4 symmetric matrices of dimension 307 fit in memory
:Max Core in MB      =   4096.00
 MB in use           =      9.87
 MB left             =   4086.13
 MB needed           =      1.44
 Data fit in memory  = YES
Calculating Nuclear repulsion               ... done (  0.0 sec) ENN=     99.086296046297 Eh

Diagonalization of the overlap matrix:
Smallest eigenvalue                        ... 3.007e-05
Time for diagonalization                   ...    0.005 sec
Threshold for overlap eigenvalues          ... 1.000e-07
Number of eigenvalues below threshold      ... 0
Time for construction of square roots      ...    0.004 sec
Total time needed                          ...    0.015 sec

-------------------
DFT GRID GENERATION
-------------------

General Integration Accuracy     IntAcc      ... 4.388
Radial Grid Type                 RadialGrid  ... OptM3 with GC (2021)
Angular Grid (max. ang.)         AngularGrid ... 4 (Lebedev-302)
Angular grid pruning method      GridPruning ... 4 (adaptive)
Weight generation scheme         WeightScheme... mBecke (2022)
Basis function cutoff            BFCut       ... 1.0000e-11
Integration weight cutoff        WCut        ... 1.0000e-14
Partially contracted basis set               ... off
Rotationally invariant grid construction     ... off
Angular grids for H and He will be reduced by one unit
Diffuse basis detected: some atoms will have their outermost
                        angular grid increased by 1.
Core-polarized basis detected: some atoms will have their core
                               angular grid increased.

Total number of grid points                  ...    26050
Total number of batches                      ...      408
Average number of points per batch           ...       63
Average number of grid points per atom       ...     8683
Grids setup in   0.1 sec
Initializing property integral containers    ... done (  0.0 sec)

SHARK setup successfully completed in   0.4 seconds

Maximum memory used throughout the entire STARTUP-calculation: 84.7 MB


           ************************************************************
           *        Program running with 8 parallel MPI-processes     *
           *              working on a common directory               *
           ************************************************************
-------------------------------------------------------------------------------
                                 ORCA GUESS
                   Start orbitals & Density for SCF / CASSCF
-------------------------------------------------------------------------------

------------
SCF SETTINGS
------------
Hamiltonian:
 Density Functional     Method          .... DFT(GTOs)
  Functional kind                       .... Exchange
  Functional name                       .... Minnesota N12 exchange functional
  Functional family                     .... GGA
  Functional refs                              
    [ 0] R. Peverati and D. G. Truhlar.,  J. Chem. Theory Comput. 8, 2310 (2012), doi: 10.1021/ct3002656
  Functional external parameters        .... 16
    Parameter  0 _CC00      =  1.000000e+00 : _CC00               
    Parameter  1 _CC01      =  5.078800e-01 : _CC01               
    Parameter  2 _CC02      =  1.682330e-01 : _CC02               
    Parameter  3 _CC03      =  1.288870e-01 : _CC03               
    Parameter  4 _CC10      =  8.602110e-02 : _CC10               
    Parameter  5 _CC11      = -1.710080e+01 : _CC11               
    Parameter  6 _CC12      =  6.508140e+01 : _CC12               
    Parameter  7 _CC13      = -7.017260e+01 : _CC13               
    Parameter  8 _CC20      = -3.907550e-01 : _CC20               
    Parameter  9 _CC21      =  5.133920e+01 : _CC21               
    Parameter 10 _CC22      = -1.662200e+02 : _CC22               
    Parameter 11 _CC23      =  1.427380e+02 : _CC23               
    Parameter 12 _CC30      =  4.036110e-01 : _CC30               
    Parameter 13 _CC31      = -3.446310e+01 : _CC31               
    Parameter 14 _CC32      =  7.616610e+01 : _CC32               
    Parameter 15 _CC33      = -2.418340e+00 : _CC33               
  Functional kind                       .... Correlation
  Functional name                       .... Minnesota N12 correlation functional
  Functional family                     .... GGA
  Functional refs                              
    [ 0] R. Peverati and D. G. Truhlar.,  J. Chem. Theory Comput. 8, 2310 (2012), doi: 10.1021/ct3002656
  Functional external parameters        .... 10
    Parameter  0 _css0      =  1.000000e+00 : u^0 coefficient for same-spin correlation
    Parameter  1 _css1      = -5.531700e+00 : u^1 coefficient for same-spin correlation
    Parameter  2 _css2      =  3.079580e+01 : u^2 coefficient for same-spin correlation
    Parameter  3 _css3      = -5.641960e+01 : u^3 coefficient for same-spin correlation
    Parameter  4 _css4      =  3.212500e+01 : u^4 coefficient for same-spin correlation
    Parameter  5 _cos0      =  1.000000e+00 : u^0 coefficient for opposite-spin correlation
    Parameter  6 _cos1      =  3.245110e+00 : u^1 coefficient for opposite-spin correlation
    Parameter  7 _cos2      = -2.528930e+01 : u^2 coefficient for opposite-spin correlation
    Parameter  8 _cos3      =  1.444070e+01 : u^3 coefficient for opposite-spin correlation
    Parameter  9 _cos4      =  1.968700e+01 : u^4 coefficient for opposite-spin correlation
 Gradients option       PostSCFGGA      .... off


General Settings:
 Integral files         IntName         .... /cluster/projects/nn14654k/ylvaos/basis_set_n_funcs/functionals/N12/PO2/inp/PO2_N12_pcseg4
 Hartree-Fock type      HFTyp           .... UHF
 Total Charge           Charge          ....    0
 Multiplicity           Mult            ....    2
 Number of Electrons    NEL             ....   31
 Basis Dimension        Dim             ....  307
 Nuclear Repulsion      ENuc            ....     99.0862960463 Eh

Convergence Acceleration:
 AO-DIIS                CNVDIIS         .... on
   Start iteration      DIISMaxIt       ....    12
   Startup error        DIISStart       ....  0.200000
   # of expansion vecs  DIISMaxEq       ....     5
   Bias factor          DIISBfac        ....   1.050
   Max. coefficient     DIISMaxC        ....  10.000
 MO-DIIS                CNVKDIIS        .... off
 Trust-Rad. Augm. Hess. CNVTRAH         .... auto
   Auto Start mean grad. ratio tolernc. ....  1.125000
   Auto Start start iteration           ....    50
   Auto Start num. interpolation iter.  ....    10
   Max. Number of Micro iterations      ....    24
   Max. Number of Macro iterations      .... Maxiter - #DIIS iter
   Number of Davidson start vectors     ....     2
   Converg. threshold    (grad. norm)   ....   1.000e-05
   Grad. Scal. Fac. for Micro threshold ....   0.100
   Minimum threshold for Micro iter.    ....   1.000e-02
   NR start threshold (gradient norm)   ....   1.000e-04
   Initial trust radius                 ....   0.400
   Minimum AH scaling param. (alpha)    ....   1.000
   Maximum AH scaling param. (alpha)    .... 1000.000
   Quad. conv. algorithm                .... NR
   White noise on init. David. guess    .... on
   Maximum white noise                  ....   0.010
   Pseudo random numbers                .... off
   Inactive MOs                         .... canonical
   Orbital update algorithm             .... Taylor
   Preconditioner                       .... Diag
   Full preconditioner red. dimension   ....   250
 SOSCF                 CNVSOSCF           .... on
   Start iteration     SOSCFMaxIt         ....   150
   Startup grad/error  SOSCFStart         ....  0.003300
   Hessian update      SOSCFHessUp        .... L-BFGS
   Autom. constraints  SOSCFAutoConstrain .... off
 Level Shifting         CNVShift        .... on
   Level shift para.    LevelShift      ....    0.2500
   Turn off err/grad.   ShiftErr        ....    0.0010
 Zerner damping         CNVZerner       .... off
 Static damping         CNVDamp         .... on
   Fraction old density DampFac         ....    0.7000
   Max. Damping (<1)    DampMax         ....    0.9800
   Min. Damping (>=0)   DampMin         ....    0.0000
   Turn off err/grad.   DampErr         ....    0.1000

SCF Procedure:
 Maximum # iterations   MaxIter         ....   125
 SCF integral mode      SCFMode         .... Direct
   Integral package                     .... SHARK and LIBINT hybrid scheme
 Reset frequency        DirectResetFreq ....    20
 Integral Threshold     Thresh          ....  2.500e-11 Eh
 Primitive CutOff       TCut            ....  2.500e-12 Eh

Convergence Tolerance:
 Convergence Check Mode ConvCheckMode   .... Total+1el-Energy
 Convergence forced     ConvForced      .... 0
 Energy Change          TolE            ....  1.000e-08 Eh
 1-El. energy change                    ....  1.000e-05 Eh
 Orbital Gradient       TolG            ....  1.000e-05
 Orbital Rotation angle TolX            ....  1.000e-05
 DIIS Error             TolErr          ....  5.000e-07

------------------------------
INITIAL GUESS: MODEL POTENTIAL
------------------------------
Loading Hartree-Fock densities                     ... done
Calculating cut-offs                               ... done
Initializing the effective Hamiltonian             ... done
Setting up the integral package (SHARK)            ... done
Starting the Coulomb interaction                   ... done (   0.0 sec)
Making the grid                                    ... done (   0.0 sec)
Mapping shells                                     ... done
Starting the XC term evaluation                    ... done (   0.0 sec)
  promolecular density results
     # of electrons  =     31.000270345
     EX              =    -38.233398681
     EC              =     -1.877191770
     EX+EC           =    -40.110590451
Transforming the Hamiltonian                       ... done (   0.0 sec)
Diagonalizing the Hamiltonian                      ... done (   0.0 sec)
Back transforming the eigenvectors                 ... done (   0.0 sec)
Now organizing SCF variables                       ... done
                      ------------------
                      INITIAL GUESS DONE (   0.1 sec)
                      ------------------
             **** ENERGY FILE WAS UPDATED (/cluster/projects/nn14654k/ylvaos/basis_set_n_funcs/functionals/N12/PO2/inp/PO2_N12_pcseg4.en.tmp) ****
Finished Guess after   0.2 sec
Maximum memory used throughout the entire GUESS-calculation: 22.9 MB


           ************************************************************
           *        Program running with 8 parallel MPI-processes     *
           *              working on a common directory               *
           ************************************************************

-------------------------------------------------------------------------------------------
                                      ORCA LEAN-SCF
                              memory conserving SCF solver
-------------------------------------------------------------------------------------------

----------------------------------------D-I-I-S--------------------------------------------
Iteration    Energy (Eh)           Delta-E    RMSDP     MaxDP     DIISErr   Damp  Time(sec)
-------------------------------------------------------------------------------------------
               ***  Starting incremental Fock matrix formation  ***
    1    -491.4805450309345929     0.00e+00  3.41e-03  1.03e-01  2.08e-01  0.700   4.1
Warning: op=1 Small HOMO/LUMO gap (   0.055) - skipping pre-diagonalization
         Will do a full diagonalization
    2    -491.6837501438081404    -2.03e-01  1.80e-03  5.58e-02  4.87e-02  0.700   4.2
                               ***Turning on AO-DIIS***
    3    -491.7243034298471116    -4.06e-02  1.31e-03  4.09e-02  1.58e-02  0.700   3.9
    4    -491.7556803323929557    -3.14e-02  2.90e-03  1.01e-01  2.35e-02  0.000   3.9
    5    -491.8418535527760582    -8.62e-02  5.65e-04  3.59e-02  1.44e-02  0.000   3.9
    6    -491.8439286042575418    -2.08e-03  3.13e-04  1.97e-02  5.31e-03  0.000   3.8
                              *** Initializing SOSCF ***
---------------------------------------S-O-S-C-F--------------------------------------
Iteration    Energy (Eh)           Delta-E    RMSDP     MaxDP     MaxGrad    Time(sec)
--------------------------------------------------------------------------------------
    7    -491.8442091728707624    -2.81e-04  1.11e-04  4.82e-03  2.08e-03     3.8
               *** Restarting incremental Fock matrix formation ***
    8    -491.8442555693406462    -4.64e-05  1.42e-04  6.44e-03  1.31e-03     4.0
    9    -491.8442303223947079     2.52e-05  4.85e-05  1.24e-03  2.40e-03     3.5
   10    -491.8442676585638651    -3.73e-05  3.69e-05  2.41e-03  1.05e-04     3.4
   11    -491.8442680359730161    -3.77e-07  8.35e-06  2.22e-04  6.07e-05     3.3
   12    -491.8442681014446975    -6.55e-08  2.30e-06  6.48e-05  1.09e-05     3.1
   13    -491.8442681056250763    -4.18e-09  1.11e-06  7.69e-05  6.59e-06     2.9
                 **** Energy Check signals convergence ****

               *****************************************************
               *                     SUCCESS                       *
               *           SCF CONVERGED AFTER  13 CYCLES          *
               *****************************************************

             **** ENERGY FILE WAS UPDATED (/cluster/projects/nn14654k/ylvaos/basis_set_n_funcs/functionals/N12/PO2/inp/PO2_N12_pcseg4.en.tmp) ****

----------------
TOTAL SCF ENERGY
----------------

Total Energy       :       -491.84426810685096 Eh          -13383.76295 eV

Components:
Nuclear Repulsion  :         99.08629604629714 Eh            2696.27519 eV
Electronic Energy  :       -590.93056415314811 Eh          -16080.03814 eV
One Electron Energy:       -876.62331248032319 Eh          -23854.13305 eV
Two Electron Energy:        285.69274832717508 Eh            7774.09491 eV

Virial components:
Potential Energy   :       -982.81985072826910 Eh          -26743.88777 eV
Kinetic Energy     :        490.97558262141820 Eh           13360.12482 eV
Virial Ratio       :          2.00176930486195

DFT components:
N(Alpha)           :       16.000054519090 electrons
N(Beta)            :       15.000028255350 electrons
N(Total)           :       31.000082774440 electrons
E(X)               :      -38.597368479327 Eh       
E(C)               :       -1.889967637550 Eh       
E(XC)              :      -40.487336116877 Eh       

---------------
SCF CONVERGENCE
---------------

  Last Energy change         ...    4.1804e-09  Tolerance :   1.0000e-08
  Last MAX-Density change    ...    7.6934e-05  Tolerance :   1.0000e-07
  Last RMS-Density change    ...    1.1113e-06  Tolerance :   5.0000e-09
  Last DIIS Error            ...    2.0761e-03  Tolerance :   5.0000e-07
  Last Orbital Gradient      ...    6.5887e-06  Tolerance :   1.0000e-05
  Last Orbital Rotation      ...    2.0689e-05  Tolerance :   1.0000e-05


----------------------
UHF SPIN CONTAMINATION
----------------------

Warning: in a DFT calculation there is little theoretical justification to 
         calculate <S**2> as in Hartree-Fock theory. We will do it anyways
         but you should keep in mind that the values have only limited relevance

Expectation value of <S**2>     :     0.752993
Ideal value S*(S+1) for S=0.5   :     0.750000
Deviation                       :     0.002993

----------------
ORBITAL ENERGIES
----------------
                 SPIN UP ORBITALS
  NO   OCC          E(Eh)            E(eV) 
   0   1.0000     -76.282748     -2075.7591 
   1   1.0000     -18.808401      -511.8026 
   2   1.0000     -18.808401      -511.8026 
   3   1.0000      -6.429698      -174.9610 
   4   1.0000      -4.749948      -129.2527 
   5   1.0000      -4.746867      -129.1688 
   6   1.0000      -4.743683      -129.0822 
   7   1.0000      -0.983140       -26.7526 
   8   1.0000      -0.939033       -25.5524 
   9   1.0000      -0.509756       -13.8712 
  10   1.0000      -0.421115       -11.4591 
  11   1.0000      -0.404186       -10.9985 
  12   1.0000      -0.404181       -10.9983 
  13   1.0000      -0.339074        -9.2267 
  14   1.0000      -0.331961        -9.0331 
  15   1.0000      -0.273427        -7.4403 
  16   0.0000      -0.127144        -3.4598 
  17   0.0000      -0.034821        -0.9475 
  18   0.0000       0.005303         0.1443 
  19   0.0000       0.013734         0.3737 
  20   0.0000       0.024703         0.6722 
  21   0.0000       0.056912         1.5487 
  22   0.0000       0.091950         2.5021 
  23   0.0000       0.104155         2.8342 
  24   0.0000       0.116513         3.1705 
  25   0.0000       0.125871         3.4251 
  26   0.0000       0.143117         3.8944 

                 SPIN DOWN ORBITALS
  NO   OCC          E(Eh)            E(eV) 
   0   1.0000     -76.279968     -2075.6835 
   1   1.0000     -18.799988      -511.5737 
   2   1.0000     -18.799988      -511.5737 
   3   1.0000      -6.428241      -174.9213 
   4   1.0000      -4.748801      -129.2215 
   5   1.0000      -4.743759      -129.0842 
   6   1.0000      -4.742139      -129.0402 
   7   1.0000      -0.967924       -26.3386 
   8   1.0000      -0.923000       -25.1161 
   9   1.0000      -0.486557       -13.2399 
  10   1.0000      -0.398448       -10.8423 
  11   1.0000      -0.394243       -10.7279 
  12   1.0000      -0.387474       -10.5437 
  13   1.0000      -0.331907        -9.0317 
  14   1.0000      -0.318990        -8.6801 
  15   0.0000      -0.223644        -6.0856 
  16   0.0000      -0.100616        -2.7379 
  17   0.0000      -0.014782        -0.4022 
  18   0.0000       0.013951         0.3796 
  19   0.0000       0.026903         0.7321 
  20   0.0000       0.030676         0.8347 
  21   0.0000       0.071706         1.9512 
  22   0.0000       0.106614         2.9011 
  23   0.0000       0.120397         3.2762 
  24   0.0000       0.128052         3.4845 
  25   0.0000       0.150269         4.0890 
*Only the first 10 virtual orbitals were printed.

                    ********************************
                    * MULLIKEN POPULATION ANALYSIS *
                    ********************************

--------------------------------------------
MULLIKEN ATOMIC CHARGES AND SPIN POPULATIONS
--------------------------------------------
   0 P :    0.962304    0.658724
   1 O :   -0.481149    0.170637
   2 O :   -0.481155    0.170639
Sum of atomic charges         :   -0.0000000
Sum of atomic spin populations:    1.0000000

-----------------------------------------------------
MULLIKEN REDUCED ORBITAL CHARGES AND SPIN POPULATIONS
-----------------------------------------------------
CHARGE
  0 P s       :     5.303627  s :     5.303627
      pz      :     2.845794  p :     8.049975
      px      :     2.685276
      py      :     2.518905
      dz2     :     0.091370  d :     0.619230
      dxz     :     0.012386
      dyz     :     0.175932
      dx2y2   :     0.162236
      dxy     :     0.177307
      f0      :     0.003265  f :     0.051238
      f+1     :     0.000126
      f-1     :     0.016496
      f+2     :     0.006772
      f-2     :     0.008946
      f+3     :     0.008680
      f-3     :     0.006953
      g0      :     0.001065  g :     0.011629
      g+1     :     0.000148
      g-1     :     0.001033
      g+2     :     0.001839
      g-2     :    -0.000001
      g+3     :     0.001572
      g-3     :     0.001722
      g+4     :     0.001611
      g-4     :     0.002639
      h0      :     0.000115  h :     0.001997
      h+1     :     0.000004
      h-1     :     0.000406
      h+2     :     0.000228
      h-2     :     0.000051
      h+3     :     0.000010
      h-3     :     0.000311
      h+4     :     0.000277
      h-4     :     0.000288
      h+5     :     0.000139
      h-5     :     0.000169

  1 O s       :     3.890664  s :     3.890664
      pz      :     1.539612  p :     4.529442
      px      :     1.535623
      py      :     1.454207
      dz2     :     0.005601  d :     0.053239
      dxz     :     0.002064
      dyz     :     0.018374
      dx2y2   :     0.015189
      dxy     :     0.012012
      f0      :     0.000905  f :     0.007120
      f+1     :     0.000008
      f-1     :     0.001092
      f+2     :     0.002099
      f-2     :     0.000468
      f+3     :     0.000923
      f-3     :     0.001625
      g0      :     0.000039  g :     0.000652
      g+1     :     0.000004
      g-1     :     0.000126
      g+2     :     0.000062
      g-2     :     0.000000
      g+3     :     0.000048
      g-3     :     0.000182
      g+4     :     0.000132
      g-4     :     0.000060
      h0      :     0.000002  h :     0.000032
      h+1     :     0.000000
      h-1     :     0.000004
      h+2     :     0.000005
      h-2     :     0.000000
      h+3     :     0.000000
      h-3     :     0.000002
      h+4     :     0.000009
      h-4     :     0.000002
      h+5     :     0.000002
      h-5     :     0.000005

  2 O s       :     3.890666  s :     3.890666
      pz      :     1.539612  p :     4.529446
      px      :     1.535623
      py      :     1.454210
      dz2     :     0.005601  d :     0.053239
      dxz     :     0.002064
      dyz     :     0.018374
      dx2y2   :     0.015189
      dxy     :     0.012012
      f0      :     0.000905  f :     0.007120
      f+1     :     0.000008
      f-1     :     0.001092
      f+2     :     0.002099
      f-2     :     0.000468
      f+3     :     0.000923
      f-3     :     0.001625
      g0      :     0.000039  g :     0.000652
      g+1     :     0.000004
      g-1     :     0.000126
      g+2     :     0.000062
      g-2     :     0.000000
      g+3     :     0.000048
      g-3     :     0.000182
      g+4     :     0.000132
      g-4     :     0.000060
      h0      :     0.000002  h :     0.000032
      h+1     :     0.000000
      h-1     :     0.000004
      h+2     :     0.000005
      h-2     :     0.000000
      h+3     :     0.000000
      h-3     :     0.000002
      h+4     :     0.000009
      h-4     :     0.000002
      h+5     :     0.000002
      h-5     :     0.000005


SPIN
  0 P s       :     0.081657  s :     0.081657
      pz      :     0.304402  p :     0.420534
      px      :     0.049785
      py      :     0.066347
      dz2     :     0.035283  d :     0.137325
      dxz     :    -0.001697
      dyz     :    -0.000258
      dx2y2   :     0.096038
      dxy     :     0.007959
      f0      :     0.001878  f :     0.016929
      f+1     :    -0.000004
      f-1     :     0.004802
      f+2     :     0.004077
      f-2     :     0.000424
      f+3     :     0.002850
      f-3     :     0.002902
      g0      :     0.000081  g :     0.001677
      g+1     :     0.000037
      g-1     :     0.000360
      g+2     :     0.000220
      g-2     :     0.000001
      g+3     :     0.000499
      g-3     :     0.000023
      g+4     :     0.000807
      g-4     :    -0.000353
      h0      :     0.000079  h :     0.000603
      h+1     :     0.000002
      h-1     :     0.000023
      h+2     :     0.000155
      h-2     :     0.000001
      h+3     :     0.000003
      h-3     :     0.000040
      h+4     :     0.000138
      h-4     :     0.000033
      h+5     :     0.000064
      h-5     :     0.000064

  1 O s       :     0.011287  s :     0.011287
      pz      :     0.167931  p :     0.163393
      px      :    -0.025468
      py      :     0.020930
      dz2     :    -0.001786  d :    -0.003465
      dxz     :    -0.000691
      dyz     :     0.002554
      dx2y2   :    -0.000305
      dxy     :    -0.003238
      f0      :    -0.000037  f :    -0.000590
      f+1     :     0.000000
      f-1     :    -0.000062
      f+2     :    -0.000111
      f-2     :    -0.000115
      f+3     :    -0.000288
      f-3     :     0.000023
      g0      :    -0.000000  g :     0.000009
      g+1     :    -0.000000
      g-1     :     0.000005
      g+2     :     0.000000
      g-2     :     0.000000
      g+3     :    -0.000000
      g-3     :     0.000005
      g+4     :     0.000003
      g-4     :    -0.000003
      h0      :     0.000000  h :     0.000002
      h+1     :     0.000000
      h-1     :     0.000000
      h+2     :     0.000000
      h-2     :     0.000000
      h+3     :     0.000000
      h-3     :     0.000000
      h+4     :     0.000000
      h-4     :     0.000000
      h+5     :     0.000000
      h-5     :     0.000000

  2 O s       :     0.011290  s :     0.011290
      pz      :     0.167930  p :     0.163392
      px      :    -0.025468
      py      :     0.020931
      dz2     :    -0.001786  d :    -0.003465
      dxz     :    -0.000691
      dyz     :     0.002554
      dx2y2   :    -0.000305
      dxy     :    -0.003238
      f0      :    -0.000037  f :    -0.000590
      f+1     :     0.000000
      f-1     :    -0.000062
      f+2     :    -0.000111
      f-2     :    -0.000115
      f+3     :    -0.000288
      f-3     :     0.000023
      g0      :    -0.000000  g :     0.000009
      g+1     :    -0.000000
      g-1     :     0.000005
      g+2     :     0.000000
      g-2     :     0.000000
      g+3     :    -0.000000
      g-3     :     0.000005
      g+4     :     0.000003
      g-4     :    -0.000003
      h0      :     0.000000  h :     0.000002
      h+1     :     0.000000
      h-1     :     0.000000
      h+2     :     0.000000
      h-2     :     0.000000
      h+3     :     0.000000
      h-3     :     0.000000
      h+4     :     0.000000
      h-4     :     0.000000
      h+5     :     0.000000
      h-5     :     0.000000



                     *******************************
                     * LOEWDIN POPULATION ANALYSIS *
                     *******************************

-------------------------------------------
LOEWDIN ATOMIC CHARGES AND SPIN POPULATIONS
-------------------------------------------
   0 P :    0.248019    0.531203
   1 O :   -0.124009    0.234399
   2 O :   -0.124009    0.234399

----------------------------------------------------
LOEWDIN REDUCED ORBITAL CHARGES AND SPIN POPULATIONS
----------------------------------------------------
CHARGE
  0 P s       :     4.831550  s :     4.831550
      pz      :     2.753968  p :     8.118065
      px      :     2.579748
      py      :     2.784349
      dz2     :     0.159120  d :     1.259769
      dxz     :     0.015842
      dyz     :     0.401712
      dx2y2   :     0.363354
      dxy     :     0.319741
      f0      :     0.032225  f :     0.372415
      f+1     :     0.000405
      f-1     :     0.105369
      f+2     :     0.073422
      f-2     :     0.046282
      f+3     :     0.043484
      f-3     :     0.071227
      g0      :     0.012791  g :     0.135259
      g+1     :     0.001222
      g-1     :     0.013039
      g+2     :     0.023034
      g-2     :     0.000013
      g+3     :     0.013961
      g-3     :     0.021592
      g+4     :     0.017398
      g-4     :     0.032209
      h0      :     0.001660  h :     0.034923
      h+1     :     0.000044
      h-1     :     0.006535
      h+2     :     0.002932
      h-2     :     0.000987
      h+3     :     0.000090
      h-3     :     0.006230
      h+4     :     0.003285
      h-4     :     0.006891
      h+5     :     0.003549
      h-5     :     0.002720

  1 O s       :     3.414721  s :     3.414721
      pz      :     1.476599  p :     4.491825
      px      :     1.419749
      py      :     1.595477
      dz2     :     0.018805  d :     0.170835
      dxz     :     0.004575
      dyz     :     0.067796
      dx2y2   :     0.046061
      dxy     :     0.033598
      f0      :     0.005023  f :     0.044345
      f+1     :     0.000114
      f-1     :     0.007862
      f+2     :     0.011615
      f-2     :     0.002751
      f+3     :     0.006694
      f-3     :     0.010285
      g0      :     0.000108  g :     0.002138
      g+1     :     0.000010
      g-1     :     0.000478
      g+2     :     0.000169
      g-2     :     0.000003
      g+3     :     0.000108
      g-3     :     0.000631
      g+4     :     0.000477
      g-4     :     0.000152
      h0      :     0.000012  h :     0.000145
      h+1     :     0.000000
      h-1     :     0.000014
      h+2     :     0.000028
      h-2     :     0.000001
      h+3     :     0.000001
      h-3     :     0.000007
      h+4     :     0.000046
      h-4     :     0.000004
      h+5     :     0.000004
      h-5     :     0.000028

  2 O s       :     3.414721  s :     3.414721
      pz      :     1.476599  p :     4.491825
      px      :     1.419749
      py      :     1.595477
      dz2     :     0.018805  d :     0.170835
      dxz     :     0.004575
      dyz     :     0.067796
      dx2y2   :     0.046061
      dxy     :     0.033598
      f0      :     0.005023  f :     0.044345
      f+1     :     0.000114
      f-1     :     0.007862
      f+2     :     0.011615
      f-2     :     0.002751
      f+3     :     0.006694
      f-3     :     0.010285
      g0      :     0.000108  g :     0.002138
      g+1     :     0.000010
      g-1     :     0.000478
      g+2     :     0.000169
      g-2     :     0.000003
      g+3     :     0.000108
      g-3     :     0.000631
      g+4     :     0.000477
      g-4     :     0.000152
      h0      :     0.000012  h :     0.000145
      h+1     :     0.000000
      h-1     :     0.000014
      h+2     :     0.000028
      h-2     :     0.000001
      h+3     :     0.000001
      h-3     :     0.000007
      h+4     :     0.000046
      h-4     :     0.000004
      h+5     :     0.000004
      h-5     :     0.000028


SPIN
  0 P s       :     0.182682  s :     0.182682
      pz      :     0.155308  p :     0.162837
      px      :     0.018235
      py      :    -0.010706
      dz2     :     0.071724  d :     0.172702
      dxz     :    -0.003208
      dyz     :    -0.004085
      dx2y2   :     0.109548
      dxy     :    -0.001276
      f0      :     0.000440  f :    -0.000706
      f+1     :    -0.000067
      f-1     :    -0.000645
      f+2     :     0.001525
      f-2     :    -0.000538
      f+3     :    -0.002176
      f-3     :     0.000753
      g0      :     0.002345  g :     0.010984
      g+1     :    -0.000018
      g-1     :     0.000328
      g+2     :     0.004936
      g-2     :     0.000002
      g+3     :    -0.000085
      g-3     :     0.000192
      g+4     :     0.003369
      g-4     :    -0.000087
      h0      :     0.000645  h :     0.002705
      h+1     :     0.000001
      h-1     :     0.000094
      h+2     :     0.001090
      h-2     :     0.000016
      h+3     :     0.000001
      h-3     :     0.000111
      h+4     :     0.000489
      h-4     :     0.000095
      h+5     :    -0.000010
      h-5     :     0.000173

  1 O s       :     0.024422  s :     0.024422
      pz      :     0.147101  p :     0.190929
      px      :    -0.006673
      py      :     0.050502
      dz2     :     0.001479  d :     0.016993
      dxz     :     0.000195
      dyz     :     0.014148
      dx2y2   :     0.000477
      dxy     :     0.000694
      f0      :     0.000043  f :     0.002003
      f+1     :    -0.000011
      f-1     :     0.001172
      f+2     :     0.000418
      f-2     :     0.000180
      f+3     :     0.000162
      f-3     :     0.000039
      g0      :     0.000014  g :     0.000049
      g+1     :     0.000000
      g-1     :    -0.000001
      g+2     :     0.000018
      g-2     :    -0.000000
      g+3     :     0.000007
      g-3     :     0.000002
      g+4     :     0.000004
      g-4     :     0.000004
      h0      :     0.000000  h :     0.000003
      h+1     :     0.000000
      h-1     :     0.000001
      h+2     :     0.000000
      h-2     :     0.000000
      h+3     :    -0.000000
      h-3     :     0.000000
      h+4     :     0.000000
      h-4     :     0.000000
      h+5     :     0.000000
      h-5     :     0.000001

  2 O s       :     0.024422  s :     0.024422
      pz      :     0.147101  p :     0.190929
      px      :    -0.006673
      py      :     0.050502
      dz2     :     0.001479  d :     0.016993
      dxz     :     0.000195
      dyz     :     0.014148
      dx2y2   :     0.000477
      dxy     :     0.000694
      f0      :     0.000043  f :     0.002003
      f+1     :    -0.000011
      f-1     :     0.001172
      f+2     :     0.000418
      f-2     :     0.000180
      f+3     :     0.000162
      f-3     :     0.000039
      g0      :     0.000014  g :     0.000049
      g+1     :     0.000000
      g-1     :    -0.000001
      g+2     :     0.000018
      g-2     :    -0.000000
      g+3     :     0.000007
      g-3     :     0.000002
      g+4     :     0.000004
      g-4     :     0.000004
      h0      :     0.000000  h :     0.000003
      h+1     :     0.000000
      h-1     :     0.000001
      h+2     :     0.000000
      h-2     :     0.000000
      h+3     :    -0.000000
      h-3     :     0.000000
      h+4     :     0.000000
      h-4     :     0.000000
      h+5     :     0.000000
      h-5     :     0.000001



                      *****************************
                      * MAYER POPULATION ANALYSIS *
                      *****************************

  NA   - Mulliken gross atomic population
  ZA   - Total nuclear charge
  QA   - Mulliken gross atomic charge
  VA   - Mayer's total valence
  BVA  - Mayer's bonded valence
  FA   - Mayer's free valence

  ATOM       NA         ZA         QA         VA         BVA        FA
  0 P     14.0377    15.0000     0.9623     4.6187     4.3680     0.2508
  1 O      8.4811     8.0000    -0.4811     2.3484     2.3141     0.0343
  2 O      8.4812     8.0000    -0.4812     2.3485     2.3141     0.0343

  Mayer bond orders larger than 0.100000
B(  0-P ,  1-O ) :   2.1840 B(  0-P ,  2-O ) :   2.1840 B(  1-O ,  2-O ) :   0.1301 


-------
TIMINGS
-------

Total SCF time: 0 days 0 hours 0 min 50 sec 

Total time                  ....      50.616 sec
Sum of individual times     ....      47.991 sec  ( 94.8%)

SCF preparation             ....       0.121 sec  (  0.2%)
Fock matrix formation       ....      46.738 sec  ( 92.3%)
  Startup                   ....       0.025 sec  (  0.1% of F)
  Coulomb formation         ....      47.637 sec  (101.9% of F)
  XC integration            ....       1.344 sec  (  2.9% of F)
    XC Preparation          ....       0.000 sec  (  0.0% of XC)
    Basis function eval.    ....       0.108 sec  (  8.1% of XC)
    Density eval.           ....       0.225 sec  ( 16.7% of XC)
    XC-Functional eval.     ....       0.043 sec  (  3.2% of XC)
    XC-Potential eval.      ....       0.722 sec  ( 53.7% of XC)
Diagonalization             ....       0.000 sec  (  0.0%)
Density matrix formation    ....       0.157 sec  (  0.3%)
Total Energy calculation    ....       0.040 sec  (  0.1%)
Population analysis         ....       0.027 sec  (  0.1%)
Orbital Transformation      ....       0.079 sec  (  0.2%)
Orbital Orthonormalization  ....       0.000 sec  (  0.0%)
DIIS solution               ....       0.588 sec  (  1.2%)
SOSCF solution              ....       0.241 sec  (  0.5%)
Finished LeanSCF after  50.7 sec

Maximum memory used throughout the entire LEANSCF-calculation: 90.3 MB


           ************************************************************
           *        Program running with 8 parallel MPI-processes     *
           *              working on a common directory               *
           ************************************************************

------------------------------------------------------------------------------
                         ORCA PROPERTY INTEGRAL CALCULATIONS
------------------------------------------------------------------------------

GBWName                                   ... /cluster/projects/nn14654k/ylvaos/basis_set_n_funcs/functionals/N12/PO2/inp/PO2_N12_pcseg4.gbw
Number of atoms                           ...      3
Number of basis functions                 ...    307
Max core memory                           ...   4096 MB

Dipole integrals                          ... YES
Quadrupole integrals                      ... YES
Linear momentum integrals                 ...  NO
Angular momentum integrals                ...  NO
Higher moments length integrals           ...  NO
Higher moments velocity integrals         ...  NO
Kinetic energy integrals                  ...  NO
GIAO right hand sides                     ...  NO
GIAO dipole derivative integrals          ...  NO
SOC integrals                             ...  NO
EPR diamagnetic integrals (GIAO)          ...  NO
EPR gauge integrals                       ...  NO
Field gradient integrals                  ...  NO (   0 nuclei)
Spin-dipole/Fermi contact integrals       ...  NO (   0 nuclei)
Contact density integrals                 ...  NO (   0 nuclei)
Nucleus-orbit integrals                   ...  NO (   0 nuclei)
Geometric perturbations                   ...  NO (   3 nuclei)

Choice of electric origin   ... Center of mass
Position of electric origin ... (  0.0000,  0.0000,  0.0084) 
Choice of magnetic origin   ... GIAO
Position of magnetic origin ... (  0.0000,  0.0000,  0.0000) 

Calculating integrals                     ... Electric Dipole (Length)     done (  0.0 sec)
Calculating integrals                     ... Electric Quadrupole (Length) done (  0.0 sec)

Property integrals calculated in   0.0 sec

Maximum memory used throughout the entire PROPINT-calculation: 25.5 MB
------------------------------------------------------------------------------
                           ORCA ORBITAL LOCALIZATION
------------------------------------------------------------------------------

Input orbitals are from                  ... /cluster/projects/nn14654k/ylvaos/basis_set_n_funcs/functionals/N12/PO2/inp/PO2_N12_pcseg4.gbw
Output orbitals are to                   ... /cluster/projects/nn14654k/ylvaos/basis_set_n_funcs/functionals/N12/PO2/inp/PO2_N12_pcseg4.loc
Max. number of iterations                ... 128
Localizations seeded randomly            ... on
Convergence tolerance                    ... 1.000e-06
Threshold for strong local MOs           ... 9.500e-01
Threshold for bond MOs                   ... 8.500e-01
Operator                                 ... 0
Orbital range for localization           ... 4 to 15
Localization criterion                   ... NEW-BOYS
Doing the dipole integrals               ... o.k.
Initial value of the localization sum :    34.546848
ITERATION   0 : L=   47.1929054054 DL=  1.26e+01 (AVERGE_DL)=    0.4377292963 
ITERATION   1 : L=   49.9201277239 DL=  2.73e+00 (AVERGE_DL)=    0.2032770284 
ITERATION   2 : L=   50.1004096499 DL=  1.80e-01 (AVERGE_DL)=    0.0522641783 
ITERATION   3 : L=   50.1635171563 DL=  6.31e-02 (AVERGE_DL)=    0.0309220688 
ITERATION   4 : L=   50.2055477523 DL=  4.20e-02 (AVERGE_DL)=    0.0252354357 
ITERATION   5 : L=   50.2390141105 DL=  3.35e-02 (AVERGE_DL)=    0.0225181268 
ITERATION   6 : L=   50.2591654295 DL=  2.02e-02 (AVERGE_DL)=    0.0174734946 
ITERATION   7 : L=   50.2681240113 DL=  8.96e-03 (AVERGE_DL)=    0.0116505832 
ITERATION   8 : L=   50.2713690866 DL=  3.25e-03 (AVERGE_DL)=    0.0070119760 
ITERATION   9 : L=   50.2724051013 DL=  1.04e-03 (AVERGE_DL)=    0.0039619682 
ITERATION  10 : L=   50.2727107004 DL=  3.06e-04 (AVERGE_DL)=    0.0021518106 
ITERATION  11 : L=   50.2727961706 DL=  8.55e-05 (AVERGE_DL)=    0.0011379820 
ITERATION  12 : L=   50.2728191688 DL=  2.30e-05 (AVERGE_DL)=    0.0005903031 
ITERATION  13 : L=   50.2728251744 DL=  6.01e-06 (AVERGE_DL)=    0.0003016535 
ITERATION  14 : L=   50.2728267053 DL=  1.53e-06 (AVERGE_DL)=    0.0001523004 
ITERATION  15 : L=   50.2728270869 DL=  3.82e-07 (AVERGE_DL)=    0.0000760392 
LOCALIZATION SUM CONVERGED


--------------------------------------------------------------------------------
                    LOCALIZED MOLECULAR ORBITAL COMPOSITIONS
--------------------------------------------------------------------------------

The Mulliken populations for each LMO on each atom are computed
The LMO`s will be ordered according to atom index and type
  (A) Strongly localized MO`s have populations of >=0.950 on one atom
  (B) Two center bond orbitals have populations of >=0.850 on two atoms
  (C) Other MO`s are considered to be `delocalized`

FOUND  -   5 strongly local MO`s
       -   7 two center bond MO`s
       -   0 significantly delocalized MO`s

Rather strongly localized orbitals:
MO   8:   2O  -   0.982022
MO   7:   1O  -   0.982024
MO   6:   0P  -   0.996886
MO   5:   0P  -   0.996888
MO   4:   0P  -   0.976939
Bond-like localized orbitals:
MO  15:   2O  -   0.875705  and   0P  -   0.125391
MO  14:   2O  -   0.705607  and   0P  -   0.295588
MO  13:   2O  -   0.705557  and   0P  -   0.295644
MO  12:   1O  -   0.705561  and   0P  -   0.295637
MO  11:   1O  -   0.875750  and   0P  -   0.125347
MO  10:   1O  -   0.705556  and   0P  -   0.295639
MO   9:   1O  -   0.033203  and   0P  -   0.933590
Localized MO's were stored in: /cluster/projects/nn14654k/ylvaos/basis_set_n_funcs/functionals/N12/PO2/inp/PO2_N12_pcseg4.loc
------------------------------------------------------------------------------
                           ORCA ORBITAL LOCALIZATION
------------------------------------------------------------------------------

Input orbitals are from                  ... /cluster/projects/nn14654k/ylvaos/basis_set_n_funcs/functionals/N12/PO2/inp/PO2_N12_pcseg4.loc
Output orbitals are to                   ... /cluster/projects/nn14654k/ylvaos/basis_set_n_funcs/functionals/N12/PO2/inp/PO2_N12_pcseg4.loc
Max. number of iterations                ... 128
Localizations seeded randomly            ... on
Convergence tolerance                    ... 1.000e-06
Threshold for strong local MOs           ... 9.500e-01
Threshold for bond MOs                   ... 8.500e-01
Operator                                 ... 1
Orbital range for localization           ... 4 to 14
Localization criterion                   ... NEW-BOYS
Doing the dipole integrals               ... o.k.
Initial value of the localization sum :    24.694321
ITERATION   0 : L=   39.1087802945 DL=  1.44e+01 (AVERGE_DL)=    0.5119385418 
ITERATION   1 : L=   42.4152830530 DL=  3.31e+00 (AVERGE_DL)=    0.2451901955 
ITERATION   2 : L=   42.9284982927 DL=  5.13e-01 (AVERGE_DL)=    0.0965980651 
ITERATION   3 : L=   43.0178220960 DL=  8.93e-02 (AVERGE_DL)=    0.0402997413 
ITERATION   4 : L=   43.0340872841 DL=  1.63e-02 (AVERGE_DL)=    0.0171968221 
ITERATION   5 : L=   43.0394405793 DL=  5.35e-03 (AVERGE_DL)=    0.0098657306 
ITERATION   6 : L=   43.0429974786 DL=  3.56e-03 (AVERGE_DL)=    0.0080418217 
ITERATION   7 : L=   43.0454732505 DL=  2.48e-03 (AVERGE_DL)=    0.0067092500 
ITERATION   8 : L=   43.0471819753 DL=  1.71e-03 (AVERGE_DL)=    0.0055738428 
ITERATION   9 : L=   43.0483463924 DL=  1.16e-03 (AVERGE_DL)=    0.0046012194 
ITERATION  10 : L=   43.0491332644 DL=  7.87e-04 (AVERGE_DL)=    0.0037824283 
ITERATION  11 : L=   43.0496621209 DL=  5.29e-04 (AVERGE_DL)=    0.0031008989 
ITERATION  12 : L=   43.0500163918 DL=  3.54e-04 (AVERGE_DL)=    0.0025379693 
ITERATION  13 : L=   43.0502532698 DL=  2.37e-04 (AVERGE_DL)=    0.0020753009 
ITERATION  14 : L=   43.0504115152 DL=  1.58e-04 (AVERGE_DL)=    0.0016962278 
ITERATION  15 : L=   43.0505172010 DL=  1.06e-04 (AVERGE_DL)=    0.0013862032 
ITERATION  16 : L=   43.0505877946 DL=  7.06e-05 (AVERGE_DL)=    0.0011329260 
ITERATION  17 : L=   43.0506349691 DL=  4.72e-05 (AVERGE_DL)=    0.0009261299 
ITERATION  18 : L=   43.0506665098 DL=  3.15e-05 (AVERGE_DL)=    0.0007572762 
ITERATION  19 : L=   43.0506876127 DL=  2.11e-05 (AVERGE_DL)=    0.0006194273 
ITERATION  20 : L=   43.0507017415 DL=  1.41e-05 (AVERGE_DL)=    0.0005068403 
ITERATION  21 : L=   43.0507112101 DL=  9.47e-06 (AVERGE_DL)=    0.0004149175 
ITERATION  22 : L=   43.0507175593 DL=  6.35e-06 (AVERGE_DL)=    0.0003397630 
ITERATION  23 : L=   43.0507218205 DL=  4.26e-06 (AVERGE_DL)=    0.0002783473 
ITERATION  24 : L=   43.0507246829 DL=  2.86e-06 (AVERGE_DL)=    0.0002281291 
ITERATION  25 : L=   43.0507266075 DL=  1.92e-06 (AVERGE_DL)=    0.0001870642 
ITERATION  26 : L=   43.0507279016 DL=  1.29e-06 (AVERGE_DL)=    0.0001533948 
ITERATION  27 : L=   43.0507287732 DL=  8.72e-07 (AVERGE_DL)=    0.0001258836 
LOCALIZATION SUM CONVERGED


--------------------------------------------------------------------------------
                    LOCALIZED MOLECULAR ORBITAL COMPOSITIONS
--------------------------------------------------------------------------------

The Mulliken populations for each LMO on each atom are computed
The LMO`s will be ordered according to atom index and type
  (A) Strongly localized MO`s have populations of >=0.950 on one atom
  (B) Two center bond orbitals have populations of >=0.850 on two atoms
  (C) Other MO`s are considered to be `delocalized`

FOUND  -   5 strongly local MO`s
       -   6 two center bond MO`s
       -   0 significantly delocalized MO`s

Rather strongly localized orbitals:
MO   8:   2O  -   0.967166
MO   7:   1O  -   0.967168
MO   6:   0P  -   0.987466
MO   5:   0P  -   1.000237
MO   4:   0P  -   0.987463
Bond-like localized orbitals:
MO  14:   2O  -   0.797895  and   0P  -   0.197784
MO  13:   2O  -   0.797914  and   0P  -   0.197757
MO  12:   2O  -   0.564000  and   0P  -   0.445694
MO  11:   1O  -   0.798130  and   0P  -   0.197516
MO  10:   1O  -   0.564043  and   0P  -   0.445648
MO   9:   1O  -   0.797631  and   0P  -   0.198077
Localized MO's were stored in: /cluster/projects/nn14654k/ylvaos/basis_set_n_funcs/functionals/N12/PO2/inp/PO2_N12_pcseg4.loc

-------------------------   --------------------
FINAL SINGLE POINT ENERGY      -491.844268106851
-------------------------   --------------------



           ************************************************************
           *        Program running with 8 parallel MPI-processes     *
           *              working on a common directory               *
           ************************************************************

------------------------------------------------------------------------------
                              ORCA PROPERTY CALCULATIONS
------------------------------------------------------------------------------

GBWName                                 ... /cluster/projects/nn14654k/ylvaos/basis_set_n_funcs/functionals/N12/PO2/inp/PO2_N12_pcseg4.gbw
Number of atoms                         ...      3
Number of basis functions               ...    307
Max core memory                         ...   4096 MB

Electric properties:
Dipole moment                           ... YES
Quadrupole moment                       ... YES
Static polarizability (Dipole/Dipole)   ...  NO
Static polarizability (Dipole/Quad.)    ...  NO
Static polarizability (Quad./Quad.)     ...  NO
Static polarizability (Velocity)        ...  NO
Static hyperpolarizability              ...  NO

Atomic electric properties:
Dipole moment                           ...  NO
Quadrupole moment                       ...  NO
Static polarizability                   ...  NO

Choice of electric origin               ... Center of mass
Position of electric origin             ...     0.000000     0.000000     0.008437

General magnetic properties:
Magnetizability                         ...  NO

EPR properties:
g-Tensor (aka g-matrix)                 ...  NO
Zero-Field splitting spin-orbit         ...  NO
Zero-field splitting spin-spin          ...  NO
Hyperfine couplings                     ...  NO (   0 nuclei)
Quadrupole couplings                    ...  NO (   0 nuclei)
Contact density                         ...  NO (   0 nuclei)

NMR properties:
Chemical shifts                         ...  NO (   0 nuclei)
Spin-rotation constants                 ...  NO (   0 nuclei)
Spin-spin couplings                     ...  NO (   0 nuclei,    0 pairs)

Choice of magnetic origin               ... GIAO
Position of magnetic origin             ...     0.000000     0.000000     0.000000

Properties with geometric perturbations:
SCF Hessian                             ...  NO
IR spectrum                             ...  NO
VCD spectrum                            ...  NO
X-ray spectroscopy properties:
SCF XES/XAS/RIXS spectra                ...  NO

SCF SOC stabilization energy            ...  NO
Diagonal Born-Oppenheimer correction    ...  NO

-------------
DIPOLE MOMENT
-------------

Method             : SCF
Type of density    : Electron Density
Multiplicity       :   2
Irrep              :   0
Energy             :  -491.8442681068509614 Eh
Basis              : AO
                                X                 Y                 Z
Electronic contribution:      0.000000002       0.000000000       0.782033093
Nuclear contribution   :      0.000000000       0.000000000      -0.261362976
                        -----------------------------------------
Total Dipole Moment    :      0.000000002       0.000000000       0.520670117
                        -----------------------------------------
Magnitude (a.u.)       :      0.520670117
Magnitude (Debye)      :      1.323438262



--------------------
Rotational spectrum 
--------------------
 
Rotational constants in cm-1:             3.442444             0.286393             0.264396 
Rotational constants in MHz :        103201.869580          8585.841533          7926.407020 

Dipole components along the rotational axes: 
x,y,z [a.u.] :     0.000000     0.520670     0.000000 
x,y,z [Debye]:     0.000000     1.323438     0.000000 

 

Dipole moment calculation done in   0.0 sec 

-----------------
QUADRUPOLE MOMENT
-----------------

Method             : SCF
Type of density    : Electron Density
Multiplicity       :   2
Irrep              :   0
Energy             :  -491.8442681068509614 Eh
Basis              : AO

                XX              YY              ZZ              XY              XZ              YZ
  NUC        0.000000000   105.106420135     8.604299986     0.000000000     0.000000000     0.000000000
  EL       -15.378186246  -126.003475785   -24.688039709    -0.000000000    -0.000000000     0.000000071
  TOT      -15.378186246   -20.897055650   -16.083739723    -0.000000000    -0.000000000     0.000000071 (a.u.)
           -20.684186435   -28.107254528   -21.633179992    -0.000000001    -0.000000000     0.000000096 (Buckingham)

diagonalized tensor:
           -20.897055650   -16.083739723   -15.378186246 (a.u.)
           -28.107254528   -21.633179992   -20.684186435 (Buckingham)
           -13.897142629     5.525080980     8.372061649 (traceless form in Buckingham)

             0.000000000    -0.000000000     1.000000000
             1.000000000    -0.000000015    -0.000000000
            -0.000000015    -1.000000000    -0.000000000
        
Isotropic quadrupole :   -17.452993873

Quadrupole moment calculation done in   0.0 sec (  0.0 sec for integrals)

Maximum memory used throughout the entire PROP-calculation: 18.8 MB

--------------------------------
SUGGESTED CITATIONS FOR THIS RUN
--------------------------------

Below you find a list of papers that are relevant to this ORCA run
We neither can nor want to force you to cite these papers, but we appreciate if you do
You receive ORCA, which is the product of decades of hard work by many enthusiastic individuals, for free
The only thing we kindly ask in return is that you cite our papers,
We deeply appreciate it, if you show your appreciation for ORCA by not just citing the generic ORCA reference.

Please note that relegating all ORCA citations to the supporting information does *not* help us.
SI sections are not indexed - citations you put there will not count into any citation statistics
But we need these citations in order to attract the funding resources that allow us to do what we are doing

Therefore, if you are a happy ORCA user, please consider citing a few of the papers listed below in the main body of your paper

In addition to the list printed below, the program has created the file /cluster/projects/nn14654k/ylvaos/basis_set_n_funcs/functionals/N12/PO2/inp/PO2_N12_pcseg4.bibtex that contains the list in bibtex format
You can import this file easily into all common literature databanks and citation aid programs

It goes without saying that in many instances, there are alternative algorithms to achieve similar
results as the ones you have gotten from ORCA. It is, of course, also the case that in some instances
ORCA just re-implements algorithms worked out by others. We are fully aware of that and we are also
fully appreciative of our colleagues work. Hence this citation list should not be read as indicating
that the listed papers, which are focused on our own work, are the only ones worth citing. It simply
meant to make it easier for users to cite ORCA specific papers. It is not a substitute for doing your
own literature research and citing the relevant literature in a scientifically appropriate manner.

List of essential papers. We consider these as the minimum necessary citations

  1. Neese, F.
     Software update: the ORCA program system, version 6.0
     WIRES Comput. Molec. Sci. 2025 15(1), e70019
     doi.org/10.1002/wcms.70019

List of papers to cite with high priority. The work reported in these papers was absolutely
necessary for this run to complete.
Our perspective: the developers of density functionals and basis sets usually get cited in chemistry papers
Good! But without the algorithms to do something with them, the functionals or basis sets would not do anything.
Hence, in our opinion, the algorithm design and method developments papers are equally worthy of getting cited

  1. Lehtola, S.; Steigemann, C.; Oliveira, M.; Marques, M.
     Recent developments in Libxc - A comprehensive library of functionals for density functional theory
     Software X 2018 7 , 
     doi.org/10.1016/j.softx.2017.11.002
  2. Neese, F.
     The SHARK Integral Generation and Digestion System
     J. Comp. Chem. 2022 44(3), 381
     doi.org/10.1002/jcc.26942

List of suggested additional citations. These are papers that are important in the 'surrounding' of 
of this run, or papers that preceded the highly important papers. If you like your results we are grateful for a citation.

  1. Neese, F.
     The ORCA program system
     WIRES Comput. Molec. Sci. 2012 2(1), 73-78
     doi.org/10.1002/wcms.81
  2. Neese, F.
     Software update: the ORCA program system, version 4.0
     WIRES Comput. Molec. Sci. 2018 8(1), 1-6
     doi.org/10.1002/wcms.1327
  3. Neese, F.; Wennmohs, F.; Becker, U.; Riplinger, C.
     The ORCA quantum chemistry program package
     J. Chem. Phys. 2020 152(22), 224108
     doi.org/10.1063/5.0004608
  4. Neese, F.
     Software update: The ORCA program system—Version 5.0
     WIRES Comput. Molec. Sci. 2022 12(1), e1606
     doi.org/10.1002/wcms.1606

List of optional additional citations

  1. Neese, F.
     Approximate second-order SCF convergence for spin unrestricted wavefunctions
     Chem. Phys. Lett. 2000 325(1-3), 93-98
     doi.org/10.1016/s0009-2614(00)00662-x

Timings for individual modules:

Sum of individual times          ...       52.590 sec (=   0.877 min)
Startup calculation              ...        0.757 sec (=   0.013 min)   1.4 %
SCF iterations                   ...       51.292 sec (=   0.855 min)  97.5 %
Property integrals               ...        0.268 sec (=   0.004 min)   0.5 %
Property calculations            ...        0.253 sec (=   0.004 min)   0.5 %
Orbital localization             ...        0.021 sec (=   0.000 min)   0.0 %
                             ****ORCA TERMINATED NORMALLY****
TOTAL RUN TIME: 0 days 0 hours 0 minutes 53 seconds 234 msec
