
                                 *****************
                                 * O   R   C   A *
                                 *****************

                                            #,                                       
                                            ###                                      
                                            ####                                     
                                            #####                                    
                                            ######                                   
                                           ########,                                 
                                     ,,################,,,,,                         
                               ,,#################################,,                 
                          ,,##########################################,,             
                       ,#########################################, ''#####,          
                    ,#############################################,,   '####,        
                  ,##################################################,,,,####,       
                ,###########''''           ''''###############################       
              ,#####''   ,,,,##########,,,,          '''####'''          '####       
            ,##' ,,,,###########################,,,                        '##       
           ' ,,###''''                  '''############,,,                           
         ,,##''                                '''############,,,,        ,,,,,,###''
      ,#''                                            '''#######################'''  
     '                                                          ''''####''''         
             ,#######,   #######,   ,#######,      ##                                
            ,#'     '#,  ##    ##  ,#'     '#,    #''#        ,####,    ,#,          
            ##       ##  ##   ,#'  ##            #'  '#       #'       ,# #          
            ##       ##  #######   ##           ,######,      #####,      #          
            '#,     ,#'  ##    ##  '#,     ,#' ,#      #,     #,   #      #          
             '#######'   ##     ##  '#######'  #'      '#     '####' #    #          



                #########################################################
                #                        -***-                          #
                #          Department of theory and spectroscopy        #
                #                                                       #
                #                      Frank Neese                      #
                #                                                       #
                #     Directorship, Architecture, Infrastructure        #
                #                    SHARK, DRIVERS                     #
                #        Core code/Algorithms in most modules           #
                #                                                       #
                #        Max Planck Institute fuer Kohlenforschung      #
                #                Kaiser Wilhelm Platz 1                 #
                #                 D-45470 Muelheim/Ruhr                 #
                #                      Germany                          #
                #                                                       #
                #                  All rights reserved                  #
                #                        -***-                          #
                #########################################################


                         Program Version 6.1.1  -  RELEASE   -
                                (GIT: $487d211c$)
                          ($2025-11-21 10:33:24 +0100$)


 With contributions from (in alphabetic order):
[Max-Planck-Institut fuer Kohlenforschung]                               
  Daniel Aravena         : Magnetic Suceptibility                        
  Michael Atanasov       : Ab Initio Ligand Field Theory (pilot matlab implementation)
  Alexander A. Auer      : GIAO ZORA, VPT2 properties, NMR spectrum      
  Ute Becker             : All parallelization in ORCA, NUMFREQ, NUMCALC 
  Giovanni Bistoni       : ED, misc. LED, open-shell LED, HFLD           
  Dmytro Bykov           : pre 5.0 version of the SCF Hessian            
  Marcos Casanova-Páez   : Triplet and SCS-CIS(D). UHF-(DLPNO)-IP/EA/STEOM-CCSD. UHF-CVS-IP/STEOM-CCSD   
  Vijay G. Chilkuri      : MRCI spin determinant printing, contributions to CSF-ICE 
  Pauline Colinet        : FMM embedding                                 
  Dipayan Datta          : RHF DLPNO-CCSD density                        
  Achintya Kumar Dutta   : EOM-CC, STEOM-CC                              
  Nicolas Foglia         : Exact transition moments, OPA infrastructure, MCD improvements    
  Dmitry Ganyushin       : Spin-Orbit,Spin-Spin,Magnetic field MRCI      
  Miquel Garcia-Rates    : C-PCM and meta-GGA Hessian, CCSD/C-PCM, Gaussian charge scheme 
  Tiago L. C. Gouveia    : GS-ROHF, GS-ROCIS                             
  Yang Guo               : DLPNO-NEVPT2, F12-NEVPT2, CIM, IAO-localization        
  Andreas Hansen         : Spin unrestricted coupled pair/coupled cluster methods 
  Ingolf Harden          : AUTO-CI MPn and infrastructure                
  Benjamin Helmich-Paris : MC-RPA, TRAH-(SCF,CASSCF), AVAS, COSX integrals, SCF dyn. polar., MC-PDFT, srDFT 
  Lee Huntington         : MR-EOM, pCC                                   
  Robert Izsak           : Overlap fitted RIJCOSX, COSX-SCS-MP3, EOM     
  Riya Kayal             : Wick's Theorem for AUTO-CI, AUTO-CI UHF-CCSDT 
  Emily Kempfer          : AUTO-CI RHF CISDT and CCSDT, approximate NEVPT4
  Christian Kollmar      : KDIIS, OOCD, Brueckner-CCSD(T), CCSD density, CASPT2, CASPT2-K, improved NEVPT2 
  Axel Koslowski         : Symmetry handling                             
  Simone Kossmann        : meta-GGA functionals, TD-DFT gradient, OOMP2, (MP2 Hessian; deprecated post 5.0) 
  Lucas Lang             : DCDCAS, Hyperfine gauge corrections, ICE-SOC+SSC
  Marvin Lechner         : AUTO-CI (C++ implementation), FIC-MRCC        
  Spencer Leger          : CASSCF response                               
  Dagmar Lenk            : GEPOL surface, SMD, ORCA-2-JSON               
  Dimitrios Liakos       : Extrapolation schemes; Compound Job, Property file
  Dimitrios Manganas     : Further ROCIS development; embedding schemes. LFT, Crystal Embedding 
  Dimitrios Pantazis     : SARC Basis sets                               
  Anastasios Papadopoulos: AUTO-CI, single reference methods and gradients 
  Taras Petrenko         : pre 6.0 DFT Hessian and TD-DFT gradient,  ECA, NRVS 
  Petra Pikulova         : Analytic Raman intensities                    
  Peter Pinski           : DLPNO-MP2, DLPNO-MP2 Gradient                 
  Shashank Vittal Rao    : ES-AILFT, MagRelax                            
  Christoph Reimann      : Effective Core Potentials                     
  Marius Retegan         : Local ZFS, SOC                                
  Christoph Riplinger    : Optimizer, TS searches, QM/MM, DLPNO-CCSD(T), (RO)-DLPNO pert. Triples 
  Michael Roemelt        : Original ROCIS implementation, recursive CI coupling coefficients
  Masaaki Saitow         : Open-shell DLPNO-CCSD energy and density      
  Barbara Sandhoefer     : DKH picture change effects                    
  Yorick L. A. Schmerwitz: GMF and freeze-and-release deltaSCF, NEB S-IDPP initial path                    
  Kantharuban Sivalingam : CASSCF convergence/infrastructure, NEVPT2, NEVPT3, NEVPT4(SD), FIC-MRCI and CEPA variants
  Bernardo de Souza      : ESD, SOC TD-DFT                               
  Georgi L. Stoychev     : AutoAux, RI-MP2 NMR, DLPNO-MP2 response, X2C  
  Van Anh Tran           : RI-MP2 g-tensors                              
  Willem Van den Heuvel  : Paramagnetic NMR                              
  Zikuan Wang            : NOTCH, Electric field optimization            
  Frank Wennmohs         : Technical directorship and infrastructure     
  Hang Xu                : AUTO-CI-Response properties                   
                                                                         
[FACCTs GmbH]                                                            
  Markus Bursch, Nicolas Foglia, Miquel Garcia-Rates, Ingolf Harden, Hagen Neugebauer, Anastasios Papadopoulos, 
  Christoph Riplinger, Bernardo de Souza, Georgi L. Stoychev                                                    
                                                                 
  APM, various basis sets, CI-OPT, improved COSX, DLPNO-Multilevel,           
  DOCKER, DRACO, updates on ESD, Fragmentator, GOAT, IRC, LR-CPCM, L-BFGS, MBIS, meta-GGA TD-DFT gradient, ML-optimized integration grids, 
  MM, NACMEs, nearIR, NEB, NEB-TS, NL-DFT gradient (VV10), 2- and 3-layer-ONIOM, interface openCOSMO-RS, QMMM,   
  Crystal-QMMM, RESP, rigid body optimization, SF, symmetry and pop. for TD-DFT, various functionals, SOLVATOR                                   
                                                                         
[Other institutions]                                                     
  V. Asgeirsson          : NEB                                           
  Christoph Bannwarth    : sTDA-DFT, sTD-DFT, PBEh-3c, B97-3c, D3        
  Giovanni Bistoni       : ETS/NOCV, ADLD/ADEX, COVALED                  
  Martin Brehm           : Molecular dynamics                            
  Ronald Cardenas        : ETS/NOCV                                      
  Martina Colucci        : COVALED                                       
  Sebastian Ehlert       : rSCAN, r2SCAN, r2SCAN-3c, D4, dhf basis sets  
  Marvin Friede          : D4 for Fr, Ra, Ac-Lr                          
  Lars Goerigk           : TD-DFT with DH, B97 family of functionals     
  Stefan Grimme          : VdW corrections, initial TS optimization, DFT functionals, gCP, sTDA/sTD-DF 
  Waldemar Hujo          : DFT-NL                                        
  H. Jonsson             : NEB                                           
  Holger Kruse           : gCP                                           
  Marcel Mueller         : wB97X-3c, vDZP basis set                      
  Hagen Neugebauer       : wr2SCAN, Native XTB                           
  Gianluca Regni         : ADLD/ADEX                                     
  Tobias Risthaus        : pre 6.0 range-separated hybrid DFT and stability analysis
  Lukas Wittmann         : regularized MP2, r2SCAN double-hybrids, wr2SCAN        
                                                                         
We gratefully acknowledge several colleagues who have allowed us to      
interface, adapt or use parts of their codes:                            
  Ed Valeev, F. Pavosevic, A. Kumar             : LibInt (2-el integral package), F12 methods 
  Garnet Chan, S. Sharma, J. Yang, R. Olivares  : DMRG                   
  Ulf Ekstrom                                   : XCFun DFT Library      
  Mihaly Kallay                                 : mrcc  (arbitrary order and MRCC methods)
  Frank Weinhold                                : gennbo (NPA and NBO analysis)           
  Simon Mueller                                 : openCOSMO-RS                            
  Christopher J. Cramer and Donald G. Truhlar   : smd solvation model                     
  S Lehtola, MJT Oliveira, MAL Marques          : LibXC Library                           
  Liviu Ungur et al                             : ANISO software                          


 Your calculation uses the libint2 library for the computation of 2-el integrals
 For citations please refer to: http://libint.valeyev.net

 Your ORCA version has been built with support for libXC version: 7.0.0
 For citations please refer to: https://libxc.gitlab.io

 This ORCA versions uses:
   CBLAS   interface :  Fast vector & matrix operations
   LAPACKE interface :  Fast linear algebra routines
   SCALAPACK package :  Parallel linear algebra routines
   Shared memory     :  Shared parallel matrices
   BLAS/LAPACK       :  OpenBLAS 0.3.29  USE64BITINT DYNAMIC_ARCH NO_AFFINITY Cooperlake SINGLE_THREADED
        Core in use  :  Cooperlake
   Copyright (c) 2011-2014, The OpenBLAS Project


  ***********************************
  * Starting time: Wed May 20 12:33:02 2026
  * Host name:     c1-14
  * Process ID:    961155
  * Working dir.:  /cluster/projects/nn14654k/ylvaos/basis_set_n_funcs/functionals/gga_x_pbe/CH3COOH/out
  ***********************************

Using LibXC functional ID 101 : Perdew, Burke & Ernzerhof
[ 1]  J. P. Perdew, K. Burke, and M. Ernzerhof.,  Phys. Rev. Lett. 77, 3865 (1996)
[ 2]  J. P. Perdew, K. Burke, and M. Ernzerhof.,  Phys. Rev. Lett. 78, 1396 (1997)
Using LibXC functional ID 101 : Perdew, Burke & Ernzerhof
[ 1]  J. P. Perdew, K. Burke, and M. Ernzerhof.,  Phys. Rev. Lett. 77, 3865 (1996)
[ 2]  J. P. Perdew, K. Burke, and M. Ernzerhof.,  Phys. Rev. Lett. 78, 1396 (1997)
Your calculation utilizes LibXC
by S. Lehtola, C. Steigemann, M. J. T. Oliveira & M. A. L. Marques
Please cite in your paper:
Lehtola, S.; Steigemann, C.; Oliveira, M.J.T.; Marques, M. A. L. Software X, 7, (2018), 1.
   

================================================================================

----- Orbital basis set information -----
Your calculation utilizes the basis: def2-QZVP
   F. Weigend and R. Ahlrichs, Phys. Chem. Chem. Phys. 7, 3297 (2005).

================================================================================
                                        WARNINGS
                       Please study these warnings very carefully!
================================================================================


================================================================================
                                       INPUT FILE
================================================================================
NAME = /cluster/projects/nn14654k/ylvaos/basis_set_n_funcs/functionals/gga_x_pbe/CH3COOH/inp/CH3COOH_gga_x_pbe_def2qzvp.inp
|  1> ! dft def2-QZVP TightSCF
|  2> %pal nprocs 8 end
|  3> 
|  4> %loc
|  5>   LocMet NewBoys
|  6>   Occ true
|  7> end
|  8> 
|  9> %method
| 10>   exchange gga_x_pbe
| 11>   correlation None
| 12> end
| 13> 
| 14> %elprop
| 15>   Dipole true
| 16>   Quadrupole true
| 17> end
| 18> 
| 19> * xyz 0 1
| 20> C    0.000000000000   0.154560000000   0.000000000000
| 21> C    1.073776000000  -0.892748000000   0.000000000000
| 22> O    0.166384000000   1.360084000000   0.000000000000
| 23> O   -1.236449000000  -0.415036000000   0.000000000000
| 24> H   -1.867646000000   0.333582000000   0.000000000000
| 25> H    2.048189000000  -0.408135000000   0.000000000000
| 26> H    0.968661000000  -1.528353000000   0.881747000000
| 27> H    0.968661000000  -1.528353000000  -0.881747000000
| 28> *
| 29> 
| 30> 
| 31>                          ****END OF INPUT****
================================================================================

                       ****************************
                       * Single Point Calculation *
                       ****************************

---------------------------------
CARTESIAN COORDINATES (ANGSTROEM)
---------------------------------
  C      0.000000    0.154560    0.000000
  C      1.073776   -0.892748    0.000000
  O      0.166384    1.360084    0.000000
  O     -1.236449   -0.415036    0.000000
  H     -1.867646    0.333582    0.000000
  H      2.048189   -0.408135    0.000000
  H      0.968661   -1.528353    0.881747
  H      0.968661   -1.528353   -0.881747

----------------------------
CARTESIAN COORDINATES (A.U.)
----------------------------
  NO LB      ZA    FRAG     MASS         X           Y           Z
   0 C     6.0000    0    12.011    0.000000    0.292076    0.000000
   1 C     6.0000    0    12.011    2.029143   -1.687049    0.000000
   2 O     8.0000    0    15.999    0.314420    2.570186    0.000000
   3 O     8.0000    0    15.999   -2.336550   -0.784304    0.000000
   4 H     1.0000    0     1.008   -3.529339    0.630379    0.000000
   5 H     1.0000    0     1.008    3.870516   -0.771263    0.000000
   6 H     1.0000    0     1.008    1.830504   -2.888169    1.666260
   7 H     1.0000    0     1.008    1.830504   -2.888169   -1.666260

--------------------------------
INTERNAL COORDINATES (ANGSTROEM)
--------------------------------
 C      0   0   0     0.000000000000     0.00000000     0.00000000
 C      1   0   0     1.499949647502     0.00000000     0.00000000
 O      1   2   0     1.216951827326   126.42686784     0.00000000
 O      1   2   3     1.361339683113   110.98078396   180.00000000
 H      4   1   2     0.979203024267   105.40175469   180.00000085
 H      2   1   3     1.088269476893   109.27200725     0.00000000
 H      2   1   3     1.092025938913   109.72406365   120.93315147
 H      2   1   3     1.092025938913   109.72406365   239.06684853

---------------------------
INTERNAL COORDINATES (A.U.)
---------------------------
 C      0   0   0     0.000000000000     0.00000000     0.00000000
 C      1   0   0     2.834494048450     0.00000000     0.00000000
 O      1   2   0     2.299705671821   126.42686784     0.00000000
 O      1   2   3     2.572559176322   110.98078396   180.00000000
 H      4   1   2     1.850425545371   105.40175469   180.00000085
 H      2   1   3     2.056531271234   109.27200725     0.00000000
 H      2   1   3     2.063629955684   109.72406365   120.93315147
 H      2   1   3     2.063629955684   109.72406365   239.06684853

---------------------
BASIS SET INFORMATION
---------------------
There are 3 groups of distinct atoms

 Group   1 Type C   : 15s8p3d2f1g contracted to 7s4p3d2f1g pattern {8211111/5111/111/11/1}
 Group   2 Type O   : 15s8p3d2f1g contracted to 7s4p3d2f1g pattern {8211111/5111/111/11/1}
 Group   3 Type H   : 7s3p2d1f contracted to 4s3p2d1f pattern {4111/111/11/1}

Atom   0C    basis set group =>   1
Atom   1C    basis set group =>   1
Atom   2O    basis set group =>   2
Atom   3O    basis set group =>   2
Atom   4H    basis set group =>   3
Atom   5H    basis set group =>   3
Atom   6H    basis set group =>   3
Atom   7H    basis set group =>   3


           ************************************************************
           *        Program running with 8 parallel MPI-processes     *
           *              working on a common directory               *
           ************************************************************
------------------------------------------------------------------------------
                             ORCA STARTUP CALCULATIONS
------------------------------------------------------------------------------
------------------------------------------------------------------------------
                   ___                                                        
                  /   \      - P O W E R E D   B Y -                         
                 /     \                                                     
                 |  |  |   _    _      __       _____    __    __             
                 |  |  |  | |  | |    /  \     |  _  \  |  |  /  |          
                  \  \/   | |  | |   /    \    | | | |  |  | /  /          
                 / \  \   | |__| |  /  /\  \   | |_| |  |  |/  /          
                |  |  |   |  __  | /  /__\  \  |    /   |      \           
                |  |  |   | |  | | |   __   |  |    \   |  |\   \          
                \     /   | |  | | |  |  |  |  | |\  \  |  | \   \       
                 \___/    |_|  |_| |__|  |__|  |_| \__\ |__|  \__/        
                                                                              
                      - O R C A' S   B I G   F R I E N D -                    
                                      &                                       
                       - I N T E G R A L  F E E D E R -                       
                                                                              
 v1 FN, 2020, v2 2021, v3 2022-2024                                           
------------------------------------------------------------------------------


----------------------
SHARK INTEGRAL PACKAGE
----------------------

Number of atoms                             ...      8
Number of basis functions                   ...    348
Number of shells                            ...    108
Maximum angular momentum                    ...      4
Integral batch strategy                     ... SHARK/LIBINT Hybrid
RI-J (if used) integral strategy            ... SPLIT-RIJ (Revised 2003 algorithm where possible)
Printlevel                                  ...      1
Contraction scheme used                     ... SEGMENTED contraction
Prescreening option                         ... SCHWARTZ
   Thresh                                   ... 2.500e-11
   Tcut                                     ... 2.500e-12
   Tpresel                                  ... 2.500e-12 
Coulomb Range Separation                    ... NOT USED
Exchange Range Separation                   ... NOT USED
Multipole approximations                    ... NOT USED
Finite Nucleus Model                        ... NOT USED
CABS basis                                  ... NOT available
Auxiliary Coulomb fitting basis             ... NOT available
Auxiliary J/K fitting basis                 ... NOT available
Auxiliary Correlation fitting basis         ... NOT available
Auxiliary 'external' fitting basis          ... NOT available

Checking pre-screening integrals            ... done (  0.0 sec) Dimension = 108
   => SHARK Basis and OBASIS are compatible. Storing Pre-screening
Shell pair information
Shell pair cut-off parameter TPreSel        ...   2.5e-12
Total number of shell pairs                 ...      5886
Shell pairs after pre-screening             ...      5532
Total number of primitive shell pairs       ...     14376
Primitive shell pairs kept                  ...     11125
          la=0 lb=0:    878 shell pairs
          la=1 lb=0:   1160 shell pairs
          la=1 lb=1:    398 shell pairs
          la=2 lb=0:    815 shell pairs
          la=2 lb=1:    542 shell pairs
          la=2 lb=2:    202 shell pairs
          la=3 lb=0:    486 shell pairs
          la=3 lb=1:    327 shell pairs
          la=3 lb=2:    228 shell pairs
          la=3 lb=3:     77 shell pairs
          la=4 lb=0:    173 shell pairs
          la=4 lb=1:    109 shell pairs
          la=4 lb=2:     79 shell pairs
          la=4 lb=3:     48 shell pairs
          la=4 lb=4:     10 shell pairs

Checking whether 4 symmetric matrices of dimension 348 fit in memory
:Max Core in MB      =   4096.00
 MB in use           =     10.31
 MB left             =   4085.69
 MB needed           =      1.85
 Data fit in memory  = YES
Calculating Nuclear repulsion               ... done (  0.0 sec) ENN=    120.693288504615 Eh

Diagonalization of the overlap matrix:
Smallest eigenvalue                        ... 8.147e-05
Time for diagonalization                   ...    0.008 sec
Threshold for overlap eigenvalues          ... 1.000e-07
Number of eigenvalues below threshold      ... 0
Time for construction of square roots      ...    0.005 sec
Total time needed                          ...    0.014 sec

-------------------
DFT GRID GENERATION
-------------------

General Integration Accuracy     IntAcc      ... 4.388
Radial Grid Type                 RadialGrid  ... OptM3 with GC (2021)
Angular Grid (max. ang.)         AngularGrid ... 4 (Lebedev-302)
Angular grid pruning method      GridPruning ... 4 (adaptive)
Weight generation scheme         WeightScheme... mBecke (2022)
Basis function cutoff            BFCut       ... 1.0000e-11
Integration weight cutoff        WCut        ... 1.0000e-14
Partially contracted basis set               ... off
Rotationally invariant grid construction     ... off
Angular grids for H and He will be reduced by one unit
Diffuse basis detected: some atoms will have their outermost
                        angular grid increased by 1.

Total number of grid points                  ...    38610
Total number of batches                      ...      606
Average number of points per batch           ...       63
Average number of grid points per atom       ...     4826
Grids setup in   0.1 sec
Initializing property integral containers    ... done (  0.0 sec)

SHARK setup successfully completed in   0.3 seconds

Maximum memory used throughout the entire STARTUP-calculation: 26.1 MB


           ************************************************************
           *        Program running with 8 parallel MPI-processes     *
           *              working on a common directory               *
           ************************************************************
-------------------------------------------------------------------------------
                                 ORCA GUESS
                   Start orbitals & Density for SCF / CASSCF
-------------------------------------------------------------------------------

------------
SCF SETTINGS
------------
Hamiltonian:
 Density Functional     Method          .... DFT(GTOs)
  Functional kind                       .... Exchange
  Functional name                       .... Perdew, Burke & Ernzerhof
  Functional family                     .... GGA
  Functional refs                              
    [ 0] J. P. Perdew, K. Burke, and M. Ernzerhof.,  Phys. Rev. Lett. 77, 3865 (1996), doi: 10.1103/PhysRevLett.77.3865
    [ 1] J. P. Perdew, K. Burke, and M. Ernzerhof.,  Phys. Rev. Lett. 78, 1396 (1997), doi: 10.1103/PhysRevLett.78.1396
  Functional external parameters        .... 2
    Parameter  0 _kappa     =  8.040000e-01 : Asymptotic value of the enhancement function
    Parameter  1 _mu        =  2.195150e-01 : Coefficient of the 2nd order expansion
 Correlation Functional Correlation     .... No Correlation
 Gradients option       PostSCFGGA      .... off


General Settings:
 Integral files         IntName         .... /cluster/projects/nn14654k/ylvaos/basis_set_n_funcs/functionals/gga_x_pbe/CH3COOH/inp/CH3COOH_gga_x_pbe_def2qzvp
 Hartree-Fock type      HFTyp           .... RHF
 Total Charge           Charge          ....    0
 Multiplicity           Mult            ....    1
 Number of Electrons    NEL             ....   32
 Basis Dimension        Dim             ....  348
 Nuclear Repulsion      ENuc            ....    120.6932885046 Eh

Convergence Acceleration:
 AO-DIIS                CNVDIIS         .... on
   Start iteration      DIISMaxIt       ....    12
   Startup error        DIISStart       ....  0.200000
   # of expansion vecs  DIISMaxEq       ....     5
   Bias factor          DIISBfac        ....   1.050
   Max. coefficient     DIISMaxC        ....  10.000
 MO-DIIS                CNVKDIIS        .... off
 Trust-Rad. Augm. Hess. CNVTRAH         .... auto
   Auto Start mean grad. ratio tolernc. ....  1.125000
   Auto Start start iteration           ....    50
   Auto Start num. interpolation iter.  ....    10
   Max. Number of Micro iterations      ....    24
   Max. Number of Macro iterations      .... Maxiter - #DIIS iter
   Number of Davidson start vectors     ....     2
   Converg. threshold    (grad. norm)   ....   1.000e-05
   Grad. Scal. Fac. for Micro threshold ....   0.100
   Minimum threshold for Micro iter.    ....   1.000e-02
   NR start threshold (gradient norm)   ....   1.000e-04
   Initial trust radius                 ....   0.400
   Minimum AH scaling param. (alpha)    ....   1.000
   Maximum AH scaling param. (alpha)    .... 1000.000
   Quad. conv. algorithm                .... NR
   White noise on init. David. guess    .... on
   Maximum white noise                  ....   0.010
   Pseudo random numbers                .... off
   Inactive MOs                         .... canonical
   Orbital update algorithm             .... Taylor
   Preconditioner                       .... Diag
   Full preconditioner red. dimension   ....   250
 SOSCF                 CNVSOSCF           .... on
   Start iteration     SOSCFMaxIt         ....   150
   Startup grad/error  SOSCFStart         ....  0.003300
   Hessian update      SOSCFHessUp        .... L-BFGS
   Autom. constraints  SOSCFAutoConstrain .... off
 Level Shifting         CNVShift        .... on
   Level shift para.    LevelShift      ....    0.2500
   Turn off err/grad.   ShiftErr        ....    0.0010
 Zerner damping         CNVZerner       .... off
 Static damping         CNVDamp         .... on
   Fraction old density DampFac         ....    0.7000
   Max. Damping (<1)    DampMax         ....    0.9800
   Min. Damping (>=0)   DampMin         ....    0.0000
   Turn off err/grad.   DampErr         ....    0.1000

SCF Procedure:
 Maximum # iterations   MaxIter         ....   125
 SCF integral mode      SCFMode         .... Direct
   Integral package                     .... SHARK and LIBINT hybrid scheme
 Reset frequency        DirectResetFreq ....    20
 Integral Threshold     Thresh          ....  2.500e-11 Eh
 Primitive CutOff       TCut            ....  2.500e-12 Eh

Convergence Tolerance:
 Convergence Check Mode ConvCheckMode   .... Total+1el-Energy
 Convergence forced     ConvForced      .... 0
 Energy Change          TolE            ....  1.000e-08 Eh
 1-El. energy change                    ....  1.000e-05 Eh
 Orbital Gradient       TolG            ....  1.000e-05
 Orbital Rotation angle TolX            ....  1.000e-05
 DIIS Error             TolErr          ....  5.000e-07

------------------------------
INITIAL GUESS: MODEL POTENTIAL
------------------------------
Loading Hartree-Fock densities                     ... done
Calculating cut-offs                               ... done
Initializing the effective Hamiltonian             ... done
Setting up the integral package (SHARK)            ... done
Starting the Coulomb interaction                   ... done (   0.0 sec)
Making the grid                                    ... done (   0.0 sec)
Mapping shells                                     ... done
Starting the XC term evaluation                    ... done (   0.0 sec)
  promolecular density results
     # of electrons  =     31.997023257
     EX              =    -27.693400625
     EC              =      0.000000000
     EX+EC           =    -27.693400625
Transforming the Hamiltonian                       ... done (   0.0 sec)
Diagonalizing the Hamiltonian                      ... done (   0.0 sec)
Back transforming the eigenvectors                 ... done (   0.0 sec)
Now organizing SCF variables                       ... done
                      ------------------
                      INITIAL GUESS DONE (   0.1 sec)
                      ------------------
             **** ENERGY FILE WAS UPDATED (/cluster/projects/nn14654k/ylvaos/basis_set_n_funcs/functionals/gga_x_pbe/CH3COOH/inp/CH3COOH_gga_x_pbe_def2qzvp.en.tmp) ****
Finished Guess after   0.2 sec
Maximum memory used throughout the entire GUESS-calculation: 19.9 MB


           ************************************************************
           *        Program running with 8 parallel MPI-processes     *
           *              working on a common directory               *
           ************************************************************

-------------------------------------------------------------------------------------------
                                      ORCA LEAN-SCF
                              memory conserving SCF solver
-------------------------------------------------------------------------------------------

----------------------------------------D-I-I-S--------------------------------------------
Iteration    Energy (Eh)           Delta-E    RMSDP     MaxDP     DIISErr   Damp  Time(sec)
-------------------------------------------------------------------------------------------
               ***  Starting incremental Fock matrix formation  ***
    1    -227.7066530545318415     0.00e+00  2.95e-03  5.59e-02  2.98e-01  0.700   3.4
    2    -227.8008175489214864    -9.42e-02  2.11e-03  5.10e-02  8.79e-02  0.700   2.8
                               ***Turning on AO-DIIS***
    3    -227.8245304692503623    -2.37e-02  8.10e-04  1.65e-02  3.11e-02  0.700   2.7
    4    -227.8422441478707583    -1.77e-02  1.02e-03  1.91e-02  2.35e-02  0.000   2.7
    5    -227.8850818970110481    -4.28e-02  5.73e-04  1.61e-02  1.42e-02  0.000   2.7
    6    -227.8856709463616994    -5.89e-04  2.37e-04  6.09e-03  4.27e-03  0.000   2.6
                              *** Initializing SOSCF ***
---------------------------------------S-O-S-C-F--------------------------------------
Iteration    Energy (Eh)           Delta-E    RMSDP     MaxDP     MaxGrad    Time(sec)
--------------------------------------------------------------------------------------
    7    -227.8857176179240582    -4.67e-05  1.11e-04  2.86e-03  2.15e-03     2.5
               *** Restarting incremental Fock matrix formation ***
    8    -227.8857287474643272    -1.11e-05  7.37e-05  1.21e-03  1.97e-04     2.9
    9    -227.8857264126772293     2.33e-06  3.73e-05  8.98e-04  7.20e-04     2.4
   10    -227.8857299409680195    -3.53e-06  3.52e-05  8.50e-04  1.45e-04     2.2
   11    -227.8857297692289308     1.72e-07  6.38e-06  9.95e-05  1.63e-04     2.3
   12    -227.8857301250944829    -3.56e-07  1.34e-05  3.26e-04  3.28e-05     2.1
   13    -227.8857301221672174     2.93e-09  5.17e-06  1.30e-04  2.40e-05     2.4
                 **** Energy Check signals convergence ****

               *****************************************************
               *                     SUCCESS                       *
               *           SCF CONVERGED AFTER  13 CYCLES          *
               *****************************************************

             **** ENERGY FILE WAS UPDATED (/cluster/projects/nn14654k/ylvaos/basis_set_n_funcs/functionals/gga_x_pbe/CH3COOH/inp/CH3COOH_gga_x_pbe_def2qzvp.en.tmp) ****

----------------
TOTAL SCF ENERGY
----------------

Total Energy       :       -227.88573014596795 Eh           -6201.08597 eV

Components:
Nuclear Repulsion  :        120.69328850461517 Eh            3284.23135 eV
Electronic Energy  :       -348.57901865058307 Eh           -9485.31732 eV
One Electron Energy:       -550.81083506597577 Eh          -14988.32481 eV
Two Electron Energy:        202.23181641539267 Eh            5503.00749 eV

Virial components:
Potential Energy   :       -455.98751108977456 Eh          -12408.05099 eV
Kinetic Energy     :        228.10178094380660 Eh            6206.96502 eV
Virial Ratio       :          1.99905283160463

DFT components:
N(Alpha)           :       15.999985394345 electrons
N(Beta)            :       15.999985394345 electrons
N(Total)           :       31.999970788689 electrons
E(X)               :      -28.154030122442 Eh       
E(C)               :        0.000000000000 Eh       
E(XC)              :      -28.154030122442 Eh       

---------------
SCF CONVERGENCE
---------------

  Last Energy change         ...   -2.9273e-09  Tolerance :   1.0000e-08
  Last MAX-Density change    ...    1.3016e-04  Tolerance :   1.0000e-07
  Last RMS-Density change    ...    5.1670e-06  Tolerance :   5.0000e-09
  Last DIIS Error            ...    2.1549e-03  Tolerance :   5.0000e-07
  Last Orbital Gradient      ...    2.3952e-05  Tolerance :   1.0000e-05
  Last Orbital Rotation      ...    5.5586e-05  Tolerance :   1.0000e-05


----------------
ORBITAL ENERGIES
----------------

  NO   OCC          E(Eh)            E(eV) 
   0   2.0000     -18.784746      -511.1589 
   1   2.0000     -18.727062      -509.5893 
   2   2.0000     -10.000270      -272.1212 
   3   2.0000      -9.886082      -269.0140 
   4   2.0000      -0.980249       -26.6739 
   5   2.0000      -0.894371       -24.3371 
   6   2.0000      -0.659226       -17.9384 
   7   2.0000      -0.521367       -14.1871 
   8   2.0000      -0.407464       -11.0877 
   9   2.0000      -0.393060       -10.6957 
  10   2.0000      -0.392369       -10.6769 
  11   2.0000      -0.338853        -9.2207 
  12   2.0000      -0.319985        -8.7072 
  13   2.0000      -0.319173        -8.6851 
  14   2.0000      -0.252950        -6.8831 
  15   2.0000      -0.205751        -5.5988 
  16   0.0000      -0.010080        -0.2743 
  17   0.0000       0.002072         0.0564 
  18   0.0000       0.028948         0.7877 
  19   0.0000       0.072625         1.9762 
  20   0.0000       0.075452         2.0532 
  21   0.0000       0.084449         2.2980 
  22   0.0000       0.120972         3.2918 
  23   0.0000       0.126924         3.4538 
  24   0.0000       0.143549         3.9062 
  25   0.0000       0.146559         3.9881 
  26   0.0000       0.165185         4.4949 
*Only the first 10 virtual orbitals were printed.

                    ********************************
                    * MULLIKEN POPULATION ANALYSIS *
                    ********************************

-----------------------
MULLIKEN ATOMIC CHARGES
-----------------------
   0 C :    0.354952
   1 C :   -0.079805
   2 O :   -0.380609
   3 O :   -0.297167
   4 H :    0.213539
   5 H :    0.081207
   6 H :    0.053941
   7 H :    0.053941
Sum of atomic charges:    0.0000000

--------------------------------
MULLIKEN REDUCED ORBITAL CHARGES
--------------------------------
  0 C s       :     3.100617  s :     3.100617
      pz      :     0.762855  p :     2.332141
      px      :     0.775701
      py      :     0.793585
      dz2     :     0.012897  d :     0.179370
      dxz     :     0.030340
      dyz     :     0.048471
      dx2y2   :     0.036974
      dxy     :     0.050688
      f0      :     0.002087  f :     0.028851
      f+1     :     0.001060
      f-1     :     0.001010
      f+2     :     0.004756
      f-2     :     0.003102
      f+3     :     0.011189
      f-3     :     0.005647
      g0      :     0.000130  g :     0.004068
      g+1     :     0.000280
      g-1     :     0.000493
      g+2     :     0.000273
      g-2     :     0.000276
      g+3     :     0.000116
      g-3     :     0.000514
      g+4     :     0.000854
      g-4     :     0.001133

  1 C s       :     3.323438  s :     3.323438
      pz      :     0.918094  p :     2.720233
      px      :     0.906867
      py      :     0.895272
      dz2     :     0.003540  d :     0.029595
      dxz     :     0.006995
      dyz     :     0.007231
      dx2y2   :     0.006668
      dxy     :     0.005160
      f0      :     0.000580  f :     0.006194
      f+1     :     0.000461
      f-1     :     0.001611
      f+2     :    -0.000249
      f-2     :     0.001114
      f+3     :     0.000892
      f-3     :     0.001785
      g0      :     0.000011  g :     0.000344
      g+1     :     0.000034
      g-1     :    -0.000003
      g+2     :     0.000100
      g-2     :     0.000026
      g+3     :     0.000012
      g-3     :     0.000023
      g+4     :     0.000111
      g-4     :     0.000032

  2 O s       :     3.787641  s :     3.787641
      pz      :     1.394016  p :     4.550589
      px      :     1.798761
      py      :     1.357812
      dz2     :     0.003491  d :     0.038445
      dxz     :     0.000576
      dyz     :     0.013332
      dx2y2   :     0.009877
      dxy     :     0.011168
      f0      :     0.000460  f :     0.003735
      f+1     :     0.000077
      f-1     :     0.000344
      f+2     :     0.000833
      f-2     :     0.000111
      f+3     :     0.001093
      f-3     :     0.000817
      g0      :     0.000011  g :     0.000199
      g+1     :     0.000001
      g-1     :     0.000041
      g+2     :     0.000023
      g-2     :     0.000009
      g+3     :     0.000005
      g-3     :     0.000025
      g+4     :     0.000041
      g-4     :     0.000044

  3 O s       :     3.754500  s :     3.754500
      pz      :     1.731008  p :     4.508972
      px      :     1.232379
      py      :     1.545584
      dz2     :     0.004466  d :     0.030731
      dxz     :     0.004971
      dyz     :     0.003433
      dx2y2   :     0.007415
      dxy     :     0.010447
      f0      :     0.000451  f :     0.002830
      f+1     :     0.000491
      f-1     :     0.000255
      f+2     :     0.000197
      f-2     :     0.000307
      f+3     :     0.000531
      f-3     :     0.000598
      g0      :     0.000009  g :     0.000133
      g+1     :     0.000013
      g-1     :     0.000005
      g+2     :     0.000010
      g-2     :     0.000012
      g+3     :     0.000002
      g-3     :     0.000013
      g+4     :     0.000033
      g-4     :     0.000035

  4 H s       :     0.696857  s :     0.696857
      pz      :     0.033791  p :     0.075698
      px      :     0.016975
      py      :     0.024932
      dz2     :     0.000346  d :     0.012370
      dxz     :     0.002473
      dyz     :     0.003729
      dx2y2   :     0.003638
      dxy     :     0.002185
      f0      :     0.000246  f :     0.001537
      f+1     :     0.000068
      f-1     :     0.000076
      f+2     :     0.000009
      f-2     :     0.000425
      f+3     :     0.000251
      f-3     :     0.000462

  5 H s       :     0.883278  s :     0.883278
      pz      :     0.014490  p :     0.029971
      px      :     0.003863
      py      :     0.011617
      dz2     :     0.000144  d :     0.005185
      dxz     :     0.001941
      dyz     :     0.000640
      dx2y2   :     0.001425
      dxy     :     0.001035
      f0      :     0.000068  f :     0.000360
      f+1     :     0.000011
      f-1     :     0.000005
      f+2     :     0.000038
      f-2     :     0.000083
      f+3     :     0.000136
      f-3     :     0.000019

  6 H s       :     0.904690  s :     0.904690
      pz      :     0.008780  p :     0.035149
      px      :     0.014951
      py      :     0.011418
      dz2     :     0.001885  d :     0.005836
      dxz     :     0.001420
      dyz     :     0.000783
      dx2y2   :     0.000625
      dxy     :     0.001123
      f0      :     0.000135  f :     0.000384
      f+1     :     0.000036
      f-1     :     0.000031
      f+2     :     0.000041
      f-2     :     0.000099
      f+3     :     0.000025
      f-3     :     0.000017

  7 H s       :     0.904690  s :     0.904690
      pz      :     0.008780  p :     0.035149
      px      :     0.014951
      py      :     0.011418
      dz2     :     0.001885  d :     0.005836
      dxz     :     0.001420
      dyz     :     0.000783
      dx2y2   :     0.000625
      dxy     :     0.001123
      f0      :     0.000135  f :     0.000384
      f+1     :     0.000036
      f-1     :     0.000031
      f+2     :     0.000041
      f-2     :     0.000099
      f+3     :     0.000025
      f-3     :     0.000017



                     *******************************
                     * LOEWDIN POPULATION ANALYSIS *
                     *******************************

----------------------
LOEWDIN ATOMIC CHARGES
----------------------
   0 C :   -0.766523
   1 C :    0.226457
   2 O :    0.323583
   3 O :    0.687962
   4 H :   -0.316427
   5 H :   -0.053305
   6 H :   -0.050873
   7 H :   -0.050873

-------------------------------
LOEWDIN REDUCED ORBITAL CHARGES
-------------------------------
  0 C s       :     2.642660  s :     2.642660
      pz      :     0.701035  p :     2.631385
      px      :     0.881029
      py      :     1.049322
      dz2     :     0.083368  d :     1.112473
      dxz     :     0.124192
      dyz     :     0.192327
      dx2y2   :     0.312974
      dxy     :     0.399612
      f0      :     0.017055  f :     0.333710
      f+1     :     0.015442
      f-1     :     0.022069
      f+2     :     0.048396
      f-2     :     0.029030
      f+3     :     0.128045
      f-3     :     0.073674
      g0      :     0.001447  g :     0.046294
      g+1     :     0.003791
      g-1     :     0.007831
      g+2     :     0.004151
      g-2     :     0.005018
      g+3     :     0.000711
      g-3     :     0.003666
      g+4     :     0.009226
      g-4     :     0.010454

  1 C s       :     2.559508  s :     2.559508
      pz      :     0.937570  p :     2.793142
      px      :     0.926174
      py      :     0.929398
      dz2     :     0.062264  d :     0.343748
      dxz     :     0.021315
      dyz     :     0.090761
      dx2y2   :     0.075753
      dxy     :     0.093655
      f0      :     0.004847  f :     0.072795
      f+1     :     0.008955
      f-1     :     0.012432
      f+2     :     0.007741
      f-2     :     0.008179
      f+3     :     0.013903
      f-3     :     0.016739
      g0      :     0.000206  g :     0.004350
      g+1     :     0.000336
      g-1     :     0.000427
      g+2     :     0.000610
      g-2     :     0.000342
      g+3     :     0.000299
      g-3     :     0.000344
      g+4     :     0.000599
      g-4     :     0.001187

  2 O s       :     3.270177  s :     3.270177
      pz      :     1.263430  p :     4.289463
      px      :     1.533857
      py      :     1.492176
      dz2     :     0.010694  d :     0.094499
      dxz     :     0.001202
      dyz     :     0.018979
      dx2y2   :     0.032398
      dxy     :     0.031226
      f0      :     0.001826  f :     0.021056
      f+1     :     0.000584
      f-1     :     0.002513
      f+2     :     0.002843
      f-2     :     0.000547
      f+3     :     0.007439
      f-3     :     0.005304
      g0      :     0.000058  g :     0.001222
      g+1     :     0.000004
      g-1     :     0.000164
      g+2     :     0.000120
      g-2     :     0.000084
      g+3     :     0.000026
      g-3     :     0.000101
      g+4     :     0.000274
      g-4     :     0.000392

  3 O s       :     3.055582  s :     3.055582
      pz      :     1.449207  p :     4.117963
      px      :     1.224588
      py      :     1.444168
      dz2     :     0.014592  d :     0.116995
      dxz     :     0.014430
      dyz     :     0.005511
      dx2y2   :     0.032892
      dxy     :     0.049570
      f0      :     0.001540  f :     0.020783
      f+1     :     0.002069
      f-1     :     0.000905
      f+2     :     0.000683
      f-2     :     0.002278
      f+3     :     0.007845
      f-3     :     0.005464
      g0      :     0.000043  g :     0.000716
      g+1     :     0.000093
      g-1     :     0.000051
      g+2     :     0.000091
      g-2     :     0.000104
      g+3     :     0.000036
      g-3     :     0.000075
      g+4     :     0.000196
      g-4     :     0.000025

  4 H s       :     0.686212  s :     0.686212
      pz      :     0.109530  p :     0.406663
      px      :     0.117903
      py      :     0.179230
      dz2     :     0.015330  d :     0.185691
      dxz     :     0.026063
      dyz     :     0.037209
      dx2y2   :     0.063014
      dxy     :     0.044075
      f0      :     0.005474  f :     0.037860
      f+1     :     0.001975
      f-1     :     0.002283
      f+2     :     0.000233
      f-2     :     0.009204
      f+3     :     0.008446
      f-3     :     0.010246

  5 H s       :     0.788891  s :     0.788891
      pz      :     0.053083  p :     0.188477
      px      :     0.079632
      py      :     0.055761
      dz2     :     0.004550  d :     0.066398
      dxz     :     0.017590
      dyz     :     0.006705
      dx2y2   :     0.020257
      dxy     :     0.017295
      f0      :     0.001202  f :     0.009539
      f+1     :     0.001037
      f-1     :     0.000326
      f+2     :     0.000527
      f-2     :     0.001544
      f+3     :     0.002940
      f-3     :     0.001964

  6 H s       :     0.781508  s :     0.781508
      pz      :     0.075432  p :     0.193673
      px      :     0.051117
      py      :     0.067124
      dz2     :     0.021732  d :     0.066287
      dxz     :     0.013084
      dyz     :     0.015062
      dx2y2   :     0.006315
      dxy     :     0.010094
      f0      :     0.002542  f :     0.009405
      f+1     :     0.000729
      f-1     :     0.002005
      f+2     :     0.001449
      f-2     :     0.001911
      f+3     :     0.000483
      f-3     :     0.000287

  7 H s       :     0.781508  s :     0.781508
      pz      :     0.075432  p :     0.193673
      px      :     0.051117
      py      :     0.067124
      dz2     :     0.021732  d :     0.066287
      dxz     :     0.013084
      dyz     :     0.015062
      dx2y2   :     0.006315
      dxy     :     0.010094
      f0      :     0.002542  f :     0.009405
      f+1     :     0.000729
      f-1     :     0.002005
      f+2     :     0.001449
      f-2     :     0.001911
      f+3     :     0.000483
      f-3     :     0.000287



                      *****************************
                      * MAYER POPULATION ANALYSIS *
                      *****************************

  NA   - Mulliken gross atomic population
  ZA   - Total nuclear charge
  QA   - Mulliken gross atomic charge
  VA   - Mayer's total valence
  BVA  - Mayer's bonded valence
  FA   - Mayer's free valence

  ATOM       NA         ZA         QA         VA         BVA        FA
  0 C      5.6450     6.0000     0.3550     4.1841     4.1841    -0.0000
  1 C      6.0798     6.0000    -0.0798     3.7477     3.7477     0.0000
  2 O      8.3806     8.0000    -0.3806     2.1467     2.1467    -0.0000
  3 O      8.2972     8.0000    -0.2972     2.2048     2.2048     0.0000
  4 H      0.7865     1.0000     0.2135     1.0472     1.0472    -0.0000
  5 H      0.9188     1.0000     0.0812     1.0072     1.0072     0.0000
  6 H      0.9461     1.0000     0.0539     1.0037     1.0037     0.0000
  7 H      0.9461     1.0000     0.0539     1.0037     1.0037     0.0000

  Mayer bond orders larger than 0.100000
B(  0-C ,  1-C ) :   0.9088 B(  0-C ,  2-O ) :   2.0245 B(  0-C ,  3-O ) :   1.2000 
B(  1-C ,  5-H ) :   0.9636 B(  1-C ,  6-H ) :   0.9372 B(  1-C ,  7-H ) :   0.9372 
B(  3-O ,  4-H ) :   0.9627 

-------
TIMINGS
-------

Total SCF time: 0 days 0 hours 0 min 35 sec 

Total time                  ....      35.870 sec
Sum of individual times     ....      33.841 sec  ( 94.3%)

SCF preparation             ....       0.136 sec  (  0.4%)
Fock matrix formation       ....      33.189 sec  ( 92.5%)
  Startup                   ....       0.011 sec  (  0.0% of F)
  Coulomb formation         ....      33.161 sec  ( 99.9% of F)
  XC integration            ....       1.672 sec  (  5.0% of F)
    XC Preparation          ....       0.000 sec  (  0.0% of XC)
    Basis function eval.    ....       0.165 sec  (  9.9% of XC)
    Density eval.           ....       0.189 sec  ( 11.3% of XC)
    XC-Functional eval.     ....       0.017 sec  (  1.0% of XC)
    XC-Potential eval.      ....       0.489 sec  ( 29.2% of XC)
Diagonalization             ....       0.000 sec  (  0.0%)
Density matrix formation    ....       0.087 sec  (  0.2%)
Total Energy calculation    ....       0.026 sec  (  0.1%)
Population analysis         ....       0.021 sec  (  0.1%)
Orbital Transformation      ....       0.042 sec  (  0.1%)
Orbital Orthonormalization  ....       0.000 sec  (  0.0%)
DIIS solution               ....       0.206 sec  (  0.6%)
SOSCF solution              ....       0.134 sec  (  0.4%)
Finished LeanSCF after  35.9 sec

Maximum memory used throughout the entire LEANSCF-calculation: 35.0 MB


           ************************************************************
           *        Program running with 8 parallel MPI-processes     *
           *              working on a common directory               *
           ************************************************************

------------------------------------------------------------------------------
                         ORCA PROPERTY INTEGRAL CALCULATIONS
------------------------------------------------------------------------------

GBWName                                   ... /cluster/projects/nn14654k/ylvaos/basis_set_n_funcs/functionals/gga_x_pbe/CH3COOH/inp/CH3COOH_gga_x_pbe_def2qzvp.gbw
Number of atoms                           ...      8
Number of basis functions                 ...    348
Max core memory                           ...   4096 MB

Dipole integrals                          ... YES
Quadrupole integrals                      ... YES
Linear momentum integrals                 ...  NO
Angular momentum integrals                ...  NO
Higher moments length integrals           ...  NO
Higher moments velocity integrals         ...  NO
Kinetic energy integrals                  ...  NO
GIAO right hand sides                     ...  NO
GIAO dipole derivative integrals          ...  NO
SOC integrals                             ...  NO
EPR diamagnetic integrals (GIAO)          ...  NO
EPR gauge integrals                       ...  NO
Field gradient integrals                  ...  NO (   0 nuclei)
Spin-dipole/Fermi contact integrals       ...  NO (   0 nuclei)
Contact density integrals                 ...  NO (   0 nuclei)
Nucleus-orbit integrals                   ...  NO (   0 nuclei)
Geometric perturbations                   ...  NO (   8 nuclei)

Choice of electric origin   ... Center of mass
Position of electric origin ... ( -0.0657,  0.0975,  0.0000) 
Choice of magnetic origin   ... GIAO
Position of magnetic origin ... (  0.0000,  0.0000,  0.0000) 

Calculating integrals                     ... Electric Dipole (Length)     done (  0.0 sec)
Calculating integrals                     ... Electric Quadrupole (Length) done (  0.0 sec)

Property integrals calculated in   0.0 sec

Maximum memory used throughout the entire PROPINT-calculation: 22.2 MB
------------------------------------------------------------------------------
                           ORCA ORBITAL LOCALIZATION
------------------------------------------------------------------------------

Input orbitals are from                  ... /cluster/projects/nn14654k/ylvaos/basis_set_n_funcs/functionals/gga_x_pbe/CH3COOH/inp/CH3COOH_gga_x_pbe_def2qzvp.gbw
Output orbitals are to                   ... /cluster/projects/nn14654k/ylvaos/basis_set_n_funcs/functionals/gga_x_pbe/CH3COOH/inp/CH3COOH_gga_x_pbe_def2qzvp.loc
Max. number of iterations                ... 128
Localizations seeded randomly            ... on
Convergence tolerance                    ... 1.000e-06
Threshold for strong local MOs           ... 9.500e-01
Threshold for bond MOs                   ... 8.500e-01
Operator                                 ... 0
Orbital range for localization           ... 4 to 15
Localization criterion                   ... NEW-BOYS
Doing the dipole integrals               ... o.k.
Initial value of the localization sum :    58.181116
ITERATION   0 : L=   79.6152462468 DL=  2.14e+01 (AVERGE_DL)=    0.5698767787 
ITERATION   1 : L=   81.4179610137 DL=  1.80e+00 (AVERGE_DL)=    0.1652690537 
ITERATION   2 : L=   81.4344909063 DL=  1.65e-02 (AVERGE_DL)=    0.0158257043 
ITERATION   3 : L=   81.4362479799 DL=  1.76e-03 (AVERGE_DL)=    0.0051596829 
ITERATION   4 : L=   81.4373949819 DL=  1.15e-03 (AVERGE_DL)=    0.0041687909 
ITERATION   5 : L=   81.4384224342 DL=  1.03e-03 (AVERGE_DL)=    0.0039455621 
ITERATION   6 : L=   81.4393424010 DL=  9.20e-04 (AVERGE_DL)=    0.0037334823 
ITERATION   7 : L=   81.4401113485 DL=  7.69e-04 (AVERGE_DL)=    0.0034133152 
ITERATION   8 : L=   81.4407151052 DL=  6.04e-04 (AVERGE_DL)=    0.0030245378 
ITERATION   9 : L=   81.4411647484 DL=  4.50e-04 (AVERGE_DL)=    0.0026101295 
ITERATION  10 : L=   81.4414858667 DL=  3.21e-04 (AVERGE_DL)=    0.0022057717 
ITERATION  11 : L=   81.4417078889 DL=  2.22e-04 (AVERGE_DL)=    0.0018341136 
ITERATION  12 : L=   81.4418576733 DL=  1.50e-04 (AVERGE_DL)=    0.0015064727 
ITERATION  13 : L=   81.4419568776 DL=  9.92e-05 (AVERGE_DL)=    0.0012260079 
ITERATION  14 : L=   81.4420216851 DL=  6.48e-05 (AVERGE_DL)=    0.0009909245 
ITERATION  15 : L=   81.4420635890 DL=  4.19e-05 (AVERGE_DL)=    0.0007968109 
ITERATION  16 : L=   81.4420904759 DL=  2.69e-05 (AVERGE_DL)=    0.0006382609 
ITERATION  17 : L=   81.4421076284 DL=  1.72e-05 (AVERGE_DL)=    0.0005097910 
ITERATION  18 : L=   81.4421185231 DL=  1.09e-05 (AVERGE_DL)=    0.0004062907 
ITERATION  19 : L=   81.4421254197 DL=  6.90e-06 (AVERGE_DL)=    0.0003232546 
ITERATION  20 : L=   81.4421297750 DL=  4.36e-06 (AVERGE_DL)=    0.0002568828 
ITERATION  21 : L=   81.4421325194 DL=  2.74e-06 (AVERGE_DL)=    0.0002039177 
ITERATION  22 : L=   81.4421342464 DL=  1.73e-06 (AVERGE_DL)=    0.0001617607 
ITERATION  23 : L=   81.4421353322 DL=  1.09e-06 (AVERGE_DL)=    0.0001282651 
ITERATION  24 : L=   81.4421360138 DL=  6.82e-07 (AVERGE_DL)=    0.0001016181 
LOCALIZATION SUM CONVERGED


--------------------------------------------------------------------------------
                    LOCALIZED MOLECULAR ORBITAL COMPOSITIONS
--------------------------------------------------------------------------------

The Mulliken populations for each LMO on each atom are computed
The LMO`s will be ordered according to atom index and type
  (A) Strongly localized MO`s have populations of >=0.950 on one atom
  (B) Two center bond orbitals have populations of >=0.850 on two atoms
  (C) Other MO`s are considered to be `delocalized`

FOUND  -   1 strongly local MO`s
       -  11 two center bond MO`s
       -   0 significantly delocalized MO`s

Rather strongly localized orbitals:
MO   4:   3O  -   0.954165
Bond-like localized orbitals:
MO  15:   7H  -   0.495906  and   1C  -   0.511244
MO  14:   6H  -   0.495909  and   1C  -   0.511214
MO  13:   5H  -   0.477689  and   1C  -   0.553309
MO  12:   4H  -   0.381647  and   3O  -   0.633463
MO  11:   3O  -   0.718889  and   0C  -   0.317741
MO  10:   3O  -   0.882899  and   0C  -   0.109504
MO   9:   2O  -   0.665333  and   0C  -   0.347654
MO   8:   2O  -   0.664869  and   0C  -   0.348402
MO   7:   2O  -   0.940392  and   0C  -   0.056880
MO   6:   2O  -   0.943178  and   0C  -   0.065877
MO   5:   1C  -   0.504067  and   0C  -   0.546242
Localized MO's were stored in: /cluster/projects/nn14654k/ylvaos/basis_set_n_funcs/functionals/gga_x_pbe/CH3COOH/inp/CH3COOH_gga_x_pbe_def2qzvp.loc

-------------------------   --------------------
FINAL SINGLE POINT ENERGY      -227.885730145968
-------------------------   --------------------



           ************************************************************
           *        Program running with 8 parallel MPI-processes     *
           *              working on a common directory               *
           ************************************************************

------------------------------------------------------------------------------
                              ORCA PROPERTY CALCULATIONS
------------------------------------------------------------------------------

GBWName                                 ... /cluster/projects/nn14654k/ylvaos/basis_set_n_funcs/functionals/gga_x_pbe/CH3COOH/inp/CH3COOH_gga_x_pbe_def2qzvp.gbw
Number of atoms                         ...      8
Number of basis functions               ...    348
Max core memory                         ...   4096 MB

Electric properties:
Dipole moment                           ... YES
Quadrupole moment                       ... YES
Static polarizability (Dipole/Dipole)   ...  NO
Static polarizability (Dipole/Quad.)    ...  NO
Static polarizability (Quad./Quad.)     ...  NO
Static polarizability (Velocity)        ...  NO
Static hyperpolarizability              ...  NO

Atomic electric properties:
Dipole moment                           ...  NO
Quadrupole moment                       ...  NO
Static polarizability                   ...  NO

Choice of electric origin               ... Center of mass
Position of electric origin             ...    -0.065707     0.097461     0.000000

General magnetic properties:
Magnetizability                         ...  NO

EPR properties:
g-Tensor (aka g-matrix)                 ...  NO
Zero-Field splitting spin-orbit         ...  NO
Zero-field splitting spin-spin          ...  NO
Hyperfine couplings                     ...  NO (   0 nuclei)
Quadrupole couplings                    ...  NO (   0 nuclei)
Contact density                         ...  NO (   0 nuclei)

NMR properties:
Chemical shifts                         ...  NO (   0 nuclei)
Spin-rotation constants                 ...  NO (   0 nuclei)
Spin-spin couplings                     ...  NO (   0 nuclei,    0 pairs)

Choice of magnetic origin               ... GIAO
Position of magnetic origin             ...     0.000000     0.000000     0.000000

Properties with geometric perturbations:
SCF Hessian                             ...  NO
IR spectrum                             ...  NO
VCD spectrum                            ...  NO
X-ray spectroscopy properties:
SCF XES/XAS/RIXS spectra                ...  NO

SCF SOC stabilization energy            ...  NO
Diagonal Born-Oppenheimer correction    ...  NO

-------------
DIPOLE MOMENT
-------------

Method             : SCF
Type of density    : Electron Density
Multiplicity       :   1
Irrep              :   0
Energy             :  -227.8857301459679547 Eh
Basis              : AO
                                X                 Y                 Z
Electronic contribution:     -2.209684401       2.448548782       0.000000003
Nuclear contribution   :      2.102617427      -3.118765285       0.000000000
                        -----------------------------------------
Total Dipole Moment    :     -0.107066974      -0.670216503       0.000000003
                        -----------------------------------------
Magnitude (a.u.)       :      0.678714592
Magnitude (Debye)      :      1.725155392



--------------------
Rotational spectrum 
--------------------
 
Rotational constants in cm-1:             0.373252             0.316126             0.176788 
Rotational constants in MHz :         11189.819630          9477.229268          5299.974115 

Dipole components along the rotational axes: 
x,y,z [a.u.] :    -0.353950    -0.579114     0.000000 
x,y,z [Debye]:    -0.899669    -1.471991     0.000000 

 

Dipole moment calculation done in   0.0 sec 

-----------------
QUADRUPOLE MOMENT
-----------------

Method             : SCF
Type of density    : Electron Density
Multiplicity       :   1
Irrep              :   0
Energy             :  -227.8857301459679547 Eh
Basis              : AO

                XX              YY              ZZ              XY              XZ              YZ
  NUC      103.447904006    93.335807526     5.552847104   -15.402641721     0.000000000     0.000000000
  EL      -119.281821322  -114.368306253   -23.358812150    12.832021710     0.000000010     0.000000003
  TOT      -15.833917316   -21.032498727   -17.805965046    -2.570620011     0.000000010     0.000000003 (a.u.)
           -21.297160310   -28.289430100   -23.949631951    -3.457571829     0.000000014     0.000000004 (Buckingham)

diagonalized tensor:
           -22.088943161   -17.805965046   -14.777472882 (a.u.)
           -29.710383994   -23.949631951   -19.876206416 (Buckingham)
           -15.594929620     1.687326507    13.907603113 (traceless form in Buckingham)

             0.380120218    -0.000000002     0.924937089
             0.924937089     0.000000002    -0.380120218
            -0.000000001     1.000000000     0.000000003
        
Isotropic quadrupole :   -18.224127030

Quadrupole moment calculation done in   0.0 sec (  0.0 sec for integrals)

Maximum memory used throughout the entire PROP-calculation: 18.2 MB

--------------------------------
SUGGESTED CITATIONS FOR THIS RUN
--------------------------------

Below you find a list of papers that are relevant to this ORCA run
We neither can nor want to force you to cite these papers, but we appreciate if you do
You receive ORCA, which is the product of decades of hard work by many enthusiastic individuals, for free
The only thing we kindly ask in return is that you cite our papers,
We deeply appreciate it, if you show your appreciation for ORCA by not just citing the generic ORCA reference.

Please note that relegating all ORCA citations to the supporting information does *not* help us.
SI sections are not indexed - citations you put there will not count into any citation statistics
But we need these citations in order to attract the funding resources that allow us to do what we are doing

Therefore, if you are a happy ORCA user, please consider citing a few of the papers listed below in the main body of your paper

In addition to the list printed below, the program has created the file /cluster/projects/nn14654k/ylvaos/basis_set_n_funcs/functionals/gga_x_pbe/CH3COOH/inp/CH3COOH_gga_x_pbe_def2qzvp.bibtex that contains the list in bibtex format
You can import this file easily into all common literature databanks and citation aid programs

It goes without saying that in many instances, there are alternative algorithms to achieve similar
results as the ones you have gotten from ORCA. It is, of course, also the case that in some instances
ORCA just re-implements algorithms worked out by others. We are fully aware of that and we are also
fully appreciative of our colleagues work. Hence this citation list should not be read as indicating
that the listed papers, which are focused on our own work, are the only ones worth citing. It simply
meant to make it easier for users to cite ORCA specific papers. It is not a substitute for doing your
own literature research and citing the relevant literature in a scientifically appropriate manner.

List of essential papers. We consider these as the minimum necessary citations

  1. Neese, F.
     Software update: the ORCA program system, version 6.0
     WIRES Comput. Molec. Sci. 2025 15(1), e70019
     doi.org/10.1002/wcms.70019

List of papers to cite with high priority. The work reported in these papers was absolutely
necessary for this run to complete.
Our perspective: the developers of density functionals and basis sets usually get cited in chemistry papers
Good! But without the algorithms to do something with them, the functionals or basis sets would not do anything.
Hence, in our opinion, the algorithm design and method developments papers are equally worthy of getting cited

  1. Lehtola, S.; Steigemann, C.; Oliveira, M.; Marques, M.
     Recent developments in Libxc - A comprehensive library of functionals for density functional theory
     Software X 2018 7 , 
     doi.org/10.1016/j.softx.2017.11.002
  2. Neese, F.
     The SHARK Integral Generation and Digestion System
     J. Comp. Chem. 2022 44(3), 381
     doi.org/10.1002/jcc.26942

List of suggested additional citations. These are papers that are important in the 'surrounding' of 
of this run, or papers that preceded the highly important papers. If you like your results we are grateful for a citation.

  1. Neese, F.
     The ORCA program system
     WIRES Comput. Molec. Sci. 2012 2(1), 73-78
     doi.org/10.1002/wcms.81
  2. Neese, F.
     Software update: the ORCA program system, version 4.0
     WIRES Comput. Molec. Sci. 2018 8(1), 1-6
     doi.org/10.1002/wcms.1327
  3. Neese, F.; Wennmohs, F.; Becker, U.; Riplinger, C.
     The ORCA quantum chemistry program package
     J. Chem. Phys. 2020 152(22), 224108
     doi.org/10.1063/5.0004608
  4. Neese, F.
     Software update: The ORCA program system—Version 5.0
     WIRES Comput. Molec. Sci. 2022 12(1), e1606
     doi.org/10.1002/wcms.1606

List of optional additional citations

  1. Neese, F.
     Approximate second-order SCF convergence for spin unrestricted wavefunctions
     Chem. Phys. Lett. 2000 325(1-3), 93-98
     doi.org/10.1016/s0009-2614(00)00662-x

Timings for individual modules:

Sum of individual times          ...       37.725 sec (=   0.629 min)
Startup calculation              ...        0.635 sec (=   0.011 min)   1.7 %
SCF iterations                   ...       36.500 sec (=   0.608 min)  96.8 %
Property integrals               ...        0.313 sec (=   0.005 min)   0.8 %
Property calculations            ...        0.268 sec (=   0.004 min)   0.7 %
Orbital localization             ...        0.010 sec (=   0.000 min)   0.0 %
                             ****ORCA TERMINATED NORMALLY****
TOTAL RUN TIME: 0 days 0 hours 0 minutes 38 seconds 601 msec
