
                                 *****************
                                 * O   R   C   A *
                                 *****************

                                            #,                                       
                                            ###                                      
                                            ####                                     
                                            #####                                    
                                            ######                                   
                                           ########,                                 
                                     ,,################,,,,,                         
                               ,,#################################,,                 
                          ,,##########################################,,             
                       ,#########################################, ''#####,          
                    ,#############################################,,   '####,        
                  ,##################################################,,,,####,       
                ,###########''''           ''''###############################       
              ,#####''   ,,,,##########,,,,          '''####'''          '####       
            ,##' ,,,,###########################,,,                        '##       
           ' ,,###''''                  '''############,,,                           
         ,,##''                                '''############,,,,        ,,,,,,###''
      ,#''                                            '''#######################'''  
     '                                                          ''''####''''         
             ,#######,   #######,   ,#######,      ##                                
            ,#'     '#,  ##    ##  ,#'     '#,    #''#        ,####,    ,#,          
            ##       ##  ##   ,#'  ##            #'  '#       #'       ,# #          
            ##       ##  #######   ##           ,######,      #####,      #          
            '#,     ,#'  ##    ##  '#,     ,#' ,#      #,     #,   #      #          
             '#######'   ##     ##  '#######'  #'      '#     '####' #    #          



                #########################################################
                #                        -***-                          #
                #          Department of theory and spectroscopy        #
                #                                                       #
                #                      Frank Neese                      #
                #                                                       #
                #     Directorship, Architecture, Infrastructure        #
                #                    SHARK, DRIVERS                     #
                #        Core code/Algorithms in most modules           #
                #                                                       #
                #        Max Planck Institute fuer Kohlenforschung      #
                #                Kaiser Wilhelm Platz 1                 #
                #                 D-45470 Muelheim/Ruhr                 #
                #                      Germany                          #
                #                                                       #
                #                  All rights reserved                  #
                #                        -***-                          #
                #########################################################


                         Program Version 6.1.1  -  RELEASE   -
                                (GIT: $487d211c$)
                          ($2025-11-21 10:33:24 +0100$)


 With contributions from (in alphabetic order):
[Max-Planck-Institut fuer Kohlenforschung]                               
  Daniel Aravena         : Magnetic Suceptibility                        
  Michael Atanasov       : Ab Initio Ligand Field Theory (pilot matlab implementation)
  Alexander A. Auer      : GIAO ZORA, VPT2 properties, NMR spectrum      
  Ute Becker             : All parallelization in ORCA, NUMFREQ, NUMCALC 
  Giovanni Bistoni       : ED, misc. LED, open-shell LED, HFLD           
  Dmytro Bykov           : pre 5.0 version of the SCF Hessian            
  Marcos Casanova-Páez   : Triplet and SCS-CIS(D). UHF-(DLPNO)-IP/EA/STEOM-CCSD. UHF-CVS-IP/STEOM-CCSD   
  Vijay G. Chilkuri      : MRCI spin determinant printing, contributions to CSF-ICE 
  Pauline Colinet        : FMM embedding                                 
  Dipayan Datta          : RHF DLPNO-CCSD density                        
  Achintya Kumar Dutta   : EOM-CC, STEOM-CC                              
  Nicolas Foglia         : Exact transition moments, OPA infrastructure, MCD improvements    
  Dmitry Ganyushin       : Spin-Orbit,Spin-Spin,Magnetic field MRCI      
  Miquel Garcia-Rates    : C-PCM and meta-GGA Hessian, CCSD/C-PCM, Gaussian charge scheme 
  Tiago L. C. Gouveia    : GS-ROHF, GS-ROCIS                             
  Yang Guo               : DLPNO-NEVPT2, F12-NEVPT2, CIM, IAO-localization        
  Andreas Hansen         : Spin unrestricted coupled pair/coupled cluster methods 
  Ingolf Harden          : AUTO-CI MPn and infrastructure                
  Benjamin Helmich-Paris : MC-RPA, TRAH-(SCF,CASSCF), AVAS, COSX integrals, SCF dyn. polar., MC-PDFT, srDFT 
  Lee Huntington         : MR-EOM, pCC                                   
  Robert Izsak           : Overlap fitted RIJCOSX, COSX-SCS-MP3, EOM     
  Riya Kayal             : Wick's Theorem for AUTO-CI, AUTO-CI UHF-CCSDT 
  Emily Kempfer          : AUTO-CI RHF CISDT and CCSDT, approximate NEVPT4
  Christian Kollmar      : KDIIS, OOCD, Brueckner-CCSD(T), CCSD density, CASPT2, CASPT2-K, improved NEVPT2 
  Axel Koslowski         : Symmetry handling                             
  Simone Kossmann        : meta-GGA functionals, TD-DFT gradient, OOMP2, (MP2 Hessian; deprecated post 5.0) 
  Lucas Lang             : DCDCAS, Hyperfine gauge corrections, ICE-SOC+SSC
  Marvin Lechner         : AUTO-CI (C++ implementation), FIC-MRCC        
  Spencer Leger          : CASSCF response                               
  Dagmar Lenk            : GEPOL surface, SMD, ORCA-2-JSON               
  Dimitrios Liakos       : Extrapolation schemes; Compound Job, Property file
  Dimitrios Manganas     : Further ROCIS development; embedding schemes. LFT, Crystal Embedding 
  Dimitrios Pantazis     : SARC Basis sets                               
  Anastasios Papadopoulos: AUTO-CI, single reference methods and gradients 
  Taras Petrenko         : pre 6.0 DFT Hessian and TD-DFT gradient,  ECA, NRVS 
  Petra Pikulova         : Analytic Raman intensities                    
  Peter Pinski           : DLPNO-MP2, DLPNO-MP2 Gradient                 
  Shashank Vittal Rao    : ES-AILFT, MagRelax                            
  Christoph Reimann      : Effective Core Potentials                     
  Marius Retegan         : Local ZFS, SOC                                
  Christoph Riplinger    : Optimizer, TS searches, QM/MM, DLPNO-CCSD(T), (RO)-DLPNO pert. Triples 
  Michael Roemelt        : Original ROCIS implementation, recursive CI coupling coefficients
  Masaaki Saitow         : Open-shell DLPNO-CCSD energy and density      
  Barbara Sandhoefer     : DKH picture change effects                    
  Yorick L. A. Schmerwitz: GMF and freeze-and-release deltaSCF, NEB S-IDPP initial path                    
  Kantharuban Sivalingam : CASSCF convergence/infrastructure, NEVPT2, NEVPT3, NEVPT4(SD), FIC-MRCI and CEPA variants
  Bernardo de Souza      : ESD, SOC TD-DFT                               
  Georgi L. Stoychev     : AutoAux, RI-MP2 NMR, DLPNO-MP2 response, X2C  
  Van Anh Tran           : RI-MP2 g-tensors                              
  Willem Van den Heuvel  : Paramagnetic NMR                              
  Zikuan Wang            : NOTCH, Electric field optimization            
  Frank Wennmohs         : Technical directorship and infrastructure     
  Hang Xu                : AUTO-CI-Response properties                   
                                                                         
[FACCTs GmbH]                                                            
  Markus Bursch, Nicolas Foglia, Miquel Garcia-Rates, Ingolf Harden, Hagen Neugebauer, Anastasios Papadopoulos, 
  Christoph Riplinger, Bernardo de Souza, Georgi L. Stoychev                                                    
                                                                 
  APM, various basis sets, CI-OPT, improved COSX, DLPNO-Multilevel,           
  DOCKER, DRACO, updates on ESD, Fragmentator, GOAT, IRC, LR-CPCM, L-BFGS, MBIS, meta-GGA TD-DFT gradient, ML-optimized integration grids, 
  MM, NACMEs, nearIR, NEB, NEB-TS, NL-DFT gradient (VV10), 2- and 3-layer-ONIOM, interface openCOSMO-RS, QMMM,   
  Crystal-QMMM, RESP, rigid body optimization, SF, symmetry and pop. for TD-DFT, various functionals, SOLVATOR                                   
                                                                         
[Other institutions]                                                     
  V. Asgeirsson          : NEB                                           
  Christoph Bannwarth    : sTDA-DFT, sTD-DFT, PBEh-3c, B97-3c, D3        
  Giovanni Bistoni       : ETS/NOCV, ADLD/ADEX, COVALED                  
  Martin Brehm           : Molecular dynamics                            
  Ronald Cardenas        : ETS/NOCV                                      
  Martina Colucci        : COVALED                                       
  Sebastian Ehlert       : rSCAN, r2SCAN, r2SCAN-3c, D4, dhf basis sets  
  Marvin Friede          : D4 for Fr, Ra, Ac-Lr                          
  Lars Goerigk           : TD-DFT with DH, B97 family of functionals     
  Stefan Grimme          : VdW corrections, initial TS optimization, DFT functionals, gCP, sTDA/sTD-DF 
  Waldemar Hujo          : DFT-NL                                        
  H. Jonsson             : NEB                                           
  Holger Kruse           : gCP                                           
  Marcel Mueller         : wB97X-3c, vDZP basis set                      
  Hagen Neugebauer       : wr2SCAN, Native XTB                           
  Gianluca Regni         : ADLD/ADEX                                     
  Tobias Risthaus        : pre 6.0 range-separated hybrid DFT and stability analysis
  Lukas Wittmann         : regularized MP2, r2SCAN double-hybrids, wr2SCAN        
                                                                         
We gratefully acknowledge several colleagues who have allowed us to      
interface, adapt or use parts of their codes:                            
  Ed Valeev, F. Pavosevic, A. Kumar             : LibInt (2-el integral package), F12 methods 
  Garnet Chan, S. Sharma, J. Yang, R. Olivares  : DMRG                   
  Ulf Ekstrom                                   : XCFun DFT Library      
  Mihaly Kallay                                 : mrcc  (arbitrary order and MRCC methods)
  Frank Weinhold                                : gennbo (NPA and NBO analysis)           
  Simon Mueller                                 : openCOSMO-RS                            
  Christopher J. Cramer and Donald G. Truhlar   : smd solvation model                     
  S Lehtola, MJT Oliveira, MAL Marques          : LibXC Library                           
  Liviu Ungur et al                             : ANISO software                          


 Your calculation uses the libint2 library for the computation of 2-el integrals
 For citations please refer to: http://libint.valeyev.net

 Your ORCA version has been built with support for libXC version: 7.0.0
 For citations please refer to: https://libxc.gitlab.io

 This ORCA versions uses:
   CBLAS   interface :  Fast vector & matrix operations
   LAPACKE interface :  Fast linear algebra routines
   SCALAPACK package :  Parallel linear algebra routines
   Shared memory     :  Shared parallel matrices
   BLAS/LAPACK       :  OpenBLAS 0.3.29  USE64BITINT DYNAMIC_ARCH NO_AFFINITY Cooperlake SINGLE_THREADED
        Core in use  :  Cooperlake
   Copyright (c) 2011-2014, The OpenBLAS Project


  ***********************************
  * Starting time: Wed May 20 12:33:32 2026
  * Host name:     c1-35
  * Process ID:    2618336
  * Working dir.:  /cluster/projects/nn14654k/ylvaos/basis_set_n_funcs/functionals/gga_x_pbe/CH3COOH/out
  ***********************************

Using LibXC functional ID 101 : Perdew, Burke & Ernzerhof
[ 1]  J. P. Perdew, K. Burke, and M. Ernzerhof.,  Phys. Rev. Lett. 77, 3865 (1996)
[ 2]  J. P. Perdew, K. Burke, and M. Ernzerhof.,  Phys. Rev. Lett. 78, 1396 (1997)
Using LibXC functional ID 101 : Perdew, Burke & Ernzerhof
[ 1]  J. P. Perdew, K. Burke, and M. Ernzerhof.,  Phys. Rev. Lett. 77, 3865 (1996)
[ 2]  J. P. Perdew, K. Burke, and M. Ernzerhof.,  Phys. Rev. Lett. 78, 1396 (1997)
Your calculation utilizes LibXC
by S. Lehtola, C. Steigemann, M. J. T. Oliveira & M. A. L. Marques
Please cite in your paper:
Lehtola, S.; Steigemann, C.; Oliveira, M.J.T.; Marques, M. A. L. Software X, 7, (2018), 1.
   

================================================================================

----- Orbital basis set information -----
Your calculation utilizes the basis: pcseg-4
   F. Jensen, J. Chem. Theory Comput. 10, 1074 (2014).

================================================================================
                                        WARNINGS
                       Please study these warnings very carefully!
================================================================================


WARNING: The basis set has functions with high angular momentum (Lmax>4).
         We might need to increase small grids for safety reasons and
         in general, DEFGRID3 is recommend for such cases.
  ===> : GRIDX1, TD-DFT and the CP-SCF AngGrids will be increased to at least 2


================================================================================
                                       INPUT FILE
================================================================================
NAME = /cluster/projects/nn14654k/ylvaos/basis_set_n_funcs/functionals/gga_x_pbe/CH3COOH/inp/CH3COOH_gga_x_pbe_pcseg4.inp
|  1> ! dft pcseg-4 TightSCF
|  2> %pal nprocs 8 end
|  3> 
|  4> %loc
|  5>   LocMet NewBoys
|  6>   Occ true
|  7> end
|  8> 
|  9> %method
| 10>   exchange gga_x_pbe
| 11>   correlation None
| 12> end
| 13> 
| 14> %elprop
| 15>   Dipole true
| 16>   Quadrupole true
| 17> end
| 18> 
| 19> * xyz 0 1
| 20> C    0.000000000000   0.154560000000   0.000000000000
| 21> C    1.073776000000  -0.892748000000   0.000000000000
| 22> O    0.166384000000   1.360084000000   0.000000000000
| 23> O   -1.236449000000  -0.415036000000   0.000000000000
| 24> H   -1.867646000000   0.333582000000   0.000000000000
| 25> H    2.048189000000  -0.408135000000   0.000000000000
| 26> H    0.968661000000  -1.528353000000   0.881747000000
| 27> H    0.968661000000  -1.528353000000  -0.881747000000
| 28> *
| 29> 
| 30> 
| 31>                          ****END OF INPUT****
================================================================================

                       ****************************
                       * Single Point Calculation *
                       ****************************

---------------------------------
CARTESIAN COORDINATES (ANGSTROEM)
---------------------------------
  C      0.000000    0.154560    0.000000
  C      1.073776   -0.892748    0.000000
  O      0.166384    1.360084    0.000000
  O     -1.236449   -0.415036    0.000000
  H     -1.867646    0.333582    0.000000
  H      2.048189   -0.408135    0.000000
  H      0.968661   -1.528353    0.881747
  H      0.968661   -1.528353   -0.881747

----------------------------
CARTESIAN COORDINATES (A.U.)
----------------------------
  NO LB      ZA    FRAG     MASS         X           Y           Z
   0 C     6.0000    0    12.011    0.000000    0.292076    0.000000
   1 C     6.0000    0    12.011    2.029143   -1.687049    0.000000
   2 O     8.0000    0    15.999    0.314420    2.570186    0.000000
   3 O     8.0000    0    15.999   -2.336550   -0.784304    0.000000
   4 H     1.0000    0     1.008   -3.529339    0.630379    0.000000
   5 H     1.0000    0     1.008    3.870516   -0.771263    0.000000
   6 H     1.0000    0     1.008    1.830504   -2.888169    1.666260
   7 H     1.0000    0     1.008    1.830504   -2.888169   -1.666260

--------------------------------
INTERNAL COORDINATES (ANGSTROEM)
--------------------------------
 C      0   0   0     0.000000000000     0.00000000     0.00000000
 C      1   0   0     1.499949647502     0.00000000     0.00000000
 O      1   2   0     1.216951827326   126.42686784     0.00000000
 O      1   2   3     1.361339683113   110.98078396   180.00000000
 H      4   1   2     0.979203024267   105.40175469   180.00000085
 H      2   1   3     1.088269476893   109.27200725     0.00000000
 H      2   1   3     1.092025938913   109.72406365   120.93315147
 H      2   1   3     1.092025938913   109.72406365   239.06684853

---------------------------
INTERNAL COORDINATES (A.U.)
---------------------------
 C      0   0   0     0.000000000000     0.00000000     0.00000000
 C      1   0   0     2.834494048450     0.00000000     0.00000000
 O      1   2   0     2.299705671821   126.42686784     0.00000000
 O      1   2   3     2.572559176322   110.98078396   180.00000000
 H      4   1   2     1.850425545371   105.40175469   180.00000085
 H      2   1   3     2.056531271234   109.27200725     0.00000000
 H      2   1   3     2.063629955684   109.72406365   120.93315147
 H      2   1   3     2.063629955684   109.72406365   239.06684853

---------------------
BASIS SET INFORMATION
---------------------
There are 3 groups of distinct atoms

 Group   1 Type C   : 20s11p6d3f2g1h contracted to 6s5p6d3f2g1h pattern {1241111/71111/111111/111/11/1}
 Group   2 Type O   : 20s11p6d3f2g1h contracted to 6s5p6d3f2g1h pattern {1241111/71111/111111/111/11/1}
 Group   3 Type H   : 11s6p3d2f1g contracted to 5s6p3d2f1g pattern {71111/111111/111/11/1}

Atom   0C    basis set group =>   1
Atom   1C    basis set group =>   1
Atom   2O    basis set group =>   2
Atom   3O    basis set group =>   2
Atom   4H    basis set group =>   3
Atom   5H    basis set group =>   3
Atom   6H    basis set group =>   3
Atom   7H    basis set group =>   3


           ************************************************************
           *        Program running with 8 parallel MPI-processes     *
           *              working on a common directory               *
           ************************************************************
------------------------------------------------------------------------------
                             ORCA STARTUP CALCULATIONS
------------------------------------------------------------------------------
------------------------------------------------------------------------------
                   ___                                                        
                  /   \      - P O W E R E D   B Y -                         
                 /     \                                                     
                 |  |  |   _    _      __       _____    __    __             
                 |  |  |  | |  | |    /  \     |  _  \  |  |  /  |          
                  \  \/   | |  | |   /    \    | | | |  |  | /  /          
                 / \  \   | |__| |  /  /\  \   | |_| |  |  |/  /          
                |  |  |   |  __  | /  /__\  \  |    /   |      \           
                |  |  |   | |  | | |   __   |  |    \   |  |\   \          
                \     /   | |  | | |  |  |  |  | |\  \  |  | \   \       
                 \___/    |_|  |_| |__|  |__|  |_| \__\ |__|  \__/        
                                                                              
                      - O R C A' S   B I G   F R I E N D -                    
                                      &                                       
                       - I N T E G R A L  F E E D E R -                       
                                                                              
 v1 FN, 2020, v2 2021, v3 2022-2024                                           
------------------------------------------------------------------------------


----------------------
SHARK INTEGRAL PACKAGE
----------------------

Number of atoms                             ...      8
Number of basis functions                   ...    648
Number of shells                            ...    160
Maximum angular momentum                    ...      5
Integral batch strategy                     ... SHARK/LIBINT Hybrid
RI-J (if used) integral strategy            ... SPLIT-RIJ (Revised 2003 algorithm where possible)
Printlevel                                  ...      1
Contraction scheme used                     ... SEGMENTED contraction
Prescreening option                         ... SCHWARTZ
   Thresh                                   ... 2.500e-11
   Tcut                                     ... 2.500e-12
   Tpresel                                  ... 2.500e-12 
Coulomb Range Separation                    ... NOT USED
Exchange Range Separation                   ... NOT USED
Multipole approximations                    ... NOT USED
Finite Nucleus Model                        ... NOT USED
CABS basis                                  ... NOT available
Auxiliary Coulomb fitting basis             ... NOT available
Auxiliary J/K fitting basis                 ... NOT available
Auxiliary Correlation fitting basis         ... NOT available
Auxiliary 'external' fitting basis          ... NOT available

Checking pre-screening integrals            ... done (  0.0 sec) Dimension = 160
   => SHARK Basis and OBASIS are compatible. Storing Pre-screening
Shell pair information
Shell pair cut-off parameter TPreSel        ...   2.5e-12
Total number of shell pairs                 ...     12880
Shell pairs after pre-screening             ...     12090
Total number of primitive shell pairs       ...     35436
Primitive shell pairs kept                  ...     26382
          la=0 lb=0:    957 shell pairs
          la=1 lb=0:   1815 shell pairs
          la=1 lb=1:    912 shell pairs
          la=2 lb=0:   1514 shell pairs
          la=2 lb=1:   1456 shell pairs
          la=2 lb=2:    628 shell pairs
          la=3 lb=0:    845 shell pairs
          la=3 lb=1:    817 shell pairs
          la=3 lb=2:    683 shell pairs
          la=3 lb=3:    201 shell pairs
          la=4 lb=0:    488 shell pairs
          la=4 lb=1:    479 shell pairs
          la=4 lb=2:    392 shell pairs
          la=4 lb=3:    224 shell pairs
          la=4 lb=4:     71 shell pairs
          la=5 lb=0:    176 shell pairs
          la=5 lb=1:    158 shell pairs
          la=5 lb=2:    143 shell pairs
          la=5 lb=3:     77 shell pairs
          la=5 lb=4:     44 shell pairs
          la=5 lb=5:     10 shell pairs

Checking whether 4 symmetric matrices of dimension 648 fit in memory
:Max Core in MB      =   4096.00
 MB in use           =     22.93
 MB left             =   4073.07
 MB needed           =      6.42
 Data fit in memory  = YES
Calculating Nuclear repulsion               ... done (  0.0 sec) ENN=    120.693288504615 Eh

Diagonalization of the overlap matrix:
Smallest eigenvalue                        ... 9.879e-07
Time for diagonalization                   ...    0.033 sec
Threshold for overlap eigenvalues          ... 1.000e-07
Number of eigenvalues below threshold      ... 0

IMPORTANT:
Smallest eigenvalue of S below the DiffSThresh (1.000e-06) while
Thresh>1e-12 and/or TCut>1e-13! In order to avoid SCF convergence issues,
Thresh will be set to at least 1e-12 and TCut to at least 1e-13.
This can be turned off by adding %SCF DiffSThresh -1 END to the input.

Time for construction of square roots      ...    0.020 sec
Total time needed                          ...    0.056 sec

-------------------
DFT GRID GENERATION
-------------------

General Integration Accuracy     IntAcc      ... 4.388
Radial Grid Type                 RadialGrid  ... OptM3 with GC (2021)
Angular Grid (max. ang.)         AngularGrid ... 4 (Lebedev-302)
Angular grid pruning method      GridPruning ... 4 (adaptive)
Weight generation scheme         WeightScheme... mBecke (2022)
Basis function cutoff            BFCut       ... 1.0000e-11
Integration weight cutoff        WCut        ... 1.0000e-14
Partially contracted basis set               ... off
Rotationally invariant grid construction     ... off
Angular grids for H and He will be reduced by one unit
Diffuse basis detected: some atoms will have their outermost
                        angular grid increased by 1.
Core-polarized basis detected: some atoms will have their core
                               angular grid increased.

Total number of grid points                  ...    46512
Total number of batches                      ...      731
Average number of points per batch           ...       63
Average number of grid points per atom       ...     5814
Grids setup in   0.2 sec
Initializing property integral containers    ... done (  0.0 sec)

SHARK setup successfully completed in   0.9 seconds

Maximum memory used throughout the entire STARTUP-calculation: 62.7 MB


           ************************************************************
           *        Program running with 8 parallel MPI-processes     *
           *              working on a common directory               *
           ************************************************************
-------------------------------------------------------------------------------
                                 ORCA GUESS
                   Start orbitals & Density for SCF / CASSCF
-------------------------------------------------------------------------------

------------
SCF SETTINGS
------------
Hamiltonian:
 Density Functional     Method          .... DFT(GTOs)
  Functional kind                       .... Exchange
  Functional name                       .... Perdew, Burke & Ernzerhof
  Functional family                     .... GGA
  Functional refs                              
    [ 0] J. P. Perdew, K. Burke, and M. Ernzerhof.,  Phys. Rev. Lett. 77, 3865 (1996), doi: 10.1103/PhysRevLett.77.3865
    [ 1] J. P. Perdew, K. Burke, and M. Ernzerhof.,  Phys. Rev. Lett. 78, 1396 (1997), doi: 10.1103/PhysRevLett.78.1396
  Functional external parameters        .... 2
    Parameter  0 _kappa     =  8.040000e-01 : Asymptotic value of the enhancement function
    Parameter  1 _mu        =  2.195150e-01 : Coefficient of the 2nd order expansion
 Correlation Functional Correlation     .... No Correlation
 Gradients option       PostSCFGGA      .... off


General Settings:
 Integral files         IntName         .... /cluster/projects/nn14654k/ylvaos/basis_set_n_funcs/functionals/gga_x_pbe/CH3COOH/inp/CH3COOH_gga_x_pbe_pcseg4
 Hartree-Fock type      HFTyp           .... RHF
 Total Charge           Charge          ....    0
 Multiplicity           Mult            ....    1
 Number of Electrons    NEL             ....   32
 Basis Dimension        Dim             ....  648
 Nuclear Repulsion      ENuc            ....    120.6932885046 Eh

Convergence Acceleration:
 AO-DIIS                CNVDIIS         .... on
   Start iteration      DIISMaxIt       ....    12
   Startup error        DIISStart       ....  0.200000
   # of expansion vecs  DIISMaxEq       ....     5
   Bias factor          DIISBfac        ....   1.050
   Max. coefficient     DIISMaxC        ....  10.000
 MO-DIIS                CNVKDIIS        .... off
 Trust-Rad. Augm. Hess. CNVTRAH         .... auto
   Auto Start mean grad. ratio tolernc. ....  1.125000
   Auto Start start iteration           ....    50
   Auto Start num. interpolation iter.  ....    10
   Max. Number of Micro iterations      ....    24
   Max. Number of Macro iterations      .... Maxiter - #DIIS iter
   Number of Davidson start vectors     ....     2
   Converg. threshold    (grad. norm)   ....   1.000e-05
   Grad. Scal. Fac. for Micro threshold ....   0.100
   Minimum threshold for Micro iter.    ....   1.000e-02
   NR start threshold (gradient norm)   ....   1.000e-04
   Initial trust radius                 ....   0.400
   Minimum AH scaling param. (alpha)    ....   1.000
   Maximum AH scaling param. (alpha)    .... 1000.000
   Quad. conv. algorithm                .... NR
   White noise on init. David. guess    .... on
   Maximum white noise                  ....   0.010
   Pseudo random numbers                .... off
   Inactive MOs                         .... canonical
   Orbital update algorithm             .... Taylor
   Preconditioner                       .... Diag
   Full preconditioner red. dimension   ....   250
 SOSCF                 CNVSOSCF           .... on
   Start iteration     SOSCFMaxIt         ....   150
   Startup grad/error  SOSCFStart         ....  0.003300
   Hessian update      SOSCFHessUp        .... L-BFGS
   Autom. constraints  SOSCFAutoConstrain .... off
 Level Shifting         CNVShift        .... on
   Level shift para.    LevelShift      ....    0.2500
   Turn off err/grad.   ShiftErr        ....    0.0010
 Zerner damping         CNVZerner       .... off
 Static damping         CNVDamp         .... on
   Fraction old density DampFac         ....    0.7000
   Max. Damping (<1)    DampMax         ....    0.9800
   Min. Damping (>=0)   DampMin         ....    0.0000
   Turn off err/grad.   DampErr         ....    0.1000

SCF Procedure:
 Maximum # iterations   MaxIter         ....   125
 SCF integral mode      SCFMode         .... Direct
   Integral package                     .... SHARK and LIBINT hybrid scheme
 Reset frequency        DirectResetFreq ....    20
 Integral Threshold     Thresh          ....  1.000e-12 Eh
 Primitive CutOff       TCut            ....  1.000e-13 Eh

Convergence Tolerance:
 Convergence Check Mode ConvCheckMode   .... Total+1el-Energy
 Convergence forced     ConvForced      .... 0
 Energy Change          TolE            ....  1.000e-08 Eh
 1-El. energy change                    ....  1.000e-05 Eh
 Orbital Gradient       TolG            ....  1.000e-05
 Orbital Rotation angle TolX            ....  1.000e-05
 DIIS Error             TolErr          ....  5.000e-07

------------------------------
INITIAL GUESS: MODEL POTENTIAL
------------------------------
Loading Hartree-Fock densities                     ... done
Calculating cut-offs                               ... done
Initializing the effective Hamiltonian             ... done
Setting up the integral package (SHARK)            ... done
Starting the Coulomb interaction                   ... done (   0.1 sec)
Making the grid                                    ... done (   0.1 sec)
Mapping shells                                     ... done
Starting the XC term evaluation                    ... done (   0.1 sec)
  promolecular density results
     # of electrons  =     31.997033092
     EX              =    -27.693400348
     EC              =      0.000000000
     EX+EC           =    -27.693400348
Transforming the Hamiltonian                       ... done (   0.0 sec)
Diagonalizing the Hamiltonian                      ... done (   0.0 sec)
Back transforming the eigenvectors                 ... done (   0.0 sec)
Now organizing SCF variables                       ... done
                      ------------------
                      INITIAL GUESS DONE (   0.3 sec)
                      ------------------
             **** ENERGY FILE WAS UPDATED (/cluster/projects/nn14654k/ylvaos/basis_set_n_funcs/functionals/gga_x_pbe/CH3COOH/inp/CH3COOH_gga_x_pbe_pcseg4.en.tmp) ****
Finished Guess after   0.5 sec
Maximum memory used throughout the entire GUESS-calculation: 49.5 MB


           ************************************************************
           *        Program running with 8 parallel MPI-processes     *
           *              working on a common directory               *
           ************************************************************

-------------------------------------------------------------------------------------------
                                      ORCA LEAN-SCF
                              memory conserving SCF solver
-------------------------------------------------------------------------------------------

----------------------------------------D-I-I-S--------------------------------------------
Iteration    Energy (Eh)           Delta-E    RMSDP     MaxDP     DIISErr   Damp  Time(sec)
-------------------------------------------------------------------------------------------
               ***  Starting incremental Fock matrix formation  ***
    1    -227.7098518057908905     0.00e+00  1.50e-03  5.33e-02  2.93e-01  0.700  38.7
    2    -227.8041118992904899    -9.43e-02  1.00e-03  3.14e-02  8.61e-02  0.700  35.5
                               ***Turning on AO-DIIS***
    3    -227.8277810901128646    -2.37e-02  5.51e-04  1.97e-02  3.09e-02  0.700  36.5
    4    -227.8456135737342265    -1.78e-02  1.19e-03  4.46e-02  2.24e-02  0.000  34.7
    5    -227.8883977428558296    -4.28e-02  3.44e-04  1.28e-02  1.36e-02  0.000  35.4
    6    -227.8889156686380488    -5.18e-04  2.45e-04  9.56e-03  4.28e-03  0.000  33.2
                              *** Initializing SOSCF ***
---------------------------------------S-O-S-C-F--------------------------------------
Iteration    Energy (Eh)           Delta-E    RMSDP     MaxDP     MaxGrad    Time(sec)
--------------------------------------------------------------------------------------
    7    -227.8889590237868106    -4.34e-05  1.62e-04  6.76e-03  2.24e-03    32.2
               *** Restarting incremental Fock matrix formation ***
    8    -227.8889711307564880    -1.21e-05  1.90e-04  8.20e-03  1.90e-04    37.9
    9    -227.8889693039279223     1.83e-06  7.46e-05  3.35e-03  6.46e-04    28.8
   10    -227.8889724128562193    -3.11e-06  8.25e-05  3.55e-03  1.79e-04    27.8
   11    -227.8889722549593557     1.58e-07  5.55e-06  1.85e-04  1.74e-04    27.5
   12    -227.8889727014441178    -4.46e-07  3.09e-05  1.32e-03  4.03e-05    24.5
   13    -227.8889726934684177     7.98e-09  8.68e-06  3.64e-04  3.15e-05    25.1
                 **** Energy Check signals convergence ****

               *****************************************************
               *                     SUCCESS                       *
               *           SCF CONVERGED AFTER  13 CYCLES          *
               *****************************************************

             **** ENERGY FILE WAS UPDATED (/cluster/projects/nn14654k/ylvaos/basis_set_n_funcs/functionals/gga_x_pbe/CH3COOH/inp/CH3COOH_gga_x_pbe_pcseg4.en.tmp) ****

----------------
TOTAL SCF ENERGY
----------------

Total Energy       :       -227.88897273718851 Eh           -6201.17421 eV

Components:
Nuclear Repulsion  :        120.69328850461517 Eh            3284.23135 eV
Electronic Energy  :       -348.58226124180374 Eh           -9485.40556 eV
One Electron Energy:       -550.79134450573349 Eh          -14987.79445 eV
Two Electron Energy:        202.20908326392978 Eh            5502.38889 eV

Virial components:
Potential Energy   :       -456.03514957934163 Eh          -12409.34730 eV
Kinetic Energy     :        228.14617684215312 Eh            6208.17309 eV
Virial Ratio       :          1.99887263460416

DFT components:
N(Alpha)           :       16.000021349575 electrons
N(Beta)            :       16.000021349575 electrons
N(Total)           :       32.000042699150 electrons
E(X)               :      -28.156255719109 Eh       
E(C)               :        0.000000000000 Eh       
E(XC)              :      -28.156255719109 Eh       

---------------
SCF CONVERGENCE
---------------

  Last Energy change         ...   -7.9757e-09  Tolerance :   1.0000e-08
  Last MAX-Density change    ...    3.6401e-04  Tolerance :   1.0000e-07
  Last RMS-Density change    ...    8.6833e-06  Tolerance :   5.0000e-09
  Last DIIS Error            ...    2.2419e-03  Tolerance :   5.0000e-07
  Last Orbital Gradient      ...    3.1546e-05  Tolerance :   1.0000e-05
  Last Orbital Rotation      ...    7.4737e-05  Tolerance :   1.0000e-05


----------------
ORBITAL ENERGIES
----------------

  NO   OCC          E(Eh)            E(eV) 
   0   2.0000     -18.784397      -511.1494 
   1   2.0000     -18.726808      -509.5823 
   2   2.0000     -10.000664      -272.1319 
   3   2.0000      -9.886005      -269.0119 
   4   2.0000      -0.981298       -26.7025 
   5   2.0000      -0.895513       -24.3681 
   6   2.0000      -0.659962       -17.9585 
   7   2.0000      -0.522291       -14.2122 
   8   2.0000      -0.408474       -11.1151 
   9   2.0000      -0.394236       -10.7277 
  10   2.0000      -0.393311       -10.7025 
  11   2.0000      -0.339594        -9.2408 
  12   2.0000      -0.320895        -8.7320 
  13   2.0000      -0.320348        -8.7171 
  14   2.0000      -0.254252        -6.9185 
  15   2.0000      -0.207088        -5.6351 
  16   0.0000      -0.018076        -0.4919 
  17   0.0000      -0.013328        -0.3627 
  18   0.0000       0.006604         0.1797 
  19   0.0000       0.032645         0.8883 
  20   0.0000       0.033791         0.9195 
  21   0.0000       0.042222         1.1489 
  22   0.0000       0.059440         1.6174 
  23   0.0000       0.065939         1.7943 
  24   0.0000       0.069940         1.9032 
  25   0.0000       0.071664         1.9501 
  26   0.0000       0.107631         2.9288 
*Only the first 10 virtual orbitals were printed.

                    ********************************
                    * MULLIKEN POPULATION ANALYSIS *
                    ********************************

-----------------------
MULLIKEN ATOMIC CHARGES
-----------------------
   0 C :    0.700357
   1 C :   -0.195164
   2 O :   -0.636385
   3 O :   -0.637727
   4 H :    0.367179
   5 H :    0.167850
   6 H :    0.116945
   7 H :    0.116946
Sum of atomic charges:   -0.0000000

--------------------------------
MULLIKEN REDUCED ORBITAL CHARGES
--------------------------------
  0 C s       :     3.186004  s :     3.186004
      pz      :     0.725299  p :     1.849704
      px      :     0.617997
      py      :     0.506407
      dz2     :     0.021261  d :     0.250052
      dxz     :     0.030575
      dyz     :     0.057569
      dx2y2   :     0.041929
      dxy     :     0.098718
      f0      :    -0.000329  f :     0.011195
      f+1     :    -0.000074
      f-1     :    -0.000462
      f+2     :     0.002682
      f-2     :     0.001947
      f+3     :     0.002560
      f-3     :     0.004872
      g0      :     0.000132  g :     0.002514
      g+1     :     0.000205
      g-1     :     0.000252
      g+2     :     0.000165
      g-2     :     0.000219
      g+3     :     0.000079
      g-3     :     0.000205
      g+4     :     0.000433
      g-4     :     0.000823
      h0      :     0.000004  h :     0.000175
      h+1     :     0.000006
      h-1     :     0.000012
      h+2     :     0.000011
      h-2     :     0.000005
      h+3     :     0.000007
      h-3     :     0.000018
      h+4     :     0.000009
      h-4     :     0.000011
      h+5     :     0.000044
      h-5     :     0.000048

  1 C s       :     3.169629  s :     3.169629
      pz      :     0.996068  p :     2.963014
      px      :     0.959194
      py      :     1.007753
      dz2     :     0.011688  d :     0.055210
      dxz     :     0.000676
      dyz     :     0.015343
      dx2y2   :     0.007229
      dxy     :     0.020273
      f0      :     0.001173  f :     0.007546
      f+1     :     0.001413
      f-1     :     0.002267
      f+2     :     0.000272
      f-2     :     0.000270
      f+3     :     0.000273
      f-3     :     0.001878
      g0      :    -0.000067  g :    -0.000229
      g+1     :     0.000026
      g-1     :    -0.000116
      g+2     :     0.000057
      g-2     :    -0.000086
      g+3     :     0.000028
      g-3     :    -0.000012
      g+4     :    -0.000003
      g-4     :    -0.000056
      h0      :    -0.000001  h :    -0.000006
      h+1     :    -0.000001
      h-1     :     0.000001
      h+2     :    -0.000006
      h-2     :     0.000002
      h+3     :     0.000000
      h-3     :    -0.000005
      h+4     :     0.000000
      h-4     :     0.000000
      h+5     :     0.000002
      h-5     :    -0.000000

  2 O s       :     3.921705  s :     3.921705
      pz      :     1.413947  p :     4.663805
      px      :     1.819628
      py      :     1.430230
      dz2     :     0.003097  d :     0.043693
      dxz     :     0.000739
      dyz     :     0.019012
      dx2y2   :     0.007133
      dxy     :     0.013712
      f0      :     0.001117  f :     0.006475
      f+1     :     0.000175
      f-1     :     0.000385
      f+2     :     0.001699
      f-2     :     0.000220
      f+3     :     0.001681
      f-3     :     0.001199
      g0      :     0.000027  g :     0.000658
      g+1     :     0.000004
      g-1     :     0.000141
      g+2     :     0.000057
      g-2     :     0.000038
      g+3     :     0.000019
      g-3     :     0.000086
      g+4     :     0.000122
      g-4     :     0.000163
      h0      :     0.000004  h :     0.000050
      h+1     :     0.000000
      h-1     :     0.000004
      h+2     :     0.000007
      h-2     :     0.000001
      h+3     :     0.000003
      h-3     :     0.000004
      h+4     :     0.000004
      h-4     :     0.000002
      h+5     :     0.000011
      h-5     :     0.000009

  3 O s       :     3.910800  s :     3.910800
      pz      :     1.743157  p :     4.671810
      px      :     1.336773
      py      :     1.591880
      dz2     :     0.006492  d :     0.048564
      dxz     :     0.007192
      dyz     :     0.004544
      dx2y2   :     0.013969
      dxy     :     0.016367
      f0      :     0.000916  f :     0.006044
      f+1     :     0.000821
      f-1     :     0.000663
      f+2     :     0.000408
      f-2     :     0.000627
      f+3     :     0.002021
      f-3     :     0.000589
      g0      :     0.000032  g :     0.000481
      g+1     :     0.000046
      g-1     :     0.000019
      g+2     :     0.000039
      g-2     :     0.000058
      g+3     :     0.000007
      g-3     :     0.000045
      g+4     :     0.000121
      g-4     :     0.000114
      h0      :     0.000002  h :     0.000028
      h+1     :     0.000003
      h-1     :     0.000001
      h+2     :     0.000001
      h-2     :     0.000001
      h+3     :     0.000000
      h-3     :     0.000003
      h+4     :     0.000000
      h-4     :     0.000002
      h+5     :     0.000007
      h-5     :     0.000008

  4 H s       :     0.559463  s :     0.559463
      pz      :     0.033943  p :     0.063073
      px      :     0.008766
      py      :     0.020363
      dz2     :    -0.000008  d :     0.009001
      dxz     :     0.001713
      dyz     :     0.003378
      dx2y2   :     0.002818
      dxy     :     0.001100
      f0      :     0.000204  f :     0.001246
      f+1     :    -0.000045
      f-1     :     0.000032
      f+2     :     0.000020
      f-2     :     0.000431
      f+3     :     0.000148
      f-3     :     0.000455
      g0      :     0.000003  g :     0.000038
      g+1     :     0.000003
      g-1     :     0.000004
      g+2     :     0.000001
      g-2     :     0.000006
      g+3     :     0.000003
      g-3     :     0.000001
      g+4     :     0.000010
      g-4     :     0.000007

  5 H s       :     0.787343  s :     0.787343
      pz      :     0.017496  p :     0.035395
      px      :     0.006952
      py      :     0.010947
      dz2     :    -0.000077  d :     0.008028
      dxz     :     0.002895
      dyz     :     0.001279
      dx2y2   :     0.002967
      dxy     :     0.000964
      f0      :     0.000237  f :     0.001376
      f+1     :     0.000014
      f-1     :     0.000012
      f+2     :     0.000123
      f-2     :     0.000304
      f+3     :     0.000634
      f-3     :     0.000051
      g0      :     0.000000  g :     0.000008
      g+1     :     0.000002
      g-1     :     0.000000
      g+2     :     0.000000
      g-2     :     0.000000
      g+3     :     0.000000
      g-3     :     0.000001
      g+4     :     0.000003
      g-4     :     0.000001

  6 H s       :     0.825406  s :     0.825406
      pz      :     0.010607  p :     0.046696
      px      :     0.020750
      py      :     0.015339
      dz2     :     0.002988  d :     0.009580
      dxz     :     0.002922
      dyz     :     0.000170
      dx2y2   :     0.001261
      dxy     :     0.002241
      f0      :     0.000502  f :     0.001364
      f+1     :     0.000140
      f-1     :     0.000020
      f+2     :     0.000111
      f-2     :     0.000417
      f+3     :     0.000113
      f-3     :     0.000063
      g0      :     0.000001  g :     0.000008
      g+1     :     0.000000
      g-1     :     0.000002
      g+2     :     0.000001
      g-2     :     0.000002
      g+3     :     0.000001
      g-3     :     0.000001
      g+4     :     0.000000
      g-4     :     0.000000

  7 H s       :     0.825406  s :     0.825406
      pz      :     0.010607  p :     0.046696
      px      :     0.020750
      py      :     0.015339
      dz2     :     0.002988  d :     0.009580
      dxz     :     0.002922
      dyz     :     0.000170
      dx2y2   :     0.001261
      dxy     :     0.002241
      f0      :     0.000502  f :     0.001364
      f+1     :     0.000140
      f-1     :     0.000020
      f+2     :     0.000111
      f-2     :     0.000417
      f+3     :     0.000113
      f-3     :     0.000063
      g0      :     0.000001  g :     0.000008
      g+1     :     0.000000
      g-1     :     0.000002
      g+2     :     0.000001
      g-2     :     0.000002
      g+3     :     0.000001
      g-3     :     0.000001
      g+4     :     0.000000
      g-4     :     0.000000



                     *******************************
                     * LOEWDIN POPULATION ANALYSIS *
                     *******************************

----------------------
LOEWDIN ATOMIC CHARGES
----------------------
   0 C :   -0.804379
   1 C :    0.611947
   2 O :    0.448347
   3 O :    0.969163
   4 H :   -0.635928
   5 H :   -0.200918
   6 H :   -0.194116
   7 H :   -0.194116

-------------------------------
LOEWDIN REDUCED ORBITAL CHARGES
-------------------------------
  0 C s       :     2.488890  s :     2.488890
      pz      :     0.611454  p :     2.386173
      px      :     0.801310
      py      :     0.973409
      dz2     :     0.115033  d :     1.425576
      dxz     :     0.158106
      dyz     :     0.254794
      dx2y2   :     0.409602
      dxy     :     0.488041
      f0      :     0.023792  f :     0.433664
      f+1     :     0.020999
      f-1     :     0.029961
      f+2     :     0.061004
      f-2     :     0.038535
      f+3     :     0.161865
      f-3     :     0.097508
      g0      :     0.001975  g :     0.065381
      g+1     :     0.005262
      g-1     :     0.010860
      g+2     :     0.005444
      g-2     :     0.006687
      g+3     :     0.001087
      g-3     :     0.005775
      g+4     :     0.013686
      g-4     :     0.014605
      h0      :     0.000172  h :     0.004694
      h+1     :     0.000103
      h-1     :     0.000204
      h+2     :     0.000561
      h-2     :     0.000147
      h+3     :     0.000289
      h-3     :     0.000253
      h+4     :     0.000265
      h-4     :     0.000259
      h+5     :     0.001281
      h-5     :     0.001160

  1 C s       :     2.403395  s :     2.403395
      pz      :     0.802428  p :     2.393743
      px      :     0.793461
      py      :     0.797854
      dz2     :     0.085291  d :     0.482184
      dxz     :     0.034186
      dyz     :     0.119620
      dx2y2   :     0.118925
      dxy     :     0.124161
      f0      :     0.006690  f :     0.098704
      f+1     :     0.011530
      f-1     :     0.016491
      f+2     :     0.009995
      f-2     :     0.011330
      f+3     :     0.019739
      f-3     :     0.022930
      g0      :     0.000598  g :     0.009659
      g+1     :     0.000535
      g-1     :     0.001205
      g+2     :     0.001285
      g-2     :     0.000995
      g+3     :     0.000521
      g-3     :     0.000668
      g+4     :     0.001531
      g-4     :     0.002321
      h0      :     0.000040  h :     0.000368
      h+1     :     0.000017
      h-1     :     0.000029
      h+2     :     0.000035
      h-2     :     0.000023
      h+3     :     0.000025
      h-3     :     0.000053
      h+4     :     0.000018
      h-4     :     0.000009
      h+5     :     0.000060
      h-5     :     0.000060

  2 O s       :     3.175183  s :     3.175183
      pz      :     1.198602  p :     4.113827
      px      :     1.445354
      py      :     1.469871
      dz2     :     0.023443  d :     0.194269
      dxz     :     0.003532
      dyz     :     0.035145
      dx2y2   :     0.059654
      dxy     :     0.072496
      f0      :     0.005679  f :     0.061923
      f+1     :     0.002237
      f-1     :     0.007013
      f+2     :     0.008964
      f-2     :     0.001902
      f+3     :     0.021868
      f-3     :     0.014261
      g0      :     0.000257  g :     0.005852
      g+1     :     0.000021
      g-1     :     0.000853
      g+2     :     0.000545
      g-2     :     0.000367
      g+3     :     0.000133
      g-3     :     0.000547
      g+4     :     0.001296
      g-4     :     0.001833
      h0      :     0.000038  h :     0.000598
      h+1     :     0.000007
      h-1     :     0.000044
      h+2     :     0.000062
      h-2     :     0.000005
      h+3     :     0.000053
      h-3     :     0.000049
      h+4     :     0.000032
      h-4     :     0.000013
      h+5     :     0.000170
      h-5     :     0.000128

  3 O s       :     2.925401  s :     2.925401
      pz      :     1.298271  p :     3.793757
      px      :     1.158205
      py      :     1.337282
      dz2     :     0.030275  d :     0.246331
      dxz     :     0.035704
      dyz     :     0.013020
      dx2y2   :     0.071197
      dxy     :     0.096135
      f0      :     0.005207  f :     0.061853
      f+1     :     0.006400
      f-1     :     0.003056
      f+2     :     0.002594
      f-2     :     0.007159
      f+3     :     0.026483
      f-3     :     0.010954
      g0      :     0.000182  g :     0.003216
      g+1     :     0.000373
      g-1     :     0.000105
      g+2     :     0.000250
      g-2     :     0.000516
      g+3     :     0.000025
      g-3     :     0.000359
      g+4     :     0.001066
      g-4     :     0.000339
      h0      :     0.000020  h :     0.000279
      h+1     :     0.000018
      h-1     :     0.000008
      h+2     :     0.000014
      h-2     :     0.000022
      h+3     :     0.000037
      h-3     :     0.000024
      h+4     :     0.000004
      h-4     :     0.000013
      h+5     :     0.000069
      h-5     :     0.000051

  4 H s       :     0.645653  s :     0.645653
      pz      :     0.139877  p :     0.523506
      px      :     0.156622
      py      :     0.227007
      dz2     :     0.034528  d :     0.373735
      dxz     :     0.049862
      dyz     :     0.069679
      dx2y2   :     0.128372
      dxy     :     0.091295
      f0      :     0.013186  f :     0.091159
      f+1     :     0.004446
      f-1     :     0.004985
      f+2     :     0.000706
      f-2     :     0.022610
      f+3     :     0.020432
      f-3     :     0.024794
      g0      :     0.000075  g :     0.001875
      g+1     :     0.000167
      g-1     :     0.000233
      g+2     :     0.000081
      g-2     :     0.000168
      g+3     :     0.000229
      g-3     :     0.000085
      g+4     :     0.000327
      g-4     :     0.000510

  5 H s       :     0.710422  s :     0.710422
      pz      :     0.076751  p :     0.273820
      px      :     0.115731
      py      :     0.081338
      dz2     :     0.012496  d :     0.184012
      dxz     :     0.048155
      dyz     :     0.021524
      dx2y2   :     0.051770
      dxy     :     0.050067
      f0      :     0.004220  f :     0.032372
      f+1     :     0.003454
      f-1     :     0.001005
      f+2     :     0.001658
      f-2     :     0.005511
      f+3     :     0.009976
      f-3     :     0.006547
      g0      :     0.000013  g :     0.000291
      g+1     :     0.000045
      g-1     :     0.000014
      g+2     :     0.000021
      g-2     :     0.000021
      g+3     :     0.000001
      g-3     :     0.000044
      g+4     :     0.000084
      g-4     :     0.000048

  6 H s       :     0.701504  s :     0.701504
      pz      :     0.110589  p :     0.278468
      px      :     0.073083
      py      :     0.094796
      dz2     :     0.061797  d :     0.181841
      dxz     :     0.034081
      dyz     :     0.037821
      dx2y2   :     0.016501
      dxy     :     0.031641
      f0      :     0.009058  f :     0.032019
      f+1     :     0.002255
      f-1     :     0.006441
      f+2     :     0.004784
      f-2     :     0.006721
      f+3     :     0.001799
      f-3     :     0.000961
      g0      :     0.000047  g :     0.000284
      g+1     :     0.000007
      g-1     :     0.000072
      g+2     :     0.000043
      g-2     :     0.000051
      g+3     :     0.000032
      g-3     :     0.000024
      g+4     :     0.000003
      g-4     :     0.000004

  7 H s       :     0.701504  s :     0.701504
      pz      :     0.110589  p :     0.278468
      px      :     0.073083
      py      :     0.094796
      dz2     :     0.061797  d :     0.181841
      dxz     :     0.034081
      dyz     :     0.037821
      dx2y2   :     0.016501
      dxy     :     0.031641
      f0      :     0.009058  f :     0.032019
      f+1     :     0.002255
      f-1     :     0.006441
      f+2     :     0.004784
      f-2     :     0.006721
      f+3     :     0.001799
      f-3     :     0.000961
      g0      :     0.000047  g :     0.000284
      g+1     :     0.000007
      g-1     :     0.000072
      g+2     :     0.000043
      g-2     :     0.000051
      g+3     :     0.000032
      g-3     :     0.000024
      g+4     :     0.000003
      g-4     :     0.000004



                      *****************************
                      * MAYER POPULATION ANALYSIS *
                      *****************************

  NA   - Mulliken gross atomic population
  ZA   - Total nuclear charge
  QA   - Mulliken gross atomic charge
  VA   - Mayer's total valence
  BVA  - Mayer's bonded valence
  FA   - Mayer's free valence

  ATOM       NA         ZA         QA         VA         BVA        FA
  0 C      5.2996     6.0000     0.7004     4.0730     4.0730    -0.0000
  1 C      6.1952     6.0000    -0.1952     3.8976     3.8976    -0.0000
  2 O      8.6364     8.0000    -0.6364     1.7232     1.7232     0.0000
  3 O      8.6377     8.0000    -0.6377     1.9440     1.9440     0.0000
  4 H      0.6328     1.0000     0.3672     0.9053     0.9053    -0.0000
  5 H      0.8322     1.0000     0.1678     0.9819     0.9819    -0.0000
  6 H      0.8831     1.0000     0.1169     1.0284     1.0284     0.0000
  7 H      0.8831     1.0000     0.1169     1.0284     1.0284     0.0000

  Mayer bond orders larger than 0.100000
B(  0-C ,  1-C ) :   1.2322 B(  0-C ,  2-O ) :   1.6374 B(  0-C ,  3-O ) :   1.0595 
B(  1-C ,  5-H ) :   0.9354 B(  1-C ,  6-H ) :   0.9158 B(  1-C ,  7-H ) :   0.9158 
B(  3-O ,  4-H ) :   0.8404 

-------
TIMINGS
-------

Total SCF time: 0 days 0 hours 7 min 21 sec 

Total time                  ....     441.744 sec
Sum of individual times     ....     418.207 sec  ( 94.7%)

SCF preparation             ....       0.188 sec  (  0.0%)
Fock matrix formation       ....     415.470 sec  ( 94.1%)
  Startup                   ....       0.052 sec  (  0.0% of F)
  Coulomb formation         ....     432.517 sec  (104.1% of F)
  XC integration            ....       5.589 sec  (  1.3% of F)
    XC Preparation          ....       0.000 sec  (  0.0% of XC)
    Basis function eval.    ....       0.408 sec  (  7.3% of XC)
    Density eval.           ....       1.035 sec  ( 18.5% of XC)
    XC-Functional eval.     ....       0.024 sec  (  0.4% of XC)
    XC-Potential eval.      ....       2.453 sec  ( 43.9% of XC)
Diagonalization             ....       0.000 sec  (  0.0%)
Density matrix formation    ....       0.282 sec  (  0.1%)
Total Energy calculation    ....       0.097 sec  (  0.0%)
Population analysis         ....       0.086 sec  (  0.0%)
Orbital Transformation      ....       0.268 sec  (  0.1%)
Orbital Orthonormalization  ....       0.000 sec  (  0.0%)
DIIS solution               ....       1.168 sec  (  0.3%)
SOSCF solution              ....       0.647 sec  (  0.1%)
Finished LeanSCF after 441.9 sec

Maximum memory used throughout the entire LEANSCF-calculation: 94.7 MB


           ************************************************************
           *        Program running with 8 parallel MPI-processes     *
           *              working on a common directory               *
           ************************************************************

------------------------------------------------------------------------------
                         ORCA PROPERTY INTEGRAL CALCULATIONS
------------------------------------------------------------------------------

GBWName                                   ... /cluster/projects/nn14654k/ylvaos/basis_set_n_funcs/functionals/gga_x_pbe/CH3COOH/inp/CH3COOH_gga_x_pbe_pcseg4.gbw
Number of atoms                           ...      8
Number of basis functions                 ...    648
Max core memory                           ...   4096 MB

Dipole integrals                          ... YES
Quadrupole integrals                      ... YES
Linear momentum integrals                 ...  NO
Angular momentum integrals                ...  NO
Higher moments length integrals           ...  NO
Higher moments velocity integrals         ...  NO
Kinetic energy integrals                  ...  NO
GIAO right hand sides                     ...  NO
GIAO dipole derivative integrals          ...  NO
SOC integrals                             ...  NO
EPR diamagnetic integrals (GIAO)          ...  NO
EPR gauge integrals                       ...  NO
Field gradient integrals                  ...  NO (   0 nuclei)
Spin-dipole/Fermi contact integrals       ...  NO (   0 nuclei)
Contact density integrals                 ...  NO (   0 nuclei)
Nucleus-orbit integrals                   ...  NO (   0 nuclei)
Geometric perturbations                   ...  NO (   8 nuclei)

Choice of electric origin   ... Center of mass
Position of electric origin ... ( -0.0657,  0.0975,  0.0000) 
Choice of magnetic origin   ... GIAO
Position of magnetic origin ... (  0.0000,  0.0000,  0.0000) 

Calculating integrals                     ... Electric Dipole (Length)     done (  0.0 sec)
Calculating integrals                     ... Electric Quadrupole (Length) done (  0.0 sec)

Property integrals calculated in   0.1 sec

Maximum memory used throughout the entire PROPINT-calculation: 57.4 MB
------------------------------------------------------------------------------
                           ORCA ORBITAL LOCALIZATION
------------------------------------------------------------------------------

Input orbitals are from                  ... /cluster/projects/nn14654k/ylvaos/basis_set_n_funcs/functionals/gga_x_pbe/CH3COOH/inp/CH3COOH_gga_x_pbe_pcseg4.gbw
Output orbitals are to                   ... /cluster/projects/nn14654k/ylvaos/basis_set_n_funcs/functionals/gga_x_pbe/CH3COOH/inp/CH3COOH_gga_x_pbe_pcseg4.loc
Max. number of iterations                ... 128
Localizations seeded randomly            ... on
Convergence tolerance                    ... 1.000e-06
Threshold for strong local MOs           ... 9.500e-01
Threshold for bond MOs                   ... 8.500e-01
Operator                                 ... 0
Orbital range for localization           ... 4 to 15
Localization criterion                   ... NEW-BOYS
Doing the dipole integrals               ... o.k.
Initial value of the localization sum :    64.916104
ITERATION   0 : L=   80.2600001349 DL=  1.53e+01 (AVERGE_DL)=    0.4821652008 
ITERATION   1 : L=   81.4175487307 DL=  1.16e+00 (AVERGE_DL)=    0.1324334364 
ITERATION   2 : L=   81.4527229411 DL=  3.52e-02 (AVERGE_DL)=    0.0230855492 
ITERATION   3 : L=   81.4569664291 DL=  4.24e-03 (AVERGE_DL)=    0.0080184333 
ITERATION   4 : L=   81.4580871610 DL=  1.12e-03 (AVERGE_DL)=    0.0041207750 
ITERATION   5 : L=   81.4586451231 DL=  5.58e-04 (AVERGE_DL)=    0.0029075712 
ITERATION   6 : L=   81.4590165144 DL=  3.71e-04 (AVERGE_DL)=    0.0023721594 
ITERATION   7 : L=   81.4592752364 DL=  2.59e-04 (AVERGE_DL)=    0.0019799068 
ITERATION   8 : L=   81.4594534902 DL=  1.78e-04 (AVERGE_DL)=    0.0016434156 
ITERATION   9 : L=   81.4595738812 DL=  1.20e-04 (AVERGE_DL)=    0.0013505950 
ITERATION  10 : L=   81.4596537960 DL=  7.99e-05 (AVERGE_DL)=    0.0011003770 
ITERATION  11 : L=   81.4597061225 DL=  5.23e-05 (AVERGE_DL)=    0.0008904083 
ITERATION  12 : L=   81.4597400265 DL=  3.39e-05 (AVERGE_DL)=    0.0007167259 
ITERATION  13 : L=   81.4597618189 DL=  2.18e-05 (AVERGE_DL)=    0.0005746196 
ITERATION  14 : L=   81.4597757404 DL=  1.39e-05 (AVERGE_DL)=    0.0004592741 
ITERATION  15 : L=   81.4597845920 DL=  8.85e-06 (AVERGE_DL)=    0.0003662164 
ITERATION  16 : L=   81.4597901991 DL=  5.61e-06 (AVERGE_DL)=    0.0002914722 
ITERATION  17 : L=   81.4597937415 DL=  3.54e-06 (AVERGE_DL)=    0.0002316751 
ITERATION  18 : L=   81.4597959744 DL=  2.23e-06 (AVERGE_DL)=    0.0001839339 
ITERATION  19 : L=   81.4597973791 DL=  1.40e-06 (AVERGE_DL)=    0.0001458875 
ITERATION  20 : L=   81.4597982623 DL=  8.83e-07 (AVERGE_DL)=    0.0001156797 
LOCALIZATION SUM CONVERGED


--------------------------------------------------------------------------------
                    LOCALIZED MOLECULAR ORBITAL COMPOSITIONS
--------------------------------------------------------------------------------

The Mulliken populations for each LMO on each atom are computed
The LMO`s will be ordered according to atom index and type
  (A) Strongly localized MO`s have populations of >=0.950 on one atom
  (B) Two center bond orbitals have populations of >=0.850 on two atoms
  (C) Other MO`s are considered to be `delocalized`

FOUND  -   2 strongly local MO`s
       -  10 two center bond MO`s
       -   0 significantly delocalized MO`s

Rather strongly localized orbitals:
MO   5:   3O  -   0.976061
MO   4:   2O  -   0.961984
Bond-like localized orbitals:
MO  15:   7H  -   0.444194  and   1C  -   0.520931
MO  14:   6H  -   0.444188  and   1C  -   0.520932
MO  13:   5H  -   0.427203  and   1C  -   0.565541
MO  12:   4H  -   0.307103  and   3O  -   0.694640
MO  11:   3O  -   0.778607  and   0C  -   0.256768
MO  10:   3O  -   0.903440  and   0C  -   0.095559
MO   9:   2O  -   0.737744  and   0C  -   0.276734
MO   8:   2O  -   0.737798  and   0C  -   0.276442
MO   7:   2O  -   0.948065  and   0C  -   0.043714
MO   6:   1C  -   0.530146  and   0C  -   0.535544
Localized MO's were stored in: /cluster/projects/nn14654k/ylvaos/basis_set_n_funcs/functionals/gga_x_pbe/CH3COOH/inp/CH3COOH_gga_x_pbe_pcseg4.loc

-------------------------   --------------------
FINAL SINGLE POINT ENERGY      -227.888972737189
-------------------------   --------------------



           ************************************************************
           *        Program running with 8 parallel MPI-processes     *
           *              working on a common directory               *
           ************************************************************

------------------------------------------------------------------------------
                              ORCA PROPERTY CALCULATIONS
------------------------------------------------------------------------------

GBWName                                 ... /cluster/projects/nn14654k/ylvaos/basis_set_n_funcs/functionals/gga_x_pbe/CH3COOH/inp/CH3COOH_gga_x_pbe_pcseg4.gbw
Number of atoms                         ...      8
Number of basis functions               ...    648
Max core memory                         ...   4096 MB

Electric properties:
Dipole moment                           ... YES
Quadrupole moment                       ... YES
Static polarizability (Dipole/Dipole)   ...  NO
Static polarizability (Dipole/Quad.)    ...  NO
Static polarizability (Quad./Quad.)     ...  NO
Static polarizability (Velocity)        ...  NO
Static hyperpolarizability              ...  NO

Atomic electric properties:
Dipole moment                           ...  NO
Quadrupole moment                       ...  NO
Static polarizability                   ...  NO

Choice of electric origin               ... Center of mass
Position of electric origin             ...    -0.065707     0.097461     0.000000

General magnetic properties:
Magnetizability                         ...  NO

EPR properties:
g-Tensor (aka g-matrix)                 ...  NO
Zero-Field splitting spin-orbit         ...  NO
Zero-field splitting spin-spin          ...  NO
Hyperfine couplings                     ...  NO (   0 nuclei)
Quadrupole couplings                    ...  NO (   0 nuclei)
Contact density                         ...  NO (   0 nuclei)

NMR properties:
Chemical shifts                         ...  NO (   0 nuclei)
Spin-rotation constants                 ...  NO (   0 nuclei)
Spin-spin couplings                     ...  NO (   0 nuclei,    0 pairs)

Choice of magnetic origin               ... GIAO
Position of magnetic origin             ...     0.000000     0.000000     0.000000

Properties with geometric perturbations:
SCF Hessian                             ...  NO
IR spectrum                             ...  NO
VCD spectrum                            ...  NO
X-ray spectroscopy properties:
SCF XES/XAS/RIXS spectra                ...  NO

SCF SOC stabilization energy            ...  NO
Diagonal Born-Oppenheimer correction    ...  NO

-------------
DIPOLE MOMENT
-------------

Method             : SCF
Type of density    : Electron Density
Multiplicity       :   1
Irrep              :   0
Energy             :  -227.8889727371885101 Eh
Basis              : AO
                                X                 Y                 Z
Electronic contribution:     -2.198584783       2.437799678       0.000000003
Nuclear contribution   :      2.102617427      -3.118765285       0.000000000
                        -----------------------------------------
Total Dipole Moment    :     -0.095967356      -0.680965607       0.000000003
                        -----------------------------------------
Magnitude (a.u.)       :      0.687694621
Magnitude (Debye)      :      1.747980812



--------------------
Rotational spectrum 
--------------------
 
Rotational constants in cm-1:             0.373252             0.316126             0.176788 
Rotational constants in MHz :         11189.819630          9477.229268          5299.974115 

Dipole components along the rotational axes: 
x,y,z [a.u.] :    -0.369371    -0.580077     0.000000 
x,y,z [Debye]:    -0.938867    -1.474437     0.000000 

 

Dipole moment calculation done in   0.0 sec 

-----------------
QUADRUPOLE MOMENT
-----------------

Method             : SCF
Type of density    : Electron Density
Multiplicity       :   1
Irrep              :   0
Energy             :  -227.8889727371885101 Eh
Basis              : AO

                XX              YY              ZZ              XY              XZ              YZ
  NUC      103.447904006    93.335807526     5.552847104   -15.402641721     0.000000000     0.000000000
  EL      -119.360452637  -114.446179352   -23.422329271    12.821419860    -0.000000000     0.000000005
  TOT      -15.912548631   -21.110371826   -17.869482167    -2.581221860    -0.000000000     0.000000005 (a.u.)
           -21.402922118   -28.394172081   -24.035064651    -3.471831680    -0.000000000     0.000000007 (Buckingham)

diagonalized tensor:
           -22.174389082   -17.869482167   -14.848531375 (a.u.)
           -29.825311679   -24.035064651   -19.971782519 (Buckingham)
           -15.643776187     1.726964896    13.916811292 (traceless form in Buckingham)

             0.381105394    -0.000000001     0.924531599
             0.924531599    -0.000000001    -0.381105394
            -0.000000001    -1.000000000    -0.000000001
        
Isotropic quadrupole :   -18.297467541

Quadrupole moment calculation done in   0.0 sec (  0.0 sec for integrals)

Maximum memory used throughout the entire PROP-calculation: 54.3 MB

--------------------------------
SUGGESTED CITATIONS FOR THIS RUN
--------------------------------

Below you find a list of papers that are relevant to this ORCA run
We neither can nor want to force you to cite these papers, but we appreciate if you do
You receive ORCA, which is the product of decades of hard work by many enthusiastic individuals, for free
The only thing we kindly ask in return is that you cite our papers,
We deeply appreciate it, if you show your appreciation for ORCA by not just citing the generic ORCA reference.

Please note that relegating all ORCA citations to the supporting information does *not* help us.
SI sections are not indexed - citations you put there will not count into any citation statistics
But we need these citations in order to attract the funding resources that allow us to do what we are doing

Therefore, if you are a happy ORCA user, please consider citing a few of the papers listed below in the main body of your paper

In addition to the list printed below, the program has created the file /cluster/projects/nn14654k/ylvaos/basis_set_n_funcs/functionals/gga_x_pbe/CH3COOH/inp/CH3COOH_gga_x_pbe_pcseg4.bibtex that contains the list in bibtex format
You can import this file easily into all common literature databanks and citation aid programs

It goes without saying that in many instances, there are alternative algorithms to achieve similar
results as the ones you have gotten from ORCA. It is, of course, also the case that in some instances
ORCA just re-implements algorithms worked out by others. We are fully aware of that and we are also
fully appreciative of our colleagues work. Hence this citation list should not be read as indicating
that the listed papers, which are focused on our own work, are the only ones worth citing. It simply
meant to make it easier for users to cite ORCA specific papers. It is not a substitute for doing your
own literature research and citing the relevant literature in a scientifically appropriate manner.

List of essential papers. We consider these as the minimum necessary citations

  1. Neese, F.
     Software update: the ORCA program system, version 6.0
     WIRES Comput. Molec. Sci. 2025 15(1), e70019
     doi.org/10.1002/wcms.70019

List of papers to cite with high priority. The work reported in these papers was absolutely
necessary for this run to complete.
Our perspective: the developers of density functionals and basis sets usually get cited in chemistry papers
Good! But without the algorithms to do something with them, the functionals or basis sets would not do anything.
Hence, in our opinion, the algorithm design and method developments papers are equally worthy of getting cited

  1. Lehtola, S.; Steigemann, C.; Oliveira, M.; Marques, M.
     Recent developments in Libxc - A comprehensive library of functionals for density functional theory
     Software X 2018 7 , 
     doi.org/10.1016/j.softx.2017.11.002
  2. Neese, F.
     The SHARK Integral Generation and Digestion System
     J. Comp. Chem. 2022 44(3), 381
     doi.org/10.1002/jcc.26942

List of suggested additional citations. These are papers that are important in the 'surrounding' of 
of this run, or papers that preceded the highly important papers. If you like your results we are grateful for a citation.

  1. Neese, F.
     The ORCA program system
     WIRES Comput. Molec. Sci. 2012 2(1), 73-78
     doi.org/10.1002/wcms.81
  2. Neese, F.
     Software update: the ORCA program system, version 4.0
     WIRES Comput. Molec. Sci. 2018 8(1), 1-6
     doi.org/10.1002/wcms.1327
  3. Neese, F.; Wennmohs, F.; Becker, U.; Riplinger, C.
     The ORCA quantum chemistry program package
     J. Chem. Phys. 2020 152(22), 224108
     doi.org/10.1063/5.0004608
  4. Neese, F.
     Software update: The ORCA program system—Version 5.0
     WIRES Comput. Molec. Sci. 2022 12(1), e1606
     doi.org/10.1002/wcms.1606

List of optional additional citations

  1. Neese, F.
     Approximate second-order SCF convergence for spin unrestricted wavefunctions
     Chem. Phys. Lett. 2000 325(1-3), 93-98
     doi.org/10.1016/s0009-2614(00)00662-x

Timings for individual modules:

Sum of individual times          ...      444.686 sec (=   7.411 min)
Startup calculation              ...        1.082 sec (=   0.018 min)   0.2 %
SCF iterations                   ...      442.708 sec (=   7.378 min)  99.6 %
Property integrals               ...        0.431 sec (=   0.007 min)   0.1 %
Property calculations            ...        0.410 sec (=   0.007 min)   0.1 %
Orbital localization             ...        0.054 sec (=   0.001 min)   0.0 %
                             ****ORCA TERMINATED NORMALLY****
TOTAL RUN TIME: 0 days 0 hours 7 minutes 25 seconds 774 msec
