
                                 *****************
                                 * O   R   C   A *
                                 *****************

                                            #,                                       
                                            ###                                      
                                            ####                                     
                                            #####                                    
                                            ######                                   
                                           ########,                                 
                                     ,,################,,,,,                         
                               ,,#################################,,                 
                          ,,##########################################,,             
                       ,#########################################, ''#####,          
                    ,#############################################,,   '####,        
                  ,##################################################,,,,####,       
                ,###########''''           ''''###############################       
              ,#####''   ,,,,##########,,,,          '''####'''          '####       
            ,##' ,,,,###########################,,,                        '##       
           ' ,,###''''                  '''############,,,                           
         ,,##''                                '''############,,,,        ,,,,,,###''
      ,#''                                            '''#######################'''  
     '                                                          ''''####''''         
             ,#######,   #######,   ,#######,      ##                                
            ,#'     '#,  ##    ##  ,#'     '#,    #''#        ,####,    ,#,          
            ##       ##  ##   ,#'  ##            #'  '#       #'       ,# #          
            ##       ##  #######   ##           ,######,      #####,      #          
            '#,     ,#'  ##    ##  '#,     ,#' ,#      #,     #,   #      #          
             '#######'   ##     ##  '#######'  #'      '#     '####' #    #          



                #########################################################
                #                        -***-                          #
                #          Department of theory and spectroscopy        #
                #                                                       #
                #                      Frank Neese                      #
                #                                                       #
                #     Directorship, Architecture, Infrastructure        #
                #                    SHARK, DRIVERS                     #
                #        Core code/Algorithms in most modules           #
                #                                                       #
                #        Max Planck Institute fuer Kohlenforschung      #
                #                Kaiser Wilhelm Platz 1                 #
                #                 D-45470 Muelheim/Ruhr                 #
                #                      Germany                          #
                #                                                       #
                #                  All rights reserved                  #
                #                        -***-                          #
                #########################################################


                         Program Version 6.1.1  -  RELEASE   -
                                (GIT: $487d211c$)
                          ($2025-11-21 10:33:24 +0100$)


 With contributions from (in alphabetic order):
[Max-Planck-Institut fuer Kohlenforschung]                               
  Daniel Aravena         : Magnetic Suceptibility                        
  Michael Atanasov       : Ab Initio Ligand Field Theory (pilot matlab implementation)
  Alexander A. Auer      : GIAO ZORA, VPT2 properties, NMR spectrum      
  Ute Becker             : All parallelization in ORCA, NUMFREQ, NUMCALC 
  Giovanni Bistoni       : ED, misc. LED, open-shell LED, HFLD           
  Dmytro Bykov           : pre 5.0 version of the SCF Hessian            
  Marcos Casanova-Páez   : Triplet and SCS-CIS(D). UHF-(DLPNO)-IP/EA/STEOM-CCSD. UHF-CVS-IP/STEOM-CCSD   
  Vijay G. Chilkuri      : MRCI spin determinant printing, contributions to CSF-ICE 
  Pauline Colinet        : FMM embedding                                 
  Dipayan Datta          : RHF DLPNO-CCSD density                        
  Achintya Kumar Dutta   : EOM-CC, STEOM-CC                              
  Nicolas Foglia         : Exact transition moments, OPA infrastructure, MCD improvements    
  Dmitry Ganyushin       : Spin-Orbit,Spin-Spin,Magnetic field MRCI      
  Miquel Garcia-Rates    : C-PCM and meta-GGA Hessian, CCSD/C-PCM, Gaussian charge scheme 
  Tiago L. C. Gouveia    : GS-ROHF, GS-ROCIS                             
  Yang Guo               : DLPNO-NEVPT2, F12-NEVPT2, CIM, IAO-localization        
  Andreas Hansen         : Spin unrestricted coupled pair/coupled cluster methods 
  Ingolf Harden          : AUTO-CI MPn and infrastructure                
  Benjamin Helmich-Paris : MC-RPA, TRAH-(SCF,CASSCF), AVAS, COSX integrals, SCF dyn. polar., MC-PDFT, srDFT 
  Lee Huntington         : MR-EOM, pCC                                   
  Robert Izsak           : Overlap fitted RIJCOSX, COSX-SCS-MP3, EOM     
  Riya Kayal             : Wick's Theorem for AUTO-CI, AUTO-CI UHF-CCSDT 
  Emily Kempfer          : AUTO-CI RHF CISDT and CCSDT, approximate NEVPT4
  Christian Kollmar      : KDIIS, OOCD, Brueckner-CCSD(T), CCSD density, CASPT2, CASPT2-K, improved NEVPT2 
  Axel Koslowski         : Symmetry handling                             
  Simone Kossmann        : meta-GGA functionals, TD-DFT gradient, OOMP2, (MP2 Hessian; deprecated post 5.0) 
  Lucas Lang             : DCDCAS, Hyperfine gauge corrections, ICE-SOC+SSC
  Marvin Lechner         : AUTO-CI (C++ implementation), FIC-MRCC        
  Spencer Leger          : CASSCF response                               
  Dagmar Lenk            : GEPOL surface, SMD, ORCA-2-JSON               
  Dimitrios Liakos       : Extrapolation schemes; Compound Job, Property file
  Dimitrios Manganas     : Further ROCIS development; embedding schemes. LFT, Crystal Embedding 
  Dimitrios Pantazis     : SARC Basis sets                               
  Anastasios Papadopoulos: AUTO-CI, single reference methods and gradients 
  Taras Petrenko         : pre 6.0 DFT Hessian and TD-DFT gradient,  ECA, NRVS 
  Petra Pikulova         : Analytic Raman intensities                    
  Peter Pinski           : DLPNO-MP2, DLPNO-MP2 Gradient                 
  Shashank Vittal Rao    : ES-AILFT, MagRelax                            
  Christoph Reimann      : Effective Core Potentials                     
  Marius Retegan         : Local ZFS, SOC                                
  Christoph Riplinger    : Optimizer, TS searches, QM/MM, DLPNO-CCSD(T), (RO)-DLPNO pert. Triples 
  Michael Roemelt        : Original ROCIS implementation, recursive CI coupling coefficients
  Masaaki Saitow         : Open-shell DLPNO-CCSD energy and density      
  Barbara Sandhoefer     : DKH picture change effects                    
  Yorick L. A. Schmerwitz: GMF and freeze-and-release deltaSCF, NEB S-IDPP initial path                    
  Kantharuban Sivalingam : CASSCF convergence/infrastructure, NEVPT2, NEVPT3, NEVPT4(SD), FIC-MRCI and CEPA variants
  Bernardo de Souza      : ESD, SOC TD-DFT                               
  Georgi L. Stoychev     : AutoAux, RI-MP2 NMR, DLPNO-MP2 response, X2C  
  Van Anh Tran           : RI-MP2 g-tensors                              
  Willem Van den Heuvel  : Paramagnetic NMR                              
  Zikuan Wang            : NOTCH, Electric field optimization            
  Frank Wennmohs         : Technical directorship and infrastructure     
  Hang Xu                : AUTO-CI-Response properties                   
                                                                         
[FACCTs GmbH]                                                            
  Markus Bursch, Nicolas Foglia, Miquel Garcia-Rates, Ingolf Harden, Hagen Neugebauer, Anastasios Papadopoulos, 
  Christoph Riplinger, Bernardo de Souza, Georgi L. Stoychev                                                    
                                                                 
  APM, various basis sets, CI-OPT, improved COSX, DLPNO-Multilevel,           
  DOCKER, DRACO, updates on ESD, Fragmentator, GOAT, IRC, LR-CPCM, L-BFGS, MBIS, meta-GGA TD-DFT gradient, ML-optimized integration grids, 
  MM, NACMEs, nearIR, NEB, NEB-TS, NL-DFT gradient (VV10), 2- and 3-layer-ONIOM, interface openCOSMO-RS, QMMM,   
  Crystal-QMMM, RESP, rigid body optimization, SF, symmetry and pop. for TD-DFT, various functionals, SOLVATOR                                   
                                                                         
[Other institutions]                                                     
  V. Asgeirsson          : NEB                                           
  Christoph Bannwarth    : sTDA-DFT, sTD-DFT, PBEh-3c, B97-3c, D3        
  Giovanni Bistoni       : ETS/NOCV, ADLD/ADEX, COVALED                  
  Martin Brehm           : Molecular dynamics                            
  Ronald Cardenas        : ETS/NOCV                                      
  Martina Colucci        : COVALED                                       
  Sebastian Ehlert       : rSCAN, r2SCAN, r2SCAN-3c, D4, dhf basis sets  
  Marvin Friede          : D4 for Fr, Ra, Ac-Lr                          
  Lars Goerigk           : TD-DFT with DH, B97 family of functionals     
  Stefan Grimme          : VdW corrections, initial TS optimization, DFT functionals, gCP, sTDA/sTD-DF 
  Waldemar Hujo          : DFT-NL                                        
  H. Jonsson             : NEB                                           
  Holger Kruse           : gCP                                           
  Marcel Mueller         : wB97X-3c, vDZP basis set                      
  Hagen Neugebauer       : wr2SCAN, Native XTB                           
  Gianluca Regni         : ADLD/ADEX                                     
  Tobias Risthaus        : pre 6.0 range-separated hybrid DFT and stability analysis
  Lukas Wittmann         : regularized MP2, r2SCAN double-hybrids, wr2SCAN        
                                                                         
We gratefully acknowledge several colleagues who have allowed us to      
interface, adapt or use parts of their codes:                            
  Ed Valeev, F. Pavosevic, A. Kumar             : LibInt (2-el integral package), F12 methods 
  Garnet Chan, S. Sharma, J. Yang, R. Olivares  : DMRG                   
  Ulf Ekstrom                                   : XCFun DFT Library      
  Mihaly Kallay                                 : mrcc  (arbitrary order and MRCC methods)
  Frank Weinhold                                : gennbo (NPA and NBO analysis)           
  Simon Mueller                                 : openCOSMO-RS                            
  Christopher J. Cramer and Donald G. Truhlar   : smd solvation model                     
  S Lehtola, MJT Oliveira, MAL Marques          : LibXC Library                           
  Liviu Ungur et al                             : ANISO software                          


 Your calculation uses the libint2 library for the computation of 2-el integrals
 For citations please refer to: http://libint.valeyev.net

 Your ORCA version has been built with support for libXC version: 7.0.0
 For citations please refer to: https://libxc.gitlab.io

 This ORCA versions uses:
   CBLAS   interface :  Fast vector & matrix operations
   LAPACKE interface :  Fast linear algebra routines
   SCALAPACK package :  Parallel linear algebra routines
   Shared memory     :  Shared parallel matrices
   BLAS/LAPACK       :  OpenBLAS 0.3.29  USE64BITINT DYNAMIC_ARCH NO_AFFINITY Cooperlake SINGLE_THREADED
        Core in use  :  Cooperlake
   Copyright (c) 2011-2014, The OpenBLAS Project


  ***********************************
  * Starting time: Wed May 20 12:39:04 2026
  * Host name:     c1-40
  * Process ID:    713022
  * Working dir.:  /cluster/projects/nn14654k/ylvaos/basis_set_n_funcs/functionals/gga_x_b88/PO2/out
  ***********************************

Using LibXC functional ID 106 : Becke 88
[ 1]  A. D. Becke.,  Phys. Rev. A 38, 3098 (1988)
Using LibXC functional ID 106 : Becke 88
[ 1]  A. D. Becke.,  Phys. Rev. A 38, 3098 (1988)
Your calculation utilizes LibXC
by S. Lehtola, C. Steigemann, M. J. T. Oliveira & M. A. L. Marques
Please cite in your paper:
Lehtola, S.; Steigemann, C.; Oliveira, M.J.T.; Marques, M. A. L. Software X, 7, (2018), 1.
   

================================================================================

----- Orbital basis set information -----
Your calculation utilizes the basis: aug-cc-pVDZ 
    H, B-Ne : Obtained from the ccRepo (grant-hill.group.shef.ac.uk/ccrepo) Feb. 2017
              R. A. Kendall, T. H. Dunning, Jr., R. J. Harrison, J. Chem. Phys. 96, 6796 (1992)
         He : Obtained from the ccRepo (grant-hill.group.shef.ac.uk/ccrepo) Feb. 2017
              D. E. Woon, T. H. Dunning, Jr., J. Chem. Phys. 100, 2975 (1994)
  Li-Be, Na : Obtained from the ccRepo (grant-hill.group.shef.ac.uk/ccrepo) Feb. 2017
              B. P. Prascher, D. E. Woon, K. A. Peterson, T. H. Dunning, Jr., A. K. Wilson, Theor. Chem. Acc. 128, 69 (2011)
         Mg : Obtained from the Peterson Research Group Website (tyr0.chem.wsu.edu/~kipeters) Feb. 2017
              B. P. Prascher, D. E. Woon, K. A. Peterson, T. H. Dunning, Jr., A. K. Wilson, Theor. Chem. Acc. 128, 69 (2011)
      Al-Ar : Obtained from the ccRepo (grant-hill.group.shef.ac.uk/ccrepo) Feb. 2017
              D. E. Woon, T. H. Dunning, Jr., J. Chem. Phys. 98, 1358 (1993)
      Sc-Zn : Obtained from the ccRepo (grant-hill.group.shef.ac.uk/ccrepo) Feb. 2017
              N. B. Balabanov, K. A. Peterson, J. Chem. Phys. 123, 064107 (2005)
              N. B. Balabanov, K. A. Peterson, J. Chem. Phys. 125, 074110 (2006)
      Ga-Kr : Obtained from the ccRepo (grant-hill.group.shef.ac.uk/ccrepo) Feb. 2017
              A. K. Wilson, D. E. Woon, K. A. Peterson, T. H. Dunning, Jr., J. Chem. Phys. 110, 7667 (1999)

================================================================================
                                        WARNINGS
                       Please study these warnings very carefully!
================================================================================


WARNING: your system is open-shell and RHF/RKS was chosen
  ===> : WILL SWITCH to UHF/UKS


================================================================================
                                       INPUT FILE
================================================================================
NAME = /cluster/projects/nn14654k/ylvaos/basis_set_n_funcs/functionals/gga_x_b88/PO2/inp/PO2_gga_x_b88_augccpvdz.inp
|  1> ! dft aug-cc-pVDZ TightSCF
|  2> %pal nprocs 8 end
|  3> 
|  4> %loc
|  5>   LocMet NewBoys
|  6>   Occ true
|  7> end
|  8> 
|  9> %method
| 10>   exchange gga_x_b88
| 11>   correlation None
| 12> end
| 13> 
| 14> %elprop
| 15>   Dipole true
| 16>   Quadrupole true
| 17> end
| 18> 
| 19> * xyz 0 2
| 20> P    0.000000000000   0.000000000000   0.287900000000
| 21> O    0.000000000000   1.356300000000  -0.269900000000
| 22> O    0.000000000000  -1.356300000000  -0.269900000000
| 23> *
| 24> 
| 25> 
| 26>                          ****END OF INPUT****
================================================================================

                       ****************************
                       * Single Point Calculation *
                       ****************************

---------------------------------
CARTESIAN COORDINATES (ANGSTROEM)
---------------------------------
  P      0.000000    0.000000    0.287900
  O      0.000000    1.356300   -0.269900
  O      0.000000   -1.356300   -0.269900

----------------------------
CARTESIAN COORDINATES (A.U.)
----------------------------
  NO LB      ZA    FRAG     MASS         X           Y           Z
   0 P    15.0000    0    30.974    0.000000    0.000000    0.544052
   1 O     8.0000    0    15.999    0.000000    2.563036   -0.510037
   2 O     8.0000    0    15.999    0.000000   -2.563036   -0.510037

--------------------------------
INTERNAL COORDINATES (ANGSTROEM)
--------------------------------
 P      0   0   0     0.000000000000     0.00000000     0.00000000
 O      1   0   0     1.466523279733     0.00000000     0.00000000
 O      1   2   0     1.466523279733   135.28860674     0.00000000

---------------------------
INTERNAL COORDINATES (A.U.)
---------------------------
 P      0   0   0     0.000000000000     0.00000000     0.00000000
 O      1   0   0     2.771327367716     0.00000000     0.00000000
 O      1   2   0     2.771327367716   135.28860674     0.00000000

---------------------
BASIS SET INFORMATION
---------------------
There are 2 groups of distinct atoms

 Group   1 Type P   : 35s16p2d contracted to 5s4p2d pattern {11111111/7711/11}
 Group   2 Type O   : 18s5p2d contracted to 4s3p2d pattern {8811/311/11}

Atom   0P    basis set group =>   1
Atom   1O    basis set group =>   2
Atom   2O    basis set group =>   2


           ************************************************************
           *        Program running with 8 parallel MPI-processes     *
           *              working on a common directory               *
           ************************************************************
------------------------------------------------------------------------------
                             ORCA STARTUP CALCULATIONS
------------------------------------------------------------------------------
------------------------------------------------------------------------------
                   ___                                                        
                  /   \      - P O W E R E D   B Y -                         
                 /     \                                                     
                 |  |  |   _    _      __       _____    __    __             
                 |  |  |  | |  | |    /  \     |  _  \  |  |  /  |          
                  \  \/   | |  | |   /    \    | | | |  |  | /  /          
                 / \  \   | |__| |  /  /\  \   | |_| |  |  |/  /          
                |  |  |   |  __  | /  /__\  \  |    /   |      \           
                |  |  |   | |  | | |   __   |  |    \   |  |\   \          
                \     /   | |  | | |  |  |  |  | |\  \  |  | \   \       
                 \___/    |_|  |_| |__|  |__|  |_| \__\ |__|  \__/        
                                                                              
                      - O R C A' S   B I G   F R I E N D -                    
                                      &                                       
                       - I N T E G R A L  F E E D E R -                       
                                                                              
 v1 FN, 2020, v2 2021, v3 2022-2024                                           
------------------------------------------------------------------------------


----------------------
SHARK INTEGRAL PACKAGE
----------------------

Number of atoms                             ...      3
Number of basis functions                   ...    108
Number of shells                            ...     54
Maximum angular momentum                    ...      2
Integral batch strategy                     ... SHARK/LIBINT Hybrid
RI-J (if used) integral strategy            ... SPLIT-RIJ (Revised 2003 algorithm where possible)
Printlevel                                  ...      1
Contraction scheme used                     ... PARTIAL GENERAL contraction
Prescreening option                         ... SCHWARTZ
   Thresh                                   ... 2.500e-11
   Tcut                                     ... 2.500e-12
   Tpresel                                  ... 2.500e-12 
Coulomb Range Separation                    ... NOT USED
Exchange Range Separation                   ... NOT USED
Multipole approximations                    ... NOT USED
Finite Nucleus Model                        ... NOT USED
CABS basis                                  ... NOT available
Auxiliary Coulomb fitting basis             ... NOT available
Auxiliary J/K fitting basis                 ... NOT available
Auxiliary Correlation fitting basis         ... NOT available
Auxiliary 'external' fitting basis          ... NOT available

Checking pre-screening integrals            ... done (  0.0 sec) Dimension = 54
Save PGC pre-screening integrals            ... done (  0.0 sec) Dimension = 54
Calculate PGC overlap integrals             ... done (  0.0 sec) Dimension = 29
Calculating pre-screening integrals (ORCA)  ... done (  0.0 sec) Dimension = 29
Shell pair information
Shell pair cut-off parameter TPreSel        ...   2.5e-12
Total number of shell pairs                 ...      1485
Shell pairs after pre-screening             ...      1226
Total number of primitive shell pairs       ...      1717
Primitive shell pairs kept                  ...      1402
          la=0 lb=0:    378 shell pairs
          la=1 lb=0:    429 shell pairs
          la=1 lb=1:    120 shell pairs
          la=2 lb=0:    188 shell pairs
          la=2 lb=1:     90 shell pairs
          la=2 lb=2:     21 shell pairs

Checking whether 4 symmetric matrices of dimension 108 fit in memory
:Max Core in MB      =   4096.00
 MB in use           =      2.49
 MB left             =   4093.51
 MB needed           =      0.18
 Data fit in memory  = YES
Calculating Nuclear repulsion               ... done (  0.0 sec) ENN=     99.086296046297 Eh

Diagonalization of the overlap matrix:
Smallest eigenvalue                        ... 2.133e-03
Time for diagonalization                   ...    0.001 sec
Threshold for overlap eigenvalues          ... 1.000e-07
Number of eigenvalues below threshold      ... 0
Time for construction of square roots      ...    0.002 sec
Total time needed                          ...    0.005 sec

-------------------
DFT GRID GENERATION
-------------------

General Integration Accuracy     IntAcc      ... 4.388
Radial Grid Type                 RadialGrid  ... OptM3 with GC (2021)
Angular Grid (max. ang.)         AngularGrid ... 4 (Lebedev-302)
Angular grid pruning method      GridPruning ... 4 (adaptive)
Weight generation scheme         WeightScheme... mBecke (2022)
Basis function cutoff            BFCut       ... 1.0000e-11
Integration weight cutoff        WCut        ... 1.0000e-14
Partially contracted basis set               ... off
Rotationally invariant grid construction     ... off
Angular grids for H and He will be reduced by one unit
Diffuse basis detected: some atoms will have their outermost
                        angular grid increased by 1.

Total number of grid points                  ...    20582
Total number of batches                      ...      323
Average number of points per batch           ...       63
Average number of grid points per atom       ...     6861

---------------------
SHARK GRID GENERATION
---------------------

General Integration Accuracy     IntAcc      ... 4.388
Radial Grid Type                 RadialGrid  ... OptM3 with GC (2021)
Angular Grid (max. ang.)         AngularGrid ... 4 (Lebedev-302)
Angular grid pruning method      GridPruning ... 4 (adaptive)
Weight generation scheme         WeightScheme... mBecke (2022)
Basis function cutoff            BFCut       ... 1.0000e-11
Integration weight cutoff        WCut        ... 1.0000e-14
Partially contracted basis set               ... off
Rotationally invariant grid construction     ... off
Angular grids for H and He will be reduced by one unit
Diffuse basis detected: some atoms will have their outermost
                        angular grid increased by 1.
Core-polarized basis detected: some atoms will have their core
                               angular grid increased.
Steep s-basis detected: some atoms will have their radial
                        grid points doubled.

Total number of grid points                  ...    46090
Total number of batches                      ...      722
Average number of points per batch           ...       63
Average number of grid points per atom       ...    15363
Grids setup in   0.5 sec
Initializing property integral containers    ... done (  0.0 sec)

SHARK setup successfully completed in   0.6 seconds

Maximum memory used throughout the entire STARTUP-calculation: 25.7 MB


           ************************************************************
           *        Program running with 8 parallel MPI-processes     *
           *              working on a common directory               *
           ************************************************************
-------------------------------------------------------------------------------
                                 ORCA GUESS
                   Start orbitals & Density for SCF / CASSCF
-------------------------------------------------------------------------------

------------
SCF SETTINGS
------------
Hamiltonian:
 Density Functional     Method          .... DFT(GTOs)
  Functional kind                       .... Exchange
  Functional name                       .... Becke 88
  Functional family                     .... GGA
  Functional refs                              
    [ 0] A. D. Becke.,  Phys. Rev. A 38, 3098 (1988), doi: 10.1103/PhysRevA.38.3098
  Functional external parameters        .... 2
    Parameter  0 _beta      =  4.200000e-03 : beta/X_FACTOR_C is the coefficient of the gradient expansion
    Parameter  1 _gamma     =  6.000000e+00 : gamma should be 6 to get the right asymptotics of Ex
 Correlation Functional Correlation     .... No Correlation
 Gradients option       PostSCFGGA      .... off


General Settings:
 Integral files         IntName         .... /cluster/projects/nn14654k/ylvaos/basis_set_n_funcs/functionals/gga_x_b88/PO2/inp/PO2_gga_x_b88_augccpvdz
 Hartree-Fock type      HFTyp           .... UHF
 Total Charge           Charge          ....    0
 Multiplicity           Mult            ....    2
 Number of Electrons    NEL             ....   31
 Basis Dimension        Dim             ....   73
 Nuclear Repulsion      ENuc            ....     99.0862960463 Eh

Convergence Acceleration:
 AO-DIIS                CNVDIIS         .... on
   Start iteration      DIISMaxIt       ....    12
   Startup error        DIISStart       ....  0.200000
   # of expansion vecs  DIISMaxEq       ....     5
   Bias factor          DIISBfac        ....   1.050
   Max. coefficient     DIISMaxC        ....  10.000
 MO-DIIS                CNVKDIIS        .... off
 Trust-Rad. Augm. Hess. CNVTRAH         .... auto
   Auto Start mean grad. ratio tolernc. ....  1.125000
   Auto Start start iteration           ....    50
   Auto Start num. interpolation iter.  ....    10
   Max. Number of Micro iterations      ....    24
   Max. Number of Macro iterations      .... Maxiter - #DIIS iter
   Number of Davidson start vectors     ....     2
   Converg. threshold    (grad. norm)   ....   1.000e-05
   Grad. Scal. Fac. for Micro threshold ....   0.100
   Minimum threshold for Micro iter.    ....   1.000e-02
   NR start threshold (gradient norm)   ....   1.000e-04
   Initial trust radius                 ....   0.400
   Minimum AH scaling param. (alpha)    ....   1.000
   Maximum AH scaling param. (alpha)    .... 1000.000
   Quad. conv. algorithm                .... NR
   White noise on init. David. guess    .... on
   Maximum white noise                  ....   0.010
   Pseudo random numbers                .... off
   Inactive MOs                         .... canonical
   Orbital update algorithm             .... Taylor
   Preconditioner                       .... Diag
   Full preconditioner red. dimension   ....   250
 SOSCF                 CNVSOSCF           .... on
   Start iteration     SOSCFMaxIt         ....   150
   Startup grad/error  SOSCFStart         ....  0.003300
   Hessian update      SOSCFHessUp        .... L-BFGS
   Autom. constraints  SOSCFAutoConstrain .... off
 Level Shifting         CNVShift        .... on
   Level shift para.    LevelShift      ....    0.2500
   Turn off err/grad.   ShiftErr        ....    0.0010
 Zerner damping         CNVZerner       .... off
 Static damping         CNVDamp         .... on
   Fraction old density DampFac         ....    0.7000
   Max. Damping (<1)    DampMax         ....    0.9800
   Min. Damping (>=0)   DampMin         ....    0.0000
   Turn off err/grad.   DampErr         ....    0.1000

SCF Procedure:
 Maximum # iterations   MaxIter         ....   125
 SCF integral mode      SCFMode         .... Direct
   Integral package                     .... SHARK and LIBINT hybrid scheme
 Reset frequency        DirectResetFreq ....    20
 Integral Threshold     Thresh          ....  2.500e-11 Eh
 Primitive CutOff       TCut            ....  2.500e-12 Eh

Convergence Tolerance:
 Convergence Check Mode ConvCheckMode   .... Total+1el-Energy
 Convergence forced     ConvForced      .... 0
 Energy Change          TolE            ....  1.000e-08 Eh
 1-El. energy change                    ....  1.000e-05 Eh
 Orbital Gradient       TolG            ....  1.000e-05
 Orbital Rotation angle TolX            ....  1.000e-05
 DIIS Error             TolErr          ....  5.000e-07

------------------------------
INITIAL GUESS: MODEL POTENTIAL
------------------------------
Loading Hartree-Fock densities                     ... done
Calculating cut-offs                               ... done
Initializing the effective Hamiltonian             ... done
Setting up the integral package (SHARK)            ... done
Starting the Coulomb interaction                   ... done (   0.0 sec)
Making the grid                                    ... done (   0.0 sec)
Mapping shells                                     ... done
Starting the XC term evaluation                    ... done (   0.0 sec)
  promolecular density results
     # of electrons  =     31.000240993
     EX              =    -39.004842160
     EC              =      0.000000000
     EX+EC           =    -39.004842160
Transforming the Hamiltonian                       ... done (   0.0 sec)
Diagonalizing the Hamiltonian                      ... done (   0.0 sec)
Back transforming the eigenvectors                 ... done (   0.0 sec)
Now organizing SCF variables                       ... done
                      ------------------
                      INITIAL GUESS DONE (   0.1 sec)
                      ------------------
             **** ENERGY FILE WAS UPDATED (/cluster/projects/nn14654k/ylvaos/basis_set_n_funcs/functionals/gga_x_b88/PO2/inp/PO2_gga_x_b88_augccpvdz.en.tmp) ****
Finished Guess after   0.2 sec
Maximum memory used throughout the entire GUESS-calculation: 4.9 MB


           ************************************************************
           *        Program running with 8 parallel MPI-processes     *
           *              working on a common directory               *
           ************************************************************

-------------------------------------------------------------------------------------------
                                      ORCA LEAN-SCF
                              memory conserving SCF solver
-------------------------------------------------------------------------------------------

----------------------------------------D-I-I-S--------------------------------------------
Iteration    Energy (Eh)           Delta-E    RMSDP     MaxDP     DIISErr   Damp  Time(sec)
-------------------------------------------------------------------------------------------
               ***  Starting incremental Fock matrix formation  ***
    1    -490.3373222229477619     0.00e+00  1.19e-02  6.23e-02  1.47e-01  0.700   0.1
Warning: op=1 Small HOMO/LUMO gap (   0.064) - skipping pre-diagonalization
         Will do a full diagonalization
    2    -490.4813971750439237    -1.44e-01  4.89e-03  2.87e-02  3.58e-02  0.700   0.3
                               ***Turning on AO-DIIS***
    3    -490.5088759587130767    -2.75e-02  1.89e-03  1.59e-02  1.63e-02  0.700   0.1
    4    -490.5293904448739681    -2.05e-02  3.43e-03  3.25e-02  2.15e-02  0.000   0.1
    5    -490.5881479826950340    -5.88e-02  1.06e-03  6.88e-03  1.67e-02  0.000   0.1
    6    -490.5904785574946914    -2.33e-03  4.56e-04  2.73e-03  6.65e-03  0.000   0.1
                              *** Initializing SOSCF ***
---------------------------------------S-O-S-C-F--------------------------------------
Iteration    Energy (Eh)           Delta-E    RMSDP     MaxDP     MaxGrad    Time(sec)
--------------------------------------------------------------------------------------
    7    -490.5908390127930829    -3.60e-04  2.25e-04  1.29e-03  2.76e-03     0.1
               *** Restarting incremental Fock matrix formation ***
    8    -490.5909028824610800    -6.39e-05  3.93e-04  2.47e-03  1.75e-03     0.1
    9    -490.5908389634614082     6.39e-05  2.72e-04  1.48e-03  3.66e-03     0.2
   10    -490.5909197738563421    -8.08e-05  4.50e-05  4.28e-04  1.19e-04     0.2
   11    -490.5909200200966893    -2.46e-07  1.26e-05  8.51e-05  5.91e-05     0.1
   12    -490.5909200897792175    -6.97e-08  4.04e-06  1.91e-05  1.36e-05     0.1
   13    -490.5909200931477585    -3.37e-09  1.16e-06  6.86e-06  8.22e-06     0.1
                 **** Energy Check signals convergence ****

               *****************************************************
               *                     SUCCESS                       *
               *           SCF CONVERGED AFTER  13 CYCLES          *
               *****************************************************

             **** ENERGY FILE WAS UPDATED (/cluster/projects/nn14654k/ylvaos/basis_set_n_funcs/functionals/gga_x_b88/PO2/inp/PO2_gga_x_b88_augccpvdz.en.tmp) ****

----------------
TOTAL SCF ENERGY
----------------

Total Energy       :       -490.59092009403554 Eh          -13349.65762 eV

Components:
Nuclear Repulsion  :         99.08629604629714 Eh            2696.27519 eV
Electronic Energy  :       -589.67721614033258 Eh          -16045.93281 eV
One Electron Energy:       -874.30899803699344 Eh          -23791.15736 eV
Two Electron Energy:        284.63178189666081 Eh            7745.22455 eV

Virial components:
Potential Energy   :       -980.52087908940871 Eh          -26681.32957 eV
Kinetic Energy     :        489.92995899537317 Eh           13331.67195 eV
Virial Ratio       :          2.00134909304183

DFT components:
N(Alpha)           :       16.000076086315 electrons
N(Beta)            :       15.000066182922 electrons
N(Total)           :       31.000142269237 electrons
E(X)               :      -39.168915774333 Eh       
E(C)               :        0.000000000000 Eh       
E(XC)              :      -39.168915774333 Eh       

---------------
SCF CONVERGENCE
---------------

  Last Energy change         ...    3.3685e-09  Tolerance :   1.0000e-08
  Last MAX-Density change    ...    6.8569e-06  Tolerance :   1.0000e-07
  Last RMS-Density change    ...    1.1553e-06  Tolerance :   5.0000e-09
  Last DIIS Error            ...    2.7590e-03  Tolerance :   5.0000e-07
  Last Orbital Gradient      ...    8.2181e-06  Tolerance :   1.0000e-05
  Last Orbital Rotation      ...    1.3414e-05  Tolerance :   1.0000e-05


----------------------
UHF SPIN CONTAMINATION
----------------------

Warning: in a DFT calculation there is little theoretical justification to 
         calculate <S**2> as in Hartree-Fock theory. We will do it anyways
         but you should keep in mind that the values have only limited relevance

Expectation value of <S**2>     :     0.753898
Ideal value S*(S+1) for S=0.5   :     0.750000
Deviation                       :     0.003898

----------------
ORBITAL ENERGIES
----------------
                 SPIN UP ORBITALS
  NO   OCC          E(Eh)            E(eV) 
   0   1.0000     -76.488916     -2081.3692 
   1   1.0000     -18.822940      -512.1982 
   2   1.0000     -18.822928      -512.1979 
   3   1.0000      -6.405839      -174.3117 
   4   1.0000      -4.631465      -126.0286 
   5   1.0000      -4.629438      -125.9734 
   6   1.0000      -4.628891      -125.9585 
   7   1.0000      -0.962306       -26.1857 
   8   1.0000      -0.917474       -24.9657 
   9   1.0000      -0.484104       -13.1731 
  10   1.0000      -0.387257       -10.5378 
  11   1.0000      -0.371640       -10.1128 
  12   1.0000      -0.371512       -10.1094 
  13   1.0000      -0.299172        -8.1409 
  14   1.0000      -0.291116        -7.9217 
  15   1.0000      -0.238092        -6.4788 
  16   0.0000      -0.093901        -2.5552 
  17   0.0000      -0.006577        -0.1790 
  18   0.0000       0.022775         0.6197 
  19   0.0000       0.030688         0.8351 
  20   0.0000       0.043504         1.1838 
  21   0.0000       0.072635         1.9765 
  22   0.0000       0.128078         3.4852 
  23   0.0000       0.133013         3.6195 
  24   0.0000       0.144486         3.9317 
  25   0.0000       0.157037         4.2732 
  26   0.0000       0.159107         4.3295 

                 SPIN DOWN ORBITALS
  NO   OCC          E(Eh)            E(eV) 
   0   1.0000     -76.487205     -2081.3227 
   1   1.0000     -18.816139      -512.0132 
   2   1.0000     -18.816128      -512.0129 
   3   1.0000      -6.403563      -174.2498 
   4   1.0000      -4.629211      -125.9672 
   5   1.0000      -4.627662      -125.9251 
   6   1.0000      -4.624690      -125.8442 
   7   1.0000      -0.946412       -25.7532 
   8   1.0000      -0.900453       -24.5026 
   9   1.0000      -0.458592       -12.4789 
  10   1.0000      -0.365329        -9.9411 
  11   1.0000      -0.361820        -9.8456 
  12   1.0000      -0.352399        -9.5893 
  13   1.0000      -0.293540        -7.9876 
  14   1.0000      -0.279056        -7.5935 
  15   0.0000      -0.181043        -4.9264 
  16   0.0000      -0.067478        -1.8362 
  17   0.0000       0.007497         0.2040 
  18   0.0000       0.034443         0.9372 
  19   0.0000       0.037028         1.0076 
  20   0.0000       0.049236         1.3398 
  21   0.0000       0.083659         2.2765 
  22   0.0000       0.136380         3.7111 
  23   0.0000       0.137312         3.7364 
  24   0.0000       0.145948         3.9715 
  25   0.0000       0.171406         4.6642 
*Only the first 10 virtual orbitals were printed.

                    ********************************
                    * MULLIKEN POPULATION ANALYSIS *
                    ********************************

--------------------------------------------
MULLIKEN ATOMIC CHARGES AND SPIN POPULATIONS
--------------------------------------------
   0 P :    0.902359    0.501464
   1 O :   -0.451179    0.249268
   2 O :   -0.451179    0.249268
Sum of atomic charges         :    0.0000000
Sum of atomic spin populations:    1.0000000

-----------------------------------------------------
MULLIKEN REDUCED ORBITAL CHARGES AND SPIN POPULATIONS
-----------------------------------------------------
CHARGE
  0 P s       :     5.418681  s :     5.418681
      pz      :     2.799795  p :     8.068789
      px      :     2.701528
      py      :     2.567465
      dz2     :     0.098850  d :     0.610172
      dxz     :     0.009319
      dyz     :     0.194189
      dx2y2   :     0.145109
      dxy     :     0.162705

  1 O s       :     4.020456  s :     4.020456
      pz      :     1.532372  p :     4.398329
      px      :     1.547644
      py      :     1.318313
      dz2     :     0.006223  d :     0.032395
      dxz     :     0.001997
      dyz     :     0.006764
      dx2y2   :     0.003828
      dxy     :     0.013583

  2 O s       :     4.020456  s :     4.020456
      pz      :     1.532372  p :     4.398329
      px      :     1.547644
      py      :     1.318313
      dz2     :     0.006223  d :     0.032395
      dxz     :     0.001997
      dyz     :     0.006764
      dx2y2   :     0.003828
      dxy     :     0.013583


SPIN
  0 P s       :     0.126552  s :     0.126552
      pz      :     0.222185  p :     0.243976
      px      :     0.038377
      py      :    -0.016587
      dz2     :     0.044588  d :     0.130937
      dxz     :    -0.003910
      dyz     :     0.002770
      dx2y2   :     0.084633
      dxy     :     0.002857

  1 O s       :     0.047677  s :     0.047677
      pz      :     0.169629  p :     0.199361
      px      :    -0.017882
      py      :     0.047614
      dz2     :    -0.000143  d :     0.002230
      dxz     :    -0.000294
      dyz     :     0.002913
      dx2y2   :     0.000240
      dxy     :    -0.000487

  2 O s       :     0.047677  s :     0.047677
      pz      :     0.169629  p :     0.199361
      px      :    -0.017882
      py      :     0.047614
      dz2     :    -0.000143  d :     0.002230
      dxz     :    -0.000294
      dyz     :     0.002913
      dx2y2   :     0.000240
      dxy     :    -0.000487



                     *******************************
                     * LOEWDIN POPULATION ANALYSIS *
                     *******************************

-------------------------------------------
LOEWDIN ATOMIC CHARGES AND SPIN POPULATIONS
-------------------------------------------
   0 P :    0.771859    0.511688
   1 O :   -0.385929    0.244156
   2 O :   -0.385929    0.244156

----------------------------------------------------
LOEWDIN REDUCED ORBITAL CHARGES AND SPIN POPULATIONS
----------------------------------------------------
CHARGE
  0 P s       :     4.846223  s :     4.846223
      pz      :     2.799810  p :     8.167745
      px      :     2.635288
      py      :     2.732646
      dz2     :     0.161597  d :     1.214174
      dxz     :     0.016145
      dyz     :     0.383876
      dx2y2   :     0.343020
      dxy     :     0.309536

  1 O s       :     3.600407  s :     3.600407
      pz      :     1.551316  p :     4.611414
      px      :     1.484927
      py      :     1.575171
      dz2     :     0.019805  d :     0.174108
      dxz     :     0.004869
      dyz     :     0.064783
      dx2y2   :     0.054932
      dxy     :     0.029719

  2 O s       :     3.600407  s :     3.600407
      pz      :     1.551316  p :     4.611414
      px      :     1.484927
      py      :     1.575171
      dz2     :     0.019805  d :     0.174108
      dxz     :     0.004869
      dyz     :     0.064783
      dx2y2   :     0.054932
      dxy     :     0.029719


SPIN
  0 P s       :     0.158315  s :     0.158315
      pz      :     0.182876  p :     0.197581
      px      :     0.026487
      py      :    -0.011782
      dz2     :     0.067260  d :     0.155792
      dxz     :    -0.004033
      dyz     :    -0.003047
      dx2y2   :     0.095990
      dxy     :    -0.000379

  1 O s       :     0.036443  s :     0.036443
      pz      :     0.160604  p :     0.198178
      px      :    -0.011767
      py      :     0.049341
      dz2     :     0.000998  d :     0.009535
      dxz     :     0.000102
      dyz     :     0.007845
      dx2y2   :    -0.000037
      dxy     :     0.000628

  2 O s       :     0.036443  s :     0.036443
      pz      :     0.160604  p :     0.198178
      px      :    -0.011767
      py      :     0.049341
      dz2     :     0.000998  d :     0.009535
      dxz     :     0.000102
      dyz     :     0.007845
      dx2y2   :    -0.000037
      dxy     :     0.000628



                      *****************************
                      * MAYER POPULATION ANALYSIS *
                      *****************************

  NA   - Mulliken gross atomic population
  ZA   - Total nuclear charge
  QA   - Mulliken gross atomic charge
  VA   - Mayer's total valence
  BVA  - Mayer's bonded valence
  FA   - Mayer's free valence

  ATOM       NA         ZA         QA         VA         BVA        FA
  0 P     14.0976    15.0000     0.9024     3.8516     3.5923     0.2593
  1 O      8.4512     8.0000    -0.4512     2.0931     2.0352     0.0579
  2 O      8.4512     8.0000    -0.4512     2.0931     2.0352     0.0579

  Mayer bond orders larger than 0.100000
B(  0-P ,  1-O ) :   1.7961 B(  0-P ,  2-O ) :   1.7961 B(  1-O ,  2-O ) :   0.2390 


-------
TIMINGS
-------

Total SCF time: 0 days 0 hours 0 min 2 sec 

Total time                  ....       2.034 sec
Sum of individual times     ....       2.090 sec  (102.7%)

SCF preparation             ....       0.116 sec  (  5.7%)
Fock matrix formation       ....       1.027 sec  ( 50.5%)
  Startup                   ....       0.018 sec  (  1.7% of F)
  Coulomb formation         ....       0.295 sec  ( 28.7% of F)
  XC integration            ....       0.399 sec  ( 38.9% of F)
    XC Preparation          ....       0.000 sec  (  0.0% of XC)
    Basis function eval.    ....       0.037 sec  (  9.2% of XC)
    Density eval.           ....       0.022 sec  (  5.6% of XC)
    XC-Functional eval.     ....       0.012 sec  (  2.9% of XC)
    XC-Potential eval.      ....       0.050 sec  ( 12.6% of XC)
Diagonalization             ....       0.000 sec  (  0.0%)
Density matrix formation    ....       0.140 sec  (  6.9%)
Total Energy calculation    ....       0.025 sec  (  1.2%)
Population analysis         ....       0.014 sec  (  0.7%)
Orbital Transformation      ....       0.216 sec  ( 10.6%)
Orbital Orthonormalization  ....       0.000 sec  (  0.0%)
DIIS solution               ....       0.392 sec  ( 19.3%)
SOSCF solution              ....       0.160 sec  (  7.9%)
Finished LeanSCF after   2.1 sec

Maximum memory used throughout the entire LEANSCF-calculation: 6.9 MB


           ************************************************************
           *        Program running with 8 parallel MPI-processes     *
           *              working on a common directory               *
           ************************************************************

------------------------------------------------------------------------------
                         ORCA PROPERTY INTEGRAL CALCULATIONS
------------------------------------------------------------------------------

GBWName                                   ... /cluster/projects/nn14654k/ylvaos/basis_set_n_funcs/functionals/gga_x_b88/PO2/inp/PO2_gga_x_b88_augccpvdz.gbw
Number of atoms                           ...      3
Number of basis functions                 ...    108
Max core memory                           ...   4096 MB

Dipole integrals                          ... YES
Quadrupole integrals                      ... YES
Linear momentum integrals                 ...  NO
Angular momentum integrals                ...  NO
Higher moments length integrals           ...  NO
Higher moments velocity integrals         ...  NO
Kinetic energy integrals                  ...  NO
GIAO right hand sides                     ...  NO
GIAO dipole derivative integrals          ...  NO
SOC integrals                             ...  NO
EPR diamagnetic integrals (GIAO)          ...  NO
EPR gauge integrals                       ...  NO
Field gradient integrals                  ...  NO (   0 nuclei)
Spin-dipole/Fermi contact integrals       ...  NO (   0 nuclei)
Contact density integrals                 ...  NO (   0 nuclei)
Nucleus-orbit integrals                   ...  NO (   0 nuclei)
Geometric perturbations                   ...  NO (   3 nuclei)

Choice of electric origin   ... Center of mass
Position of electric origin ... (  0.0000,  0.0000,  0.0084) 
Choice of magnetic origin   ... GIAO
Position of magnetic origin ... (  0.0000,  0.0000,  0.0000) 

Calculating integrals                     ... Electric Dipole (Length)     done (  0.0 sec)
Calculating integrals                     ... Electric Quadrupole (Length) done (  0.0 sec)

Property integrals calculated in   0.0 sec

Maximum memory used throughout the entire PROPINT-calculation: 5.2 MB
------------------------------------------------------------------------------
                           ORCA ORBITAL LOCALIZATION
------------------------------------------------------------------------------

Input orbitals are from                  ... /cluster/projects/nn14654k/ylvaos/basis_set_n_funcs/functionals/gga_x_b88/PO2/inp/PO2_gga_x_b88_augccpvdz.gbw
Output orbitals are to                   ... /cluster/projects/nn14654k/ylvaos/basis_set_n_funcs/functionals/gga_x_b88/PO2/inp/PO2_gga_x_b88_augccpvdz.loc
Max. number of iterations                ... 128
Localizations seeded randomly            ... on
Convergence tolerance                    ... 1.000e-06
Threshold for strong local MOs           ... 9.500e-01
Threshold for bond MOs                   ... 8.500e-01
Operator                                 ... 0
Orbital range for localization           ... 4 to 15
Localization criterion                   ... NEW-BOYS
Doing the dipole integrals               ... o.k.
Initial value of the localization sum :    44.253551
ITERATION   0 : L=   49.4726025632 DL=  5.22e+00 (AVERGE_DL)=    0.2812055103 
ITERATION   1 : L=   50.0208158540 DL=  5.48e-01 (AVERGE_DL)=    0.0911386964 
ITERATION   2 : L=   50.0600104255 DL=  3.92e-02 (AVERGE_DL)=    0.0243691843 
ITERATION   3 : L=   50.0691060733 DL=  9.10e-03 (AVERGE_DL)=    0.0117393716 
ITERATION   4 : L=   50.0811547271 DL=  1.20e-02 (AVERGE_DL)=    0.0135113049 
ITERATION   5 : L=   50.1099677086 DL=  2.88e-02 (AVERGE_DL)=    0.0208940261 
ITERATION   6 : L=   50.1662285313 DL=  5.63e-02 (AVERGE_DL)=    0.0291965187 
ITERATION   7 : L=   50.2331207186 DL=  6.69e-02 (AVERGE_DL)=    0.0318357973 
ITERATION   8 : L=   50.2927771579 DL=  5.97e-02 (AVERGE_DL)=    0.0300646877 
ITERATION   9 : L=   50.3250948202 DL=  3.23e-02 (AVERGE_DL)=    0.0221282975 
ITERATION  10 : L=   50.3361536098 DL=  1.11e-02 (AVERGE_DL)=    0.0129443972 
ITERATION  11 : L=   50.3391491163 DL=  3.00e-03 (AVERGE_DL)=    0.0067369476 
ITERATION  12 : L=   50.3398749424 DL=  7.26e-04 (AVERGE_DL)=    0.0033162275 
ITERATION  13 : L=   50.3400406330 DL=  1.66e-04 (AVERGE_DL)=    0.0015844444 
ITERATION  14 : L=   50.3400770596 DL=  3.64e-05 (AVERGE_DL)=    0.0007429111 
ITERATION  15 : L=   50.3400848569 DL=  7.80e-06 (AVERGE_DL)=    0.0003437164 
ITERATION  16 : L=   50.3400864934 DL=  1.64e-06 (AVERGE_DL)=    0.0001574668 
ITERATION  17 : L=   50.3400868329 DL=  3.39e-07 (AVERGE_DL)=    0.0000717177 
LOCALIZATION SUM CONVERGED


--------------------------------------------------------------------------------
                    LOCALIZED MOLECULAR ORBITAL COMPOSITIONS
--------------------------------------------------------------------------------

The Mulliken populations for each LMO on each atom are computed
The LMO`s will be ordered according to atom index and type
  (A) Strongly localized MO`s have populations of >=0.950 on one atom
  (B) Two center bond orbitals have populations of >=0.850 on two atoms
  (C) Other MO`s are considered to be `delocalized`

FOUND  -   6 strongly local MO`s
       -   6 two center bond MO`s
       -   0 significantly delocalized MO`s

Rather strongly localized orbitals:
MO   9:   2O  -   1.004140
MO   8:   1O  -   1.004150
MO   7:   0P  -   0.966189
MO   6:   0P  -   1.000647
MO   5:   0P  -   1.000647
MO   4:   0P  -   1.002412
Bond-like localized orbitals:
MO  15:   2O  -   0.706645  and   0P  -   0.287821
MO  14:   2O  -   0.706644  and   0P  -   0.287823
MO  13:   2O  -   0.904783  and   0P  -   0.090647
MO  12:   1O  -   0.706662  and   0P  -   0.287803
MO  11:   1O  -   0.706659  and   0P  -   0.287805
MO  10:   1O  -   0.904742  and   0P  -   0.090691
Localized MO's were stored in: /cluster/projects/nn14654k/ylvaos/basis_set_n_funcs/functionals/gga_x_b88/PO2/inp/PO2_gga_x_b88_augccpvdz.loc
------------------------------------------------------------------------------
                           ORCA ORBITAL LOCALIZATION
------------------------------------------------------------------------------

Input orbitals are from                  ... /cluster/projects/nn14654k/ylvaos/basis_set_n_funcs/functionals/gga_x_b88/PO2/inp/PO2_gga_x_b88_augccpvdz.loc
Output orbitals are to                   ... /cluster/projects/nn14654k/ylvaos/basis_set_n_funcs/functionals/gga_x_b88/PO2/inp/PO2_gga_x_b88_augccpvdz.loc
Max. number of iterations                ... 128
Localizations seeded randomly            ... on
Convergence tolerance                    ... 1.000e-06
Threshold for strong local MOs           ... 9.500e-01
Threshold for bond MOs                   ... 8.500e-01
Operator                                 ... 1
Orbital range for localization           ... 4 to 14
Localization criterion                   ... NEW-BOYS
Doing the dipole integrals               ... o.k.
Initial value of the localization sum :    38.937718
ITERATION   0 : L=   41.7036892098 DL=  2.77e+00 (AVERGE_DL)=    0.2242551802 
ITERATION   1 : L=   42.7735925141 DL=  1.07e+00 (AVERGE_DL)=    0.1394732496 
ITERATION   2 : L=   42.9668717368 DL=  1.93e-01 (AVERGE_DL)=    0.0592804157 
ITERATION   3 : L=   42.9940508301 DL=  2.72e-02 (AVERGE_DL)=    0.0222298298 
ITERATION   4 : L=   42.9998854344 DL=  5.83e-03 (AVERGE_DL)=    0.0102996949 
ITERATION   5 : L=   43.0033450335 DL=  3.46e-03 (AVERGE_DL)=    0.0079310656 
ITERATION   6 : L=   43.0060370660 DL=  2.69e-03 (AVERGE_DL)=    0.0069961450 
ITERATION   7 : L=   43.0081297292 DL=  2.09e-03 (AVERGE_DL)=    0.0061683404 
ITERATION   8 : L=   43.0097241244 DL=  1.59e-03 (AVERGE_DL)=    0.0053841436 
ITERATION   9 : L=   43.0109197219 DL=  1.20e-03 (AVERGE_DL)=    0.0046624176 
ITERATION  10 : L=   43.0118058553 DL=  8.86e-04 (AVERGE_DL)=    0.0040139153 
ITERATION  11 : L=   43.0124572058 DL=  6.51e-04 (AVERGE_DL)=    0.0034413277 
ITERATION  12 : L=   43.0129332616 DL=  4.76e-04 (AVERGE_DL)=    0.0029420331 
ITERATION  13 : L=   43.0132798864 DL=  3.47e-04 (AVERGE_DL)=    0.0025104323 
ITERATION  14 : L=   43.0135316716 DL=  2.52e-04 (AVERGE_DL)=    0.0021396055 
ITERATION  15 : L=   43.0137143086 DL=  1.83e-04 (AVERGE_DL)=    0.0018222713 
ITERATION  16 : L=   43.0138466968 DL=  1.32e-04 (AVERGE_DL)=    0.0015514700 
ITERATION  17 : L=   43.0139426417 DL=  9.59e-05 (AVERGE_DL)=    0.0013207769 
ITERATION  18 : L=   43.0140121854 DL=  6.95e-05 (AVERGE_DL)=    0.0011244696 
ITERATION  19 : L=   43.0140626118 DL=  5.04e-05 (AVERGE_DL)=    0.0009575195 
ITERATION  20 : L=   43.0140991957 DL=  3.66e-05 (AVERGE_DL)=    0.0008155745 
ITERATION  21 : L=   43.0141257564 DL=  2.66e-05 (AVERGE_DL)=    0.0006949256 
ITERATION  22 : L=   43.0141450509 DL=  1.93e-05 (AVERGE_DL)=    0.0005922916 
ITERATION  23 : L=   43.0141590800 DL=  1.40e-05 (AVERGE_DL)=    0.0005050480 
ITERATION  24 : L=   43.0141692875 DL=  1.02e-05 (AVERGE_DL)=    0.0004308041 
ITERATION  25 : L=   43.0141767203 DL=  7.43e-06 (AVERGE_DL)=    0.0003676143 
ITERATION  26 : L=   43.0141821374 DL=  5.42e-06 (AVERGE_DL)=    0.0003138366 
ITERATION  27 : L=   43.0141860889 DL=  3.95e-06 (AVERGE_DL)=    0.0002680418 
ITERATION  28 : L=   43.0141889728 DL=  2.88e-06 (AVERGE_DL)=    0.0002289841 
ITERATION  29 : L=   43.0141910797 DL=  2.11e-06 (AVERGE_DL)=    0.0001957206 
ITERATION  30 : L=   43.0141926195 DL=  1.54e-06 (AVERGE_DL)=    0.0001673248 
ITERATION  31 : L=   43.0141937464 DL=  1.13e-06 (AVERGE_DL)=    0.0001431391 
ITERATION  32 : L=   43.0141945719 DL=  8.26e-07 (AVERGE_DL)=    0.0001225141 
LOCALIZATION SUM CONVERGED


--------------------------------------------------------------------------------
                    LOCALIZED MOLECULAR ORBITAL COMPOSITIONS
--------------------------------------------------------------------------------

The Mulliken populations for each LMO on each atom are computed
The LMO`s will be ordered according to atom index and type
  (A) Strongly localized MO`s have populations of >=0.950 on one atom
  (B) Two center bond orbitals have populations of >=0.850 on two atoms
  (C) Other MO`s are considered to be `delocalized`

FOUND  -   5 strongly local MO`s
       -   6 two center bond MO`s
       -   0 significantly delocalized MO`s

Rather strongly localized orbitals:
MO   8:   2O  -   1.000089
MO   7:   1O  -   1.000092
MO   6:   0P  -   1.000593
MO   5:   0P  -   1.000593
MO   4:   0P  -   1.002123
Bond-like localized orbitals:
MO  14:   2O  -   0.783886  and   0P  -   0.208959
MO  13:   2O  -   0.526275  and   0P  -   0.477827
MO  12:   2O  -   0.783253  and   0P  -   0.209671
MO  11:   1O  -   0.526198  and   0P  -   0.477903
MO  10:   1O  -   0.783516  and   0P  -   0.209383
MO   9:   1O  -   0.783699  and   0P  -   0.209169
Localized MO's were stored in: /cluster/projects/nn14654k/ylvaos/basis_set_n_funcs/functionals/gga_x_b88/PO2/inp/PO2_gga_x_b88_augccpvdz.loc

-------------------------   --------------------
FINAL SINGLE POINT ENERGY      -490.590920094036
-------------------------   --------------------



           ************************************************************
           *        Program running with 8 parallel MPI-processes     *
           *              working on a common directory               *
           ************************************************************

------------------------------------------------------------------------------
                              ORCA PROPERTY CALCULATIONS
------------------------------------------------------------------------------

GBWName                                 ... /cluster/projects/nn14654k/ylvaos/basis_set_n_funcs/functionals/gga_x_b88/PO2/inp/PO2_gga_x_b88_augccpvdz.gbw
Number of atoms                         ...      3
Number of basis functions               ...    108
Max core memory                         ...   4096 MB

Electric properties:
Dipole moment                           ... YES
Quadrupole moment                       ... YES
Static polarizability (Dipole/Dipole)   ...  NO
Static polarizability (Dipole/Quad.)    ...  NO
Static polarizability (Quad./Quad.)     ...  NO
Static polarizability (Velocity)        ...  NO
Static hyperpolarizability              ...  NO

Atomic electric properties:
Dipole moment                           ...  NO
Quadrupole moment                       ...  NO
Static polarizability                   ...  NO

Choice of electric origin               ... Center of mass
Position of electric origin             ...     0.000000     0.000000     0.008437

General magnetic properties:
Magnetizability                         ...  NO

EPR properties:
g-Tensor (aka g-matrix)                 ...  NO
Zero-Field splitting spin-orbit         ...  NO
Zero-field splitting spin-spin          ...  NO
Hyperfine couplings                     ...  NO (   0 nuclei)
Quadrupole couplings                    ...  NO (   0 nuclei)
Contact density                         ...  NO (   0 nuclei)

NMR properties:
Chemical shifts                         ...  NO (   0 nuclei)
Spin-rotation constants                 ...  NO (   0 nuclei)
Spin-spin couplings                     ...  NO (   0 nuclei,    0 pairs)

Choice of magnetic origin               ... GIAO
Position of magnetic origin             ...     0.000000     0.000000     0.000000

Properties with geometric perturbations:
SCF Hessian                             ...  NO
IR spectrum                             ...  NO
VCD spectrum                            ...  NO
X-ray spectroscopy properties:
SCF XES/XAS/RIXS spectra                ...  NO

SCF SOC stabilization energy            ...  NO
Diagonal Born-Oppenheimer correction    ...  NO

-------------
DIPOLE MOMENT
-------------

Method             : SCF
Type of density    : Electron Density
Multiplicity       :   2
Irrep              :   0
Energy             :  -490.5909200940355390 Eh
Basis              : AO
                                X                 Y                 Z
Electronic contribution:     -0.000000000       0.000000001       0.736898473
Nuclear contribution   :      0.000000000       0.000000000      -0.261362976
                        -----------------------------------------
Total Dipole Moment    :     -0.000000000       0.000000001       0.475535496
                        -----------------------------------------
Magnitude (a.u.)       :      0.475535496
Magnitude (Debye)      :      1.208715174



--------------------
Rotational spectrum 
--------------------
 
Rotational constants in cm-1:             3.442444             0.286393             0.264396 
Rotational constants in MHz :        103201.869580          8585.841533          7926.407020 

Dipole components along the rotational axes: 
x,y,z [a.u.] :     0.000000     0.475535    -0.000000 
x,y,z [Debye]:     0.000000     1.208715    -0.000000 

 

Dipole moment calculation done in   0.0 sec 

-----------------
QUADRUPOLE MOMENT
-----------------

Method             : SCF
Type of density    : Electron Density
Multiplicity       :   2
Irrep              :   0
Energy             :  -490.5909200940355390 Eh
Basis              : AO

                XX              YY              ZZ              XY              XZ              YZ
  NUC        0.000000000   105.106420135     8.604299986     0.000000000     0.000000000     0.000000000
  EL       -15.979650828  -126.576602289   -25.422753089     0.000000000    -0.000000001     0.000000005
  TOT      -15.979650828   -21.470182154   -16.818453103     0.000000000    -0.000000001     0.000000005 (a.u.)
           -21.493176868   -28.878129277   -22.621394615     0.000000000    -0.000000001     0.000000007 (Buckingham)

diagonalized tensor:
           -21.470182154   -16.818453103   -15.979650828 (a.u.)
           -28.878129277   -22.621394615   -21.493176868 (Buckingham)
           -13.641687072     5.128516916     8.513170156 (traceless form in Buckingham)

            -0.000000000    -0.000000001     1.000000000
             1.000000000    -0.000000001     0.000000000
            -0.000000001    -1.000000000    -0.000000001
        
Isotropic quadrupole :   -18.089428695

Quadrupole moment calculation done in   0.0 sec (  0.0 sec for integrals)

Maximum memory used throughout the entire PROP-calculation: 2.8 MB

--------------------------------
SUGGESTED CITATIONS FOR THIS RUN
--------------------------------

Below you find a list of papers that are relevant to this ORCA run
We neither can nor want to force you to cite these papers, but we appreciate if you do
You receive ORCA, which is the product of decades of hard work by many enthusiastic individuals, for free
The only thing we kindly ask in return is that you cite our papers,
We deeply appreciate it, if you show your appreciation for ORCA by not just citing the generic ORCA reference.

Please note that relegating all ORCA citations to the supporting information does *not* help us.
SI sections are not indexed - citations you put there will not count into any citation statistics
But we need these citations in order to attract the funding resources that allow us to do what we are doing

Therefore, if you are a happy ORCA user, please consider citing a few of the papers listed below in the main body of your paper

In addition to the list printed below, the program has created the file /cluster/projects/nn14654k/ylvaos/basis_set_n_funcs/functionals/gga_x_b88/PO2/inp/PO2_gga_x_b88_augccpvdz.bibtex that contains the list in bibtex format
You can import this file easily into all common literature databanks and citation aid programs

It goes without saying that in many instances, there are alternative algorithms to achieve similar
results as the ones you have gotten from ORCA. It is, of course, also the case that in some instances
ORCA just re-implements algorithms worked out by others. We are fully aware of that and we are also
fully appreciative of our colleagues work. Hence this citation list should not be read as indicating
that the listed papers, which are focused on our own work, are the only ones worth citing. It simply
meant to make it easier for users to cite ORCA specific papers. It is not a substitute for doing your
own literature research and citing the relevant literature in a scientifically appropriate manner.

List of essential papers. We consider these as the minimum necessary citations

  1. Neese, F.
     Software update: the ORCA program system, version 6.0
     WIRES Comput. Molec. Sci. 2025 15(1), e70019
     doi.org/10.1002/wcms.70019

List of papers to cite with high priority. The work reported in these papers was absolutely
necessary for this run to complete.
Our perspective: the developers of density functionals and basis sets usually get cited in chemistry papers
Good! But without the algorithms to do something with them, the functionals or basis sets would not do anything.
Hence, in our opinion, the algorithm design and method developments papers are equally worthy of getting cited

  1. Lehtola, S.; Steigemann, C.; Oliveira, M.; Marques, M.
     Recent developments in Libxc - A comprehensive library of functionals for density functional theory
     Software X 2018 7 , 
     doi.org/10.1016/j.softx.2017.11.002
  2. Neese, F.
     The SHARK Integral Generation and Digestion System
     J. Comp. Chem. 2022 44(3), 381
     doi.org/10.1002/jcc.26942

List of suggested additional citations. These are papers that are important in the 'surrounding' of 
of this run, or papers that preceded the highly important papers. If you like your results we are grateful for a citation.

  1. Neese, F.
     The ORCA program system
     WIRES Comput. Molec. Sci. 2012 2(1), 73-78
     doi.org/10.1002/wcms.81
  2. Neese, F.
     Software update: the ORCA program system, version 4.0
     WIRES Comput. Molec. Sci. 2018 8(1), 1-6
     doi.org/10.1002/wcms.1327
  3. Neese, F.; Wennmohs, F.; Becker, U.; Riplinger, C.
     The ORCA quantum chemistry program package
     J. Chem. Phys. 2020 152(22), 224108
     doi.org/10.1063/5.0004608
  4. Neese, F.
     Software update: The ORCA program system—Version 5.0
     WIRES Comput. Molec. Sci. 2022 12(1), e1606
     doi.org/10.1002/wcms.1606

List of optional additional citations

  1. Neese, F.
     Approximate second-order SCF convergence for spin unrestricted wavefunctions
     Chem. Phys. Lett. 2000 325(1-3), 93-98
     doi.org/10.1016/s0009-2614(00)00662-x

Timings for individual modules:

Sum of individual times          ...        4.033 sec (=   0.067 min)
Startup calculation              ...        0.858 sec (=   0.014 min)  21.3 %
SCF iterations                   ...        2.672 sec (=   0.045 min)  66.2 %
Property integrals               ...        0.220 sec (=   0.004 min)   5.4 %
Property calculations            ...        0.277 sec (=   0.005 min)   6.9 %
Orbital localization             ...        0.006 sec (=   0.000 min)   0.1 %
                             ****ORCA TERMINATED NORMALLY****
TOTAL RUN TIME: 0 days 0 hours 0 minutes 4 seconds 793 msec
