
                                 *****************
                                 * O   R   C   A *
                                 *****************

                                            #,                                       
                                            ###                                      
                                            ####                                     
                                            #####                                    
                                            ######                                   
                                           ########,                                 
                                     ,,################,,,,,                         
                               ,,#################################,,                 
                          ,,##########################################,,             
                       ,#########################################, ''#####,          
                    ,#############################################,,   '####,        
                  ,##################################################,,,,####,       
                ,###########''''           ''''###############################       
              ,#####''   ,,,,##########,,,,          '''####'''          '####       
            ,##' ,,,,###########################,,,                        '##       
           ' ,,###''''                  '''############,,,                           
         ,,##''                                '''############,,,,        ,,,,,,###''
      ,#''                                            '''#######################'''  
     '                                                          ''''####''''         
             ,#######,   #######,   ,#######,      ##                                
            ,#'     '#,  ##    ##  ,#'     '#,    #''#        ,####,    ,#,          
            ##       ##  ##   ,#'  ##            #'  '#       #'       ,# #          
            ##       ##  #######   ##           ,######,      #####,      #          
            '#,     ,#'  ##    ##  '#,     ,#' ,#      #,     #,   #      #          
             '#######'   ##     ##  '#######'  #'      '#     '####' #    #          



                #########################################################
                #                        -***-                          #
                #          Department of theory and spectroscopy        #
                #                                                       #
                #                      Frank Neese                      #
                #                                                       #
                #     Directorship, Architecture, Infrastructure        #
                #                    SHARK, DRIVERS                     #
                #        Core code/Algorithms in most modules           #
                #                                                       #
                #        Max Planck Institute fuer Kohlenforschung      #
                #                Kaiser Wilhelm Platz 1                 #
                #                 D-45470 Muelheim/Ruhr                 #
                #                      Germany                          #
                #                                                       #
                #                  All rights reserved                  #
                #                        -***-                          #
                #########################################################


                         Program Version 6.1.1  -  RELEASE   -
                                (GIT: $487d211c$)
                          ($2025-11-21 10:33:24 +0100$)


 With contributions from (in alphabetic order):
[Max-Planck-Institut fuer Kohlenforschung]                               
  Daniel Aravena         : Magnetic Suceptibility                        
  Michael Atanasov       : Ab Initio Ligand Field Theory (pilot matlab implementation)
  Alexander A. Auer      : GIAO ZORA, VPT2 properties, NMR spectrum      
  Ute Becker             : All parallelization in ORCA, NUMFREQ, NUMCALC 
  Giovanni Bistoni       : ED, misc. LED, open-shell LED, HFLD           
  Dmytro Bykov           : pre 5.0 version of the SCF Hessian            
  Marcos Casanova-Páez   : Triplet and SCS-CIS(D). UHF-(DLPNO)-IP/EA/STEOM-CCSD. UHF-CVS-IP/STEOM-CCSD   
  Vijay G. Chilkuri      : MRCI spin determinant printing, contributions to CSF-ICE 
  Pauline Colinet        : FMM embedding                                 
  Dipayan Datta          : RHF DLPNO-CCSD density                        
  Achintya Kumar Dutta   : EOM-CC, STEOM-CC                              
  Nicolas Foglia         : Exact transition moments, OPA infrastructure, MCD improvements    
  Dmitry Ganyushin       : Spin-Orbit,Spin-Spin,Magnetic field MRCI      
  Miquel Garcia-Rates    : C-PCM and meta-GGA Hessian, CCSD/C-PCM, Gaussian charge scheme 
  Tiago L. C. Gouveia    : GS-ROHF, GS-ROCIS                             
  Yang Guo               : DLPNO-NEVPT2, F12-NEVPT2, CIM, IAO-localization        
  Andreas Hansen         : Spin unrestricted coupled pair/coupled cluster methods 
  Ingolf Harden          : AUTO-CI MPn and infrastructure                
  Benjamin Helmich-Paris : MC-RPA, TRAH-(SCF,CASSCF), AVAS, COSX integrals, SCF dyn. polar., MC-PDFT, srDFT 
  Lee Huntington         : MR-EOM, pCC                                   
  Robert Izsak           : Overlap fitted RIJCOSX, COSX-SCS-MP3, EOM     
  Riya Kayal             : Wick's Theorem for AUTO-CI, AUTO-CI UHF-CCSDT 
  Emily Kempfer          : AUTO-CI RHF CISDT and CCSDT, approximate NEVPT4
  Christian Kollmar      : KDIIS, OOCD, Brueckner-CCSD(T), CCSD density, CASPT2, CASPT2-K, improved NEVPT2 
  Axel Koslowski         : Symmetry handling                             
  Simone Kossmann        : meta-GGA functionals, TD-DFT gradient, OOMP2, (MP2 Hessian; deprecated post 5.0) 
  Lucas Lang             : DCDCAS, Hyperfine gauge corrections, ICE-SOC+SSC
  Marvin Lechner         : AUTO-CI (C++ implementation), FIC-MRCC        
  Spencer Leger          : CASSCF response                               
  Dagmar Lenk            : GEPOL surface, SMD, ORCA-2-JSON               
  Dimitrios Liakos       : Extrapolation schemes; Compound Job, Property file
  Dimitrios Manganas     : Further ROCIS development; embedding schemes. LFT, Crystal Embedding 
  Dimitrios Pantazis     : SARC Basis sets                               
  Anastasios Papadopoulos: AUTO-CI, single reference methods and gradients 
  Taras Petrenko         : pre 6.0 DFT Hessian and TD-DFT gradient,  ECA, NRVS 
  Petra Pikulova         : Analytic Raman intensities                    
  Peter Pinski           : DLPNO-MP2, DLPNO-MP2 Gradient                 
  Shashank Vittal Rao    : ES-AILFT, MagRelax                            
  Christoph Reimann      : Effective Core Potentials                     
  Marius Retegan         : Local ZFS, SOC                                
  Christoph Riplinger    : Optimizer, TS searches, QM/MM, DLPNO-CCSD(T), (RO)-DLPNO pert. Triples 
  Michael Roemelt        : Original ROCIS implementation, recursive CI coupling coefficients
  Masaaki Saitow         : Open-shell DLPNO-CCSD energy and density      
  Barbara Sandhoefer     : DKH picture change effects                    
  Yorick L. A. Schmerwitz: GMF and freeze-and-release deltaSCF, NEB S-IDPP initial path                    
  Kantharuban Sivalingam : CASSCF convergence/infrastructure, NEVPT2, NEVPT3, NEVPT4(SD), FIC-MRCI and CEPA variants
  Bernardo de Souza      : ESD, SOC TD-DFT                               
  Georgi L. Stoychev     : AutoAux, RI-MP2 NMR, DLPNO-MP2 response, X2C  
  Van Anh Tran           : RI-MP2 g-tensors                              
  Willem Van den Heuvel  : Paramagnetic NMR                              
  Zikuan Wang            : NOTCH, Electric field optimization            
  Frank Wennmohs         : Technical directorship and infrastructure     
  Hang Xu                : AUTO-CI-Response properties                   
                                                                         
[FACCTs GmbH]                                                            
  Markus Bursch, Nicolas Foglia, Miquel Garcia-Rates, Ingolf Harden, Hagen Neugebauer, Anastasios Papadopoulos, 
  Christoph Riplinger, Bernardo de Souza, Georgi L. Stoychev                                                    
                                                                 
  APM, various basis sets, CI-OPT, improved COSX, DLPNO-Multilevel,           
  DOCKER, DRACO, updates on ESD, Fragmentator, GOAT, IRC, LR-CPCM, L-BFGS, MBIS, meta-GGA TD-DFT gradient, ML-optimized integration grids, 
  MM, NACMEs, nearIR, NEB, NEB-TS, NL-DFT gradient (VV10), 2- and 3-layer-ONIOM, interface openCOSMO-RS, QMMM,   
  Crystal-QMMM, RESP, rigid body optimization, SF, symmetry and pop. for TD-DFT, various functionals, SOLVATOR                                   
                                                                         
[Other institutions]                                                     
  V. Asgeirsson          : NEB                                           
  Christoph Bannwarth    : sTDA-DFT, sTD-DFT, PBEh-3c, B97-3c, D3        
  Giovanni Bistoni       : ETS/NOCV, ADLD/ADEX, COVALED                  
  Martin Brehm           : Molecular dynamics                            
  Ronald Cardenas        : ETS/NOCV                                      
  Martina Colucci        : COVALED                                       
  Sebastian Ehlert       : rSCAN, r2SCAN, r2SCAN-3c, D4, dhf basis sets  
  Marvin Friede          : D4 for Fr, Ra, Ac-Lr                          
  Lars Goerigk           : TD-DFT with DH, B97 family of functionals     
  Stefan Grimme          : VdW corrections, initial TS optimization, DFT functionals, gCP, sTDA/sTD-DF 
  Waldemar Hujo          : DFT-NL                                        
  H. Jonsson             : NEB                                           
  Holger Kruse           : gCP                                           
  Marcel Mueller         : wB97X-3c, vDZP basis set                      
  Hagen Neugebauer       : wr2SCAN, Native XTB                           
  Gianluca Regni         : ADLD/ADEX                                     
  Tobias Risthaus        : pre 6.0 range-separated hybrid DFT and stability analysis
  Lukas Wittmann         : regularized MP2, r2SCAN double-hybrids, wr2SCAN        
                                                                         
We gratefully acknowledge several colleagues who have allowed us to      
interface, adapt or use parts of their codes:                            
  Ed Valeev, F. Pavosevic, A. Kumar             : LibInt (2-el integral package), F12 methods 
  Garnet Chan, S. Sharma, J. Yang, R. Olivares  : DMRG                   
  Ulf Ekstrom                                   : XCFun DFT Library      
  Mihaly Kallay                                 : mrcc  (arbitrary order and MRCC methods)
  Frank Weinhold                                : gennbo (NPA and NBO analysis)           
  Simon Mueller                                 : openCOSMO-RS                            
  Christopher J. Cramer and Donald G. Truhlar   : smd solvation model                     
  S Lehtola, MJT Oliveira, MAL Marques          : LibXC Library                           
  Liviu Ungur et al                             : ANISO software                          


 Your calculation uses the libint2 library for the computation of 2-el integrals
 For citations please refer to: http://libint.valeyev.net

 Your ORCA version has been built with support for libXC version: 7.0.0
 For citations please refer to: https://libxc.gitlab.io

 This ORCA versions uses:
   CBLAS   interface :  Fast vector & matrix operations
   LAPACKE interface :  Fast linear algebra routines
   SCALAPACK package :  Parallel linear algebra routines
   Shared memory     :  Shared parallel matrices
   BLAS/LAPACK       :  OpenBLAS 0.3.29  USE64BITINT DYNAMIC_ARCH NO_AFFINITY Cooperlake SINGLE_THREADED
        Core in use  :  Cooperlake
   Copyright (c) 2011-2014, The OpenBLAS Project


  ***********************************
  * Starting time: Wed May 20 12:39:04 2026
  * Host name:     c1-37
  * Process ID:    660979
  * Working dir.:  /cluster/projects/nn14654k/ylvaos/basis_set_n_funcs/functionals/gga_x_b88/PO2/out
  ***********************************

Using LibXC functional ID 106 : Becke 88
[ 1]  A. D. Becke.,  Phys. Rev. A 38, 3098 (1988)
Using LibXC functional ID 106 : Becke 88
[ 1]  A. D. Becke.,  Phys. Rev. A 38, 3098 (1988)
Your calculation utilizes LibXC
by S. Lehtola, C. Steigemann, M. J. T. Oliveira & M. A. L. Marques
Please cite in your paper:
Lehtola, S.; Steigemann, C.; Oliveira, M.J.T.; Marques, M. A. L. Software X, 7, (2018), 1.
   

================================================================================

----- Orbital basis set information -----
Your calculation utilizes the basis: aug-cc-pVTZ 
    H, B-Ne : Obtained from the ccRepo (grant-hill.group.shef.ac.uk/ccrepo) Feb. 2017
              R. A. Kendall, T. H. Dunning, Jr., R. J. Harrison, J. Chem. Phys. 96, 6796 (1992)
         He : Obtained from the ccRepo (grant-hill.group.shef.ac.uk/ccrepo) Feb. 2017
              D. E. Woon, T. H. Dunning, Jr., J. Chem. Phys. 100, 2975 (1994)
  Li-Be, Na : Obtained from the ccRepo (grant-hill.group.shef.ac.uk/ccrepo) Feb. 2017
              B. P. Prascher, D. E. Woon, K. A. Peterson, T. H. Dunning, Jr., A. K. Wilson, Theor. Chem. Acc. 128, 69 (2011)
         Mg : Obtained from the Peterson Research Group Website (tyr0.chem.wsu.edu/~kipeters) Feb. 2017
              B. P. Prascher, D. E. Woon, K. A. Peterson, T. H. Dunning, Jr., A. K. Wilson, Theor. Chem. Acc. 128, 69 (2011)
      Al-Ar : Obtained from the ccRepo (grant-hill.group.shef.ac.uk/ccrepo) Feb. 2017
              D. E. Woon, T. H. Dunning, Jr., J. Chem. Phys. 98, 1358 (1993)
      Sc-Zn : Obtained from the ccRepo (grant-hill.group.shef.ac.uk/ccrepo) Feb. 2017
              N. B. Balabanov, K. A. Peterson, J. Chem. Phys. 123, 064107 (2005)
              N. B. Balabanov, K. A. Peterson, J. Chem. Phys. 125, 074110 (2006)
      Ga-Kr : Obtained from the ccRepo (grant-hill.group.shef.ac.uk/ccrepo) Feb. 2017
              A. K. Wilson, D. E. Woon, K. A. Peterson, T. H. Dunning, Jr., J. Chem. Phys. 110, 7667 (1999)
     Ag, Au : Obtained from the Peterson Research Group Website (tyr0.chem.wsu.edu/~kipeters) Feb. 2017
              K. A. Peterson, C. Puzzarini, Theor. Chem. Acc. 114, 283 (2005)

================================================================================
                                        WARNINGS
                       Please study these warnings very carefully!
================================================================================


WARNING: your system is open-shell and RHF/RKS was chosen
  ===> : WILL SWITCH to UHF/UKS


================================================================================
                                       INPUT FILE
================================================================================
NAME = /cluster/projects/nn14654k/ylvaos/basis_set_n_funcs/functionals/gga_x_b88/PO2/inp/PO2_gga_x_b88_augccpvtz.inp
|  1> ! dft aug-cc-pVTZ TightSCF
|  2> %pal nprocs 8 end
|  3> 
|  4> %loc
|  5>   LocMet NewBoys
|  6>   Occ true
|  7> end
|  8> 
|  9> %method
| 10>   exchange gga_x_b88
| 11>   correlation None
| 12> end
| 13> 
| 14> %elprop
| 15>   Dipole true
| 16>   Quadrupole true
| 17> end
| 18> 
| 19> * xyz 0 2
| 20> P    0.000000000000   0.000000000000   0.287900000000
| 21> O    0.000000000000   1.356300000000  -0.269900000000
| 22> O    0.000000000000  -1.356300000000  -0.269900000000
| 23> *
| 24> 
| 25> 
| 26>                          ****END OF INPUT****
================================================================================

                       ****************************
                       * Single Point Calculation *
                       ****************************

---------------------------------
CARTESIAN COORDINATES (ANGSTROEM)
---------------------------------
  P      0.000000    0.000000    0.287900
  O      0.000000    1.356300   -0.269900
  O      0.000000   -1.356300   -0.269900

----------------------------
CARTESIAN COORDINATES (A.U.)
----------------------------
  NO LB      ZA    FRAG     MASS         X           Y           Z
   0 P    15.0000    0    30.974    0.000000    0.000000    0.544052
   1 O     8.0000    0    15.999    0.000000    2.563036   -0.510037
   2 O     8.0000    0    15.999    0.000000   -2.563036   -0.510037

--------------------------------
INTERNAL COORDINATES (ANGSTROEM)
--------------------------------
 P      0   0   0     0.000000000000     0.00000000     0.00000000
 O      1   0   0     1.466523279733     0.00000000     0.00000000
 O      1   2   0     1.466523279733   135.28860674     0.00000000

---------------------------
INTERNAL COORDINATES (A.U.)
---------------------------
 P      0   0   0     0.000000000000     0.00000000     0.00000000
 O      1   0   0     2.771327367716     0.00000000     0.00000000
 O      1   2   0     2.771327367716   135.28860674     0.00000000

---------------------
BASIS SET INFORMATION
---------------------
There are 2 groups of distinct atoms

 Group   1 Type P   : 42s17p3d2f contracted to 6s5p3d2f pattern {131313111/77111/111/11}
 Group   2 Type O   : 19s6p3d2f contracted to 5s4p3d2f pattern {88111/3111/111/11}

Atom   0P    basis set group =>   1
Atom   1O    basis set group =>   2
Atom   2O    basis set group =>   2


           ************************************************************
           *        Program running with 8 parallel MPI-processes     *
           *              working on a common directory               *
           ************************************************************
------------------------------------------------------------------------------
                             ORCA STARTUP CALCULATIONS
------------------------------------------------------------------------------
------------------------------------------------------------------------------
                   ___                                                        
                  /   \      - P O W E R E D   B Y -                         
                 /     \                                                     
                 |  |  |   _    _      __       _____    __    __             
                 |  |  |  | |  | |    /  \     |  _  \  |  |  /  |          
                  \  \/   | |  | |   /    \    | | | |  |  | /  /          
                 / \  \   | |__| |  /  /\  \   | |_| |  |  |/  /          
                |  |  |   |  __  | /  /__\  \  |    /   |      \           
                |  |  |   | |  | | |   __   |  |    \   |  |\   \          
                \     /   | |  | | |  |  |  |  | |\  \  |  | \   \       
                 \___/    |_|  |_| |__|  |__|  |_| \__\ |__|  \__/        
                                                                              
                      - O R C A' S   B I G   F R I E N D -                    
                                      &                                       
                       - I N T E G R A L  F E E D E R -                       
                                                                              
 v1 FN, 2020, v2 2021, v3 2022-2024                                           
------------------------------------------------------------------------------


----------------------
SHARK INTEGRAL PACKAGE
----------------------

Number of atoms                             ...      3
Number of basis functions                   ...    179
Number of shells                            ...     71
Maximum angular momentum                    ...      3
Integral batch strategy                     ... SHARK/LIBINT Hybrid
RI-J (if used) integral strategy            ... SPLIT-RIJ (Revised 2003 algorithm where possible)
Printlevel                                  ...      1
Contraction scheme used                     ... PARTIAL GENERAL contraction
Prescreening option                         ... SCHWARTZ
   Thresh                                   ... 2.500e-11
   Tcut                                     ... 2.500e-12
   Tpresel                                  ... 2.500e-12 
Coulomb Range Separation                    ... NOT USED
Exchange Range Separation                   ... NOT USED
Multipole approximations                    ... NOT USED
Finite Nucleus Model                        ... NOT USED
CABS basis                                  ... NOT available
Auxiliary Coulomb fitting basis             ... NOT available
Auxiliary J/K fitting basis                 ... NOT available
Auxiliary Correlation fitting basis         ... NOT available
Auxiliary 'external' fitting basis          ... NOT available

Checking pre-screening integrals            ... done (  0.0 sec) Dimension = 71
Save PGC pre-screening integrals            ... done (  0.0 sec) Dimension = 71
Calculate PGC overlap integrals             ... done (  0.0 sec) Dimension = 44
Calculating pre-screening integrals (ORCA)  ... done (  0.0 sec) Dimension = 44
Shell pair information
Shell pair cut-off parameter TPreSel        ...   2.5e-12
Total number of shell pairs                 ...      2556
Shell pairs after pre-screening             ...      2233
Total number of primitive shell pairs       ...      2856
Primitive shell pairs kept                  ...      2429
          la=0 lb=0:    528 shell pairs
          la=1 lb=0:    602 shell pairs
          la=1 lb=1:    171 shell pairs
          la=2 lb=0:    328 shell pairs
          la=2 lb=1:    162 shell pairs
          la=2 lb=2:     45 shell pairs
          la=3 lb=0:    214 shell pairs
          la=3 lb=1:    108 shell pairs
          la=3 lb=2:     54 shell pairs
          la=3 lb=3:     21 shell pairs

Checking whether 4 symmetric matrices of dimension 179 fit in memory
:Max Core in MB      =   4096.00
 MB in use           =      4.38
 MB left             =   4091.62
 MB needed           =      0.49
 Data fit in memory  = YES
Calculating Nuclear repulsion               ... done (  0.0 sec) ENN=     99.086296046297 Eh

Diagonalization of the overlap matrix:
Smallest eigenvalue                        ... 2.902e-04
Time for diagonalization                   ...    0.001 sec
Threshold for overlap eigenvalues          ... 1.000e-07
Number of eigenvalues below threshold      ... 0
Time for construction of square roots      ...    0.002 sec
Total time needed                          ...    0.005 sec

-------------------
DFT GRID GENERATION
-------------------

General Integration Accuracy     IntAcc      ... 4.388
Radial Grid Type                 RadialGrid  ... OptM3 with GC (2021)
Angular Grid (max. ang.)         AngularGrid ... 4 (Lebedev-302)
Angular grid pruning method      GridPruning ... 4 (adaptive)
Weight generation scheme         WeightScheme... mBecke (2022)
Basis function cutoff            BFCut       ... 1.0000e-11
Integration weight cutoff        WCut        ... 1.0000e-14
Partially contracted basis set               ... off
Rotationally invariant grid construction     ... off
Angular grids for H and He will be reduced by one unit
Diffuse basis detected: some atoms will have their outermost
                        angular grid increased by 1.

Total number of grid points                  ...    20582
Total number of batches                      ...      323
Average number of points per batch           ...       63
Average number of grid points per atom       ...     6861

---------------------
SHARK GRID GENERATION
---------------------

General Integration Accuracy     IntAcc      ... 4.388
Radial Grid Type                 RadialGrid  ... OptM3 with GC (2021)
Angular Grid (max. ang.)         AngularGrid ... 4 (Lebedev-302)
Angular grid pruning method      GridPruning ... 4 (adaptive)
Weight generation scheme         WeightScheme... mBecke (2022)
Basis function cutoff            BFCut       ... 1.0000e-11
Integration weight cutoff        WCut        ... 1.0000e-14
Partially contracted basis set               ... off
Rotationally invariant grid construction     ... off
Angular grids for H and He will be reduced by one unit
Diffuse basis detected: some atoms will have their outermost
                        angular grid increased by 1.
Core-polarized basis detected: some atoms will have their core
                               angular grid increased.
Steep s-basis detected: some atoms will have their radial
                        grid points doubled.

Total number of grid points                  ...    46090
Total number of batches                      ...      722
Average number of points per batch           ...       63
Average number of grid points per atom       ...    15363
Grids setup in   0.5 sec
Initializing property integral containers    ... done (  0.0 sec)

SHARK setup successfully completed in   0.6 seconds

Maximum memory used throughout the entire STARTUP-calculation: 49.2 MB


           ************************************************************
           *        Program running with 8 parallel MPI-processes     *
           *              working on a common directory               *
           ************************************************************
-------------------------------------------------------------------------------
                                 ORCA GUESS
                   Start orbitals & Density for SCF / CASSCF
-------------------------------------------------------------------------------

------------
SCF SETTINGS
------------
Hamiltonian:
 Density Functional     Method          .... DFT(GTOs)
  Functional kind                       .... Exchange
  Functional name                       .... Becke 88
  Functional family                     .... GGA
  Functional refs                              
    [ 0] A. D. Becke.,  Phys. Rev. A 38, 3098 (1988), doi: 10.1103/PhysRevA.38.3098
  Functional external parameters        .... 2
    Parameter  0 _beta      =  4.200000e-03 : beta/X_FACTOR_C is the coefficient of the gradient expansion
    Parameter  1 _gamma     =  6.000000e+00 : gamma should be 6 to get the right asymptotics of Ex
 Correlation Functional Correlation     .... No Correlation
 Gradients option       PostSCFGGA      .... off


General Settings:
 Integral files         IntName         .... /cluster/projects/nn14654k/ylvaos/basis_set_n_funcs/functionals/gga_x_b88/PO2/inp/PO2_gga_x_b88_augccpvtz
 Hartree-Fock type      HFTyp           .... UHF
 Total Charge           Charge          ....    0
 Multiplicity           Mult            ....    2
 Number of Electrons    NEL             ....   31
 Basis Dimension        Dim             ....  142
 Nuclear Repulsion      ENuc            ....     99.0862960463 Eh

Convergence Acceleration:
 AO-DIIS                CNVDIIS         .... on
   Start iteration      DIISMaxIt       ....    12
   Startup error        DIISStart       ....  0.200000
   # of expansion vecs  DIISMaxEq       ....     5
   Bias factor          DIISBfac        ....   1.050
   Max. coefficient     DIISMaxC        ....  10.000
 MO-DIIS                CNVKDIIS        .... off
 Trust-Rad. Augm. Hess. CNVTRAH         .... auto
   Auto Start mean grad. ratio tolernc. ....  1.125000
   Auto Start start iteration           ....    50
   Auto Start num. interpolation iter.  ....    10
   Max. Number of Micro iterations      ....    24
   Max. Number of Macro iterations      .... Maxiter - #DIIS iter
   Number of Davidson start vectors     ....     2
   Converg. threshold    (grad. norm)   ....   1.000e-05
   Grad. Scal. Fac. for Micro threshold ....   0.100
   Minimum threshold for Micro iter.    ....   1.000e-02
   NR start threshold (gradient norm)   ....   1.000e-04
   Initial trust radius                 ....   0.400
   Minimum AH scaling param. (alpha)    ....   1.000
   Maximum AH scaling param. (alpha)    .... 1000.000
   Quad. conv. algorithm                .... NR
   White noise on init. David. guess    .... on
   Maximum white noise                  ....   0.010
   Pseudo random numbers                .... off
   Inactive MOs                         .... canonical
   Orbital update algorithm             .... Taylor
   Preconditioner                       .... Diag
   Full preconditioner red. dimension   ....   250
 SOSCF                 CNVSOSCF           .... on
   Start iteration     SOSCFMaxIt         ....   150
   Startup grad/error  SOSCFStart         ....  0.003300
   Hessian update      SOSCFHessUp        .... L-BFGS
   Autom. constraints  SOSCFAutoConstrain .... off
 Level Shifting         CNVShift        .... on
   Level shift para.    LevelShift      ....    0.2500
   Turn off err/grad.   ShiftErr        ....    0.0010
 Zerner damping         CNVZerner       .... off
 Static damping         CNVDamp         .... on
   Fraction old density DampFac         ....    0.7000
   Max. Damping (<1)    DampMax         ....    0.9800
   Min. Damping (>=0)   DampMin         ....    0.0000
   Turn off err/grad.   DampErr         ....    0.1000

SCF Procedure:
 Maximum # iterations   MaxIter         ....   125
 SCF integral mode      SCFMode         .... Direct
   Integral package                     .... SHARK and LIBINT hybrid scheme
 Reset frequency        DirectResetFreq ....    20
 Integral Threshold     Thresh          ....  2.500e-11 Eh
 Primitive CutOff       TCut            ....  2.500e-12 Eh

Convergence Tolerance:
 Convergence Check Mode ConvCheckMode   .... Total+1el-Energy
 Convergence forced     ConvForced      .... 0
 Energy Change          TolE            ....  1.000e-08 Eh
 1-El. energy change                    ....  1.000e-05 Eh
 Orbital Gradient       TolG            ....  1.000e-05
 Orbital Rotation angle TolX            ....  1.000e-05
 DIIS Error             TolErr          ....  5.000e-07

------------------------------
INITIAL GUESS: MODEL POTENTIAL
------------------------------
Loading Hartree-Fock densities                     ... done
Calculating cut-offs                               ... done
Initializing the effective Hamiltonian             ... done
Setting up the integral package (SHARK)            ... done
Starting the Coulomb interaction                   ... done (   0.0 sec)
Making the grid                                    ... done (   0.0 sec)
Mapping shells                                     ... done
Starting the XC term evaluation                    ... done (   0.0 sec)
  promolecular density results
     # of electrons  =     31.000240993
     EX              =    -39.004842160
     EC              =      0.000000000
     EX+EC           =    -39.004842160
Transforming the Hamiltonian                       ... done (   0.0 sec)
Diagonalizing the Hamiltonian                      ... done (   0.0 sec)
Back transforming the eigenvectors                 ... done (   0.0 sec)
Now organizing SCF variables                       ... done
                      ------------------
                      INITIAL GUESS DONE (   0.1 sec)
                      ------------------
             **** ENERGY FILE WAS UPDATED (/cluster/projects/nn14654k/ylvaos/basis_set_n_funcs/functionals/gga_x_b88/PO2/inp/PO2_gga_x_b88_augccpvtz.en.tmp) ****
Finished Guess after   0.1 sec
Maximum memory used throughout the entire GUESS-calculation: 8.6 MB


           ************************************************************
           *        Program running with 8 parallel MPI-processes     *
           *              working on a common directory               *
           ************************************************************

-------------------------------------------------------------------------------------------
                                      ORCA LEAN-SCF
                              memory conserving SCF solver
-------------------------------------------------------------------------------------------

----------------------------------------D-I-I-S--------------------------------------------
Iteration    Energy (Eh)           Delta-E    RMSDP     MaxDP     DIISErr   Damp  Time(sec)
-------------------------------------------------------------------------------------------
               ***  Starting incremental Fock matrix formation  ***
    1    -490.3998480749942814     0.00e+00  4.50e-03  5.38e-02  1.75e-01  0.700   0.3
Warning: op=1 Small HOMO/LUMO gap (   0.062) - skipping pre-diagonalization
         Will do a full diagonalization
    2    -490.5506884635596521    -1.51e-01  1.86e-03  2.25e-02  3.70e-02  0.700   0.3
                               ***Turning on AO-DIIS***
    3    -490.5797777333881982    -2.91e-02  7.20e-04  1.01e-02  1.82e-02  0.700   0.5
    4    -490.6017172671810727    -2.19e-02  1.23e-03  1.61e-02  2.43e-02  0.000   0.2
    5    -490.6641246884193492    -6.24e-02  4.24e-04  5.56e-03  1.51e-02  0.000   0.2
    6    -490.6664486876424576    -2.32e-03  1.96e-04  2.53e-03  6.05e-03  0.000   0.2
                              *** Initializing SOSCF ***
---------------------------------------S-O-S-C-F--------------------------------------
Iteration    Energy (Eh)           Delta-E    RMSDP     MaxDP     MaxGrad    Time(sec)
--------------------------------------------------------------------------------------
    7    -490.6668098125989559    -3.61e-04  9.89e-05  1.09e-03  2.47e-03     0.3
               *** Restarting incremental Fock matrix formation ***
    8    -490.6668736652665643    -6.39e-05  1.61e-04  1.85e-03  1.69e-03     0.3
    9    -490.6668164935685468     5.72e-05  9.75e-05  1.11e-03  3.46e-03     0.2
   10    -490.6668908834114404    -7.44e-05  1.84e-05  1.46e-04  1.55e-04     0.2
   11    -490.6668912356767009    -3.52e-07  6.85e-06  9.21e-05  7.59e-05     0.2
   12    -490.6668913574871453    -1.22e-07  2.27e-06  2.09e-05  1.39e-05     0.2
   13    -490.6668913640729102    -6.59e-09  6.56e-07  6.00e-06  9.20e-06     0.2
                 **** Energy Check signals convergence ****

               *****************************************************
               *                     SUCCESS                       *
               *           SCF CONVERGED AFTER  13 CYCLES          *
               *****************************************************

             **** ENERGY FILE WAS UPDATED (/cluster/projects/nn14654k/ylvaos/basis_set_n_funcs/functionals/gga_x_b88/PO2/inp/PO2_gga_x_b88_augccpvtz.en.tmp) ****

----------------
TOTAL SCF ENERGY
----------------

Total Energy       :       -490.66689136551980 Eh          -13351.72490 eV

Components:
Nuclear Repulsion  :         99.08629604629714 Eh            2696.27519 eV
Electronic Energy  :       -589.75318741181695 Eh          -16048.00009 eV
One Electron Energy:       -874.78502300744697 Eh          -23804.11065 eV
Two Electron Energy:        285.03183559562996 Eh            7756.11056 eV

Virial components:
Potential Energy   :       -980.48630995737085 Eh          -26680.38890 eV
Kinetic Energy     :        489.81941859185110 Eh           13328.66400 eV
Virial Ratio       :          2.00173017389981

DFT components:
N(Alpha)           :       16.000013272055 electrons
N(Beta)            :       15.000012561510 electrons
N(Total)           :       31.000025833565 electrons
E(X)               :      -39.174111450364 Eh       
E(C)               :        0.000000000000 Eh       
E(XC)              :      -39.174111450364 Eh       

---------------
SCF CONVERGENCE
---------------

  Last Energy change         ...    6.5858e-09  Tolerance :   1.0000e-08
  Last MAX-Density change    ...    5.9974e-06  Tolerance :   1.0000e-07
  Last RMS-Density change    ...    6.5562e-07  Tolerance :   5.0000e-09
  Last DIIS Error            ...    2.4713e-03  Tolerance :   5.0000e-07
  Last Orbital Gradient      ...    9.2024e-06  Tolerance :   1.0000e-05
  Last Orbital Rotation      ...    1.8566e-05  Tolerance :   1.0000e-05


----------------------
UHF SPIN CONTAMINATION
----------------------

Warning: in a DFT calculation there is little theoretical justification to 
         calculate <S**2> as in Hartree-Fock theory. We will do it anyways
         but you should keep in mind that the values have only limited relevance

Expectation value of <S**2>     :     0.754470
Ideal value S*(S+1) for S=0.5   :     0.750000
Deviation                       :     0.004470

----------------
ORBITAL ENERGIES
----------------
                 SPIN UP ORBITALS
  NO   OCC          E(Eh)            E(eV) 
   0   1.0000     -76.474101     -2080.9661 
   1   1.0000     -18.801358      -511.6110 
   2   1.0000     -18.801356      -511.6109 
   3   1.0000      -6.385315      -173.7533 
   4   1.0000      -4.612023      -125.4995 
   5   1.0000      -4.609296      -125.4253 
   6   1.0000      -4.605966      -125.3347 
   7   1.0000      -0.954962       -25.9858 
   8   1.0000      -0.910150       -24.7664 
   9   1.0000      -0.480411       -13.0726 
  10   1.0000      -0.383628       -10.4391 
  11   1.0000      -0.369197       -10.0464 
  12   1.0000      -0.369027       -10.0417 
  13   1.0000      -0.300064        -8.1652 
  14   1.0000      -0.292496        -7.9592 
  15   1.0000      -0.241740        -6.5781 
  16   0.0000      -0.094750        -2.5783 
  17   0.0000      -0.009374        -0.2551 
  18   0.0000       0.016614         0.4521 
  19   0.0000       0.028331         0.7709 
  20   0.0000       0.037505         1.0206 
  21   0.0000       0.060279         1.6403 
  22   0.0000       0.103426         2.8144 
  23   0.0000       0.110209         2.9989 
  24   0.0000       0.118267         3.2182 
  25   0.0000       0.119289         3.2460 
  26   0.0000       0.133174         3.6239 

                 SPIN DOWN ORBITALS
  NO   OCC          E(Eh)            E(eV) 
   0   1.0000     -76.472356     -2080.9186 
   1   1.0000     -18.794664      -511.4288 
   2   1.0000     -18.794662      -511.4288 
   3   1.0000      -6.382808      -173.6850 
   4   1.0000      -4.609563      -125.4326 
   5   1.0000      -4.604630      -125.2984 
   6   1.0000      -4.604273      -125.2886 
   7   1.0000      -0.939102       -25.5543 
   8   1.0000      -0.893501       -24.3134 
   9   1.0000      -0.453903       -12.3513 
  10   1.0000      -0.361670        -9.8415 
  11   1.0000      -0.359722        -9.7885 
  12   1.0000      -0.350598        -9.5402 
  13   1.0000      -0.295196        -8.0327 
  14   1.0000      -0.281227        -7.6526 
  15   0.0000      -0.184544        -5.0217 
  16   0.0000      -0.066447        -1.8081 
  17   0.0000       0.005614         0.1528 
  18   0.0000       0.028947         0.7877 
  19   0.0000       0.031704         0.8627 
  20   0.0000       0.042677         1.1613 
  21   0.0000       0.071089         1.9344 
  22   0.0000       0.111533         3.0350 
  23   0.0000       0.113057         3.0764 
  24   0.0000       0.120545         3.2802 
  25   0.0000       0.130781         3.5587 
*Only the first 10 virtual orbitals were printed.

                    ********************************
                    * MULLIKEN POPULATION ANALYSIS *
                    ********************************

--------------------------------------------
MULLIKEN ATOMIC CHARGES AND SPIN POPULATIONS
--------------------------------------------
   0 P :    1.137868    0.509712
   1 O :   -0.568934    0.245144
   2 O :   -0.568934    0.245144
Sum of atomic charges         :   -0.0000000
Sum of atomic spin populations:    1.0000000

-----------------------------------------------------
MULLIKEN REDUCED ORBITAL CHARGES AND SPIN POPULATIONS
-----------------------------------------------------
CHARGE
  0 P s       :     5.471438  s :     5.471438
      pz      :     2.766058  p :     7.898027
      px      :     2.643881
      py      :     2.488087
      dz2     :     0.058629  d :     0.470315
      dxz     :     0.005398
      dyz     :     0.156053
      dx2y2   :     0.110861
      dxy     :     0.139374
      f0      :     0.003928  f :     0.022352
      f+1     :     0.000125
      f-1     :     0.007747
      f+2     :     0.007075
      f-2     :     0.004113
      f+3     :    -0.002297
      f-3     :     0.001661

  1 O s       :     3.924065  s :     3.924065
      pz      :     1.594864  p :     4.584787
      px      :     1.582600
      py      :     1.407323
      dz2     :     0.007921  d :     0.055608
      dxz     :     0.002926
      dyz     :     0.017389
      dx2y2   :     0.009952
      dxy     :     0.017419
      f0      :     0.000206  f :     0.004474
      f+1     :     0.000057
      f-1     :     0.001356
      f+2     :     0.000432
      f-2     :     0.000424
      f+3     :     0.001276
      f-3     :     0.000722

  2 O s       :     3.924066  s :     3.924066
      pz      :     1.594864  p :     4.584787
      px      :     1.582600
      py      :     1.407323
      dz2     :     0.007921  d :     0.055608
      dxz     :     0.002926
      dyz     :     0.017389
      dx2y2   :     0.009952
      dxy     :     0.017419
      f0      :     0.000206  f :     0.004474
      f+1     :     0.000057
      f-1     :     0.001356
      f+2     :     0.000432
      f-2     :     0.000424
      f+3     :     0.001276
      f-3     :     0.000722


SPIN
  0 P s       :     0.224152  s :     0.224152
      pz      :     0.198256  p :     0.184457
      px      :     0.027994
      py      :    -0.041794
      dz2     :     0.038940  d :     0.112152
      dxz     :    -0.004787
      dyz     :     0.001528
      dx2y2   :     0.072121
      dxy     :     0.004350
      f0      :     0.000314  f :    -0.011049
      f+1     :    -0.000159
      f-1     :    -0.005624
      f+2     :     0.000582
      f-2     :    -0.000474
      f+3     :    -0.004164
      f-3     :    -0.001522

  1 O s       :     0.028982  s :     0.028982
      pz      :     0.175721  p :     0.213654
      px      :    -0.012225
      py      :     0.050159
      dz2     :     0.000031  d :     0.002104
      dxz     :     0.000007
      dyz     :     0.001084
      dx2y2   :     0.000315
      dxy     :     0.000667
      f0      :    -0.000005  f :     0.000404
      f+1     :    -0.000014
      f-1     :     0.000109
      f+2     :     0.000091
      f-2     :     0.000081
      f+3     :     0.000104
      f-3     :     0.000038

  2 O s       :     0.028982  s :     0.028982
      pz      :     0.175721  p :     0.213654
      px      :    -0.012225
      py      :     0.050159
      dz2     :     0.000031  d :     0.002104
      dxz     :     0.000007
      dyz     :     0.001084
      dx2y2   :     0.000315
      dxy     :     0.000667
      f0      :    -0.000005  f :     0.000404
      f+1     :    -0.000014
      f-1     :     0.000109
      f+2     :     0.000091
      f-2     :     0.000081
      f+3     :     0.000104
      f-3     :     0.000038



                     *******************************
                     * LOEWDIN POPULATION ANALYSIS *
                     *******************************

-------------------------------------------
LOEWDIN ATOMIC CHARGES AND SPIN POPULATIONS
-------------------------------------------
   0 P :    0.296390    0.485421
   1 O :   -0.148195    0.257289
   2 O :   -0.148195    0.257289

----------------------------------------------------
LOEWDIN REDUCED ORBITAL CHARGES AND SPIN POPULATIONS
----------------------------------------------------
CHARGE
  0 P s       :     4.803164  s :     4.803164
      pz      :     2.721073  p :     8.029748
      px      :     2.566573
      py      :     2.742103
      dz2     :     0.169499  d :     1.321054
      dxz     :     0.015203
      dyz     :     0.425319
      dx2y2   :     0.365958
      dxy     :     0.345075
      f0      :     0.050985  f :     0.549643
      f+1     :     0.000824
      f-1     :     0.151221
      f+2     :     0.110154
      f-2     :     0.064870
      f+3     :     0.062912
      f-3     :     0.108678

  1 O s       :     3.465181  s :     3.465181
      pz      :     1.458787  p :     4.412860
      px      :     1.406890
      py      :     1.547183
      dz2     :     0.023251  d :     0.207094
      dxz     :     0.005377
      dyz     :     0.079022
      dx2y2   :     0.054552
      dxy     :     0.044893
      f0      :     0.007211  f :     0.063060
      f+1     :     0.000483
      f-1     :     0.011301
      f+2     :     0.015796
      f-2     :     0.004268
      f+3     :     0.010362
      f-3     :     0.013638

  2 O s       :     3.465181  s :     3.465181
      pz      :     1.458787  p :     4.412860
      px      :     1.406890
      py      :     1.547183
      dz2     :     0.023251  d :     0.207094
      dxz     :     0.005377
      dyz     :     0.079022
      dx2y2   :     0.054552
      dxy     :     0.044893
      f0      :     0.007211  f :     0.063060
      f+1     :     0.000483
      f-1     :     0.011301
      f+2     :     0.015796
      f-2     :     0.004268
      f+3     :     0.010362
      f-3     :     0.013638


SPIN
  0 P s       :     0.159167  s :     0.159167
      pz      :     0.156583  p :     0.166674
      px      :     0.022864
      py      :    -0.012772
      dz2     :     0.070521  d :     0.157410
      dxz     :    -0.004090
      dyz     :    -0.004039
      dx2y2   :     0.096005
      dxy     :    -0.000987
      f0      :     0.001856  f :     0.002170
      f+1     :    -0.000216
      f-1     :    -0.001787
      f+2     :     0.007205
      f-2     :    -0.000683
      f+3     :    -0.004805
      f-3     :     0.000599

  1 O s       :     0.037251  s :     0.037251
      pz      :     0.155118  p :     0.199305
      px      :    -0.008269
      py      :     0.052456
      dz2     :     0.002215  d :     0.018305
      dxz     :     0.000319
      dyz     :     0.013931
      dx2y2   :     0.000391
      dxy     :     0.001449
      f0      :    -0.000008  f :     0.002428
      f+1     :    -0.000022
      f-1     :     0.001417
      f+2     :     0.000387
      f-2     :     0.000251
      f+3     :     0.000231
      f-3     :     0.000173

  2 O s       :     0.037251  s :     0.037251
      pz      :     0.155118  p :     0.199305
      px      :    -0.008269
      py      :     0.052456
      dz2     :     0.002215  d :     0.018305
      dxz     :     0.000319
      dyz     :     0.013931
      dx2y2   :     0.000391
      dxy     :     0.001449
      f0      :    -0.000008  f :     0.002428
      f+1     :    -0.000022
      f-1     :     0.001417
      f+2     :     0.000387
      f-2     :     0.000251
      f+3     :     0.000231
      f-3     :     0.000173



                      *****************************
                      * MAYER POPULATION ANALYSIS *
                      *****************************

  NA   - Mulliken gross atomic population
  ZA   - Total nuclear charge
  QA   - Mulliken gross atomic charge
  VA   - Mayer's total valence
  BVA  - Mayer's bonded valence
  FA   - Mayer's free valence

  ATOM       NA         ZA         QA         VA         BVA        FA
  0 P     13.8621    15.0000     1.1379     3.8884     3.5469     0.3415
  1 O      8.5689     8.0000    -0.5689     1.9939     1.9541     0.0398
  2 O      8.5689     8.0000    -0.5689     1.9939     1.9541     0.0398

  Mayer bond orders larger than 0.100000
B(  0-P ,  1-O ) :   1.7735 B(  0-P ,  2-O ) :   1.7735 B(  1-O ,  2-O ) :   0.1807 


-------
TIMINGS
-------

Total SCF time: 0 days 0 hours 0 min 3 sec 

Total time                  ....       3.644 sec
Sum of individual times     ....       3.449 sec  ( 94.7%)

SCF preparation             ....       0.071 sec  (  1.9%)
Fock matrix formation       ....       2.830 sec  ( 77.7%)
  Startup                   ....       0.023 sec  (  0.8% of F)
  Coulomb formation         ....       1.951 sec  ( 69.0% of F)
  XC integration            ....       0.738 sec  ( 26.1% of F)
    XC Preparation          ....       0.000 sec  (  0.0% of XC)
    Basis function eval.    ....       0.054 sec  (  7.3% of XC)
    Density eval.           ....       0.062 sec  (  8.4% of XC)
    XC-Functional eval.     ....       0.012 sec  (  1.6% of XC)
    XC-Potential eval.      ....       0.167 sec  ( 22.7% of XC)
Diagonalization             ....       0.000 sec  (  0.0%)
Density matrix formation    ....       0.123 sec  (  3.4%)
Total Energy calculation    ....       0.033 sec  (  0.9%)
Population analysis         ....       0.015 sec  (  0.4%)
Orbital Transformation      ....       0.032 sec  (  0.9%)
Orbital Orthonormalization  ....       0.000 sec  (  0.0%)
DIIS solution               ....       0.248 sec  (  6.8%)
SOSCF solution              ....       0.098 sec  (  2.7%)
Finished LeanSCF after   3.7 sec

Maximum memory used throughout the entire LEANSCF-calculation: 13.1 MB


           ************************************************************
           *        Program running with 8 parallel MPI-processes     *
           *              working on a common directory               *
           ************************************************************

------------------------------------------------------------------------------
                         ORCA PROPERTY INTEGRAL CALCULATIONS
------------------------------------------------------------------------------

GBWName                                   ... /cluster/projects/nn14654k/ylvaos/basis_set_n_funcs/functionals/gga_x_b88/PO2/inp/PO2_gga_x_b88_augccpvtz.gbw
Number of atoms                           ...      3
Number of basis functions                 ...    179
Max core memory                           ...   4096 MB

Dipole integrals                          ... YES
Quadrupole integrals                      ... YES
Linear momentum integrals                 ...  NO
Angular momentum integrals                ...  NO
Higher moments length integrals           ...  NO
Higher moments velocity integrals         ...  NO
Kinetic energy integrals                  ...  NO
GIAO right hand sides                     ...  NO
GIAO dipole derivative integrals          ...  NO
SOC integrals                             ...  NO
EPR diamagnetic integrals (GIAO)          ...  NO
EPR gauge integrals                       ...  NO
Field gradient integrals                  ...  NO (   0 nuclei)
Spin-dipole/Fermi contact integrals       ...  NO (   0 nuclei)
Contact density integrals                 ...  NO (   0 nuclei)
Nucleus-orbit integrals                   ...  NO (   0 nuclei)
Geometric perturbations                   ...  NO (   3 nuclei)

Choice of electric origin   ... Center of mass
Position of electric origin ... (  0.0000,  0.0000,  0.0084) 
Choice of magnetic origin   ... GIAO
Position of magnetic origin ... (  0.0000,  0.0000,  0.0000) 

Calculating integrals                     ... Electric Dipole (Length)     done (  0.0 sec)
Calculating integrals                     ... Electric Quadrupole (Length) done (  0.0 sec)

Property integrals calculated in   0.0 sec

Maximum memory used throughout the entire PROPINT-calculation: 9.3 MB
------------------------------------------------------------------------------
                           ORCA ORBITAL LOCALIZATION
------------------------------------------------------------------------------

Input orbitals are from                  ... /cluster/projects/nn14654k/ylvaos/basis_set_n_funcs/functionals/gga_x_b88/PO2/inp/PO2_gga_x_b88_augccpvtz.gbw
Output orbitals are to                   ... /cluster/projects/nn14654k/ylvaos/basis_set_n_funcs/functionals/gga_x_b88/PO2/inp/PO2_gga_x_b88_augccpvtz.loc
Max. number of iterations                ... 128
Localizations seeded randomly            ... on
Convergence tolerance                    ... 1.000e-06
Threshold for strong local MOs           ... 9.500e-01
Threshold for bond MOs                   ... 8.500e-01
Operator                                 ... 0
Orbital range for localization           ... 4 to 15
Localization criterion                   ... NEW-BOYS
Doing the dipole integrals               ... o.k.
Initial value of the localization sum :    34.303457
ITERATION   0 : L=   47.6695742288 DL=  1.34e+01 (AVERGE_DL)=    0.4500188058 
ITERATION   1 : L=   49.8999292002 DL=  2.23e+00 (AVERGE_DL)=    0.1838294240 
ITERATION   2 : L=   50.1705441716 DL=  2.71e-01 (AVERGE_DL)=    0.0640330137 
ITERATION   3 : L=   50.2465560598 DL=  7.60e-02 (AVERGE_DL)=    0.0339366362 
ITERATION   4 : L=   50.2884351525 DL=  4.19e-02 (AVERGE_DL)=    0.0251899128 
ITERATION   5 : L=   50.3228689201 DL=  3.44e-02 (AVERGE_DL)=    0.0228412730 
ITERATION   6 : L=   50.3564122501 DL=  3.35e-02 (AVERGE_DL)=    0.0225440075 
ITERATION   7 : L=   50.3826865377 DL=  2.63e-02 (AVERGE_DL)=    0.0199523248 
ITERATION   8 : L=   50.3968014939 DL=  1.41e-02 (AVERGE_DL)=    0.0146240546 
ITERATION   9 : L=   50.4023761221 DL=  5.57e-03 (AVERGE_DL)=    0.0091904332 
ITERATION  10 : L=   50.4042018491 DL=  1.83e-03 (AVERGE_DL)=    0.0052595182 
ITERATION  11 : L=   50.4047449311 DL=  5.43e-04 (AVERGE_DL)=    0.0028685387 
ITERATION  12 : L=   50.4048997969 DL=  1.55e-04 (AVERGE_DL)=    0.0015318134 
ITERATION  13 : L=   50.4049432930 DL=  4.35e-05 (AVERGE_DL)=    0.0008118073 
ITERATION  14 : L=   50.4049554331 DL=  1.21e-05 (AVERGE_DL)=    0.0004288834 
ITERATION  15 : L=   50.4049587936 DL=  3.36e-06 (AVERGE_DL)=    0.0002256477 
ITERATION  16 : L=   50.4049597122 DL=  9.19e-07 (AVERGE_DL)=    0.0001179759 
LOCALIZATION SUM CONVERGED


--------------------------------------------------------------------------------
                    LOCALIZED MOLECULAR ORBITAL COMPOSITIONS
--------------------------------------------------------------------------------

The Mulliken populations for each LMO on each atom are computed
The LMO`s will be ordered according to atom index and type
  (A) Strongly localized MO`s have populations of >=0.950 on one atom
  (B) Two center bond orbitals have populations of >=0.850 on two atoms
  (C) Other MO`s are considered to be `delocalized`

FOUND  -   6 strongly local MO`s
       -   6 two center bond MO`s
       -   0 significantly delocalized MO`s

Rather strongly localized orbitals:
MO   9:   2O  -   0.992286
MO   8:   1O  -   0.992300
MO   7:   0P  -   0.998479
MO   6:   0P  -   1.002071
MO   5:   0P  -   1.002071
MO   4:   0P  -   1.007269
Bond-like localized orbitals:
MO  15:   2O  -   0.739728  and   0P  -   0.261176
MO  14:   2O  -   0.739702  and   0P  -   0.261204
MO  13:   2O  -   0.933867  and   0P  -   0.062133
MO  12:   1O  -   0.739737  and   0P  -   0.261167
MO  11:   1O  -   0.739734  and   0P  -   0.261170
MO  10:   1O  -   0.933811  and   0P  -   0.062190
Localized MO's were stored in: /cluster/projects/nn14654k/ylvaos/basis_set_n_funcs/functionals/gga_x_b88/PO2/inp/PO2_gga_x_b88_augccpvtz.loc
------------------------------------------------------------------------------
                           ORCA ORBITAL LOCALIZATION
------------------------------------------------------------------------------

Input orbitals are from                  ... /cluster/projects/nn14654k/ylvaos/basis_set_n_funcs/functionals/gga_x_b88/PO2/inp/PO2_gga_x_b88_augccpvtz.loc
Output orbitals are to                   ... /cluster/projects/nn14654k/ylvaos/basis_set_n_funcs/functionals/gga_x_b88/PO2/inp/PO2_gga_x_b88_augccpvtz.loc
Max. number of iterations                ... 128
Localizations seeded randomly            ... on
Convergence tolerance                    ... 1.000e-06
Threshold for strong local MOs           ... 9.500e-01
Threshold for bond MOs                   ... 8.500e-01
Operator                                 ... 1
Orbital range for localization           ... 4 to 14
Localization criterion                   ... NEW-BOYS
Doing the dipole integrals               ... o.k.
Initial value of the localization sum :    28.874590
ITERATION   0 : L=   41.2311170815 DL=  1.24e+01 (AVERGE_DL)=    0.4739874745 
ITERATION   1 : L=   42.7479837430 DL=  1.52e+00 (AVERGE_DL)=    0.1660704484 
ITERATION   2 : L=   43.1638089473 DL=  4.16e-01 (AVERGE_DL)=    0.0869508957 
ITERATION   3 : L=   43.2025887286 DL=  3.88e-02 (AVERGE_DL)=    0.0265534731 
ITERATION   4 : L=   43.2068920005 DL=  4.30e-03 (AVERGE_DL)=    0.0088454117 
ITERATION   5 : L=   43.2071783800 DL=  2.86e-04 (AVERGE_DL)=    0.0022818630 
ITERATION   6 : L=   43.2072037635 DL=  2.54e-05 (AVERGE_DL)=    0.0006793520 
ITERATION   7 : L=   43.2072131523 DL=  9.39e-06 (AVERGE_DL)=    0.0004131635 
ITERATION   8 : L=   43.2072199574 DL=  6.81e-06 (AVERGE_DL)=    0.0003517523 
ITERATION   9 : L=   43.2072250456 DL=  5.09e-06 (AVERGE_DL)=    0.0003041591 
ITERATION  10 : L=   43.2072288367 DL=  3.79e-06 (AVERGE_DL)=    0.0002625427 
ITERATION  11 : L=   43.2072316603 DL=  2.82e-06 (AVERGE_DL)=    0.0002265791 
ITERATION  12 : L=   43.2072337643 DL=  2.10e-06 (AVERGE_DL)=    0.0001955903 
ITERATION  13 : L=   43.2072353323 DL=  1.57e-06 (AVERGE_DL)=    0.0001688467 
ITERATION  14 : L=   43.2072365010 DL=  1.17e-06 (AVERGE_DL)=    0.0001457671 
ITERATION  15 : L=   43.2072373718 DL=  8.71e-07 (AVERGE_DL)=    0.0001258325 
LOCALIZATION SUM CONVERGED


--------------------------------------------------------------------------------
                    LOCALIZED MOLECULAR ORBITAL COMPOSITIONS
--------------------------------------------------------------------------------

The Mulliken populations for each LMO on each atom are computed
The LMO`s will be ordered according to atom index and type
  (A) Strongly localized MO`s have populations of >=0.950 on one atom
  (B) Two center bond orbitals have populations of >=0.850 on two atoms
  (C) Other MO`s are considered to be `delocalized`

FOUND  -   5 strongly local MO`s
       -   6 two center bond MO`s
       -   0 significantly delocalized MO`s

Rather strongly localized orbitals:
MO   8:   2O  -   1.004181
MO   7:   1O  -   1.004178
MO   6:   0P  -   1.001647
MO   5:   0P  -   1.006986
MO   4:   0P  -   1.001647
Bond-like localized orbitals:
MO  14:   2O  -   0.575156  and   0P  -   0.423929
MO  13:   2O  -   0.790070  and   0P  -   0.209982
MO  12:   2O  -   0.790417  and   0P  -   0.209606
MO  11:   1O  -   0.575195  and   0P  -   0.423888
MO  10:   1O  -   0.790396  and   0P  -   0.209628
MO   9:   1O  -   0.790053  and   0P  -   0.210001
Localized MO's were stored in: /cluster/projects/nn14654k/ylvaos/basis_set_n_funcs/functionals/gga_x_b88/PO2/inp/PO2_gga_x_b88_augccpvtz.loc

-------------------------   --------------------
FINAL SINGLE POINT ENERGY      -490.666891365520
-------------------------   --------------------



           ************************************************************
           *        Program running with 8 parallel MPI-processes     *
           *              working on a common directory               *
           ************************************************************

------------------------------------------------------------------------------
                              ORCA PROPERTY CALCULATIONS
------------------------------------------------------------------------------

GBWName                                 ... /cluster/projects/nn14654k/ylvaos/basis_set_n_funcs/functionals/gga_x_b88/PO2/inp/PO2_gga_x_b88_augccpvtz.gbw
Number of atoms                         ...      3
Number of basis functions               ...    179
Max core memory                         ...   4096 MB

Electric properties:
Dipole moment                           ... YES
Quadrupole moment                       ... YES
Static polarizability (Dipole/Dipole)   ...  NO
Static polarizability (Dipole/Quad.)    ...  NO
Static polarizability (Quad./Quad.)     ...  NO
Static polarizability (Velocity)        ...  NO
Static hyperpolarizability              ...  NO

Atomic electric properties:
Dipole moment                           ...  NO
Quadrupole moment                       ...  NO
Static polarizability                   ...  NO

Choice of electric origin               ... Center of mass
Position of electric origin             ...     0.000000     0.000000     0.008437

General magnetic properties:
Magnetizability                         ...  NO

EPR properties:
g-Tensor (aka g-matrix)                 ...  NO
Zero-Field splitting spin-orbit         ...  NO
Zero-field splitting spin-spin          ...  NO
Hyperfine couplings                     ...  NO (   0 nuclei)
Quadrupole couplings                    ...  NO (   0 nuclei)
Contact density                         ...  NO (   0 nuclei)

NMR properties:
Chemical shifts                         ...  NO (   0 nuclei)
Spin-rotation constants                 ...  NO (   0 nuclei)
Spin-spin couplings                     ...  NO (   0 nuclei,    0 pairs)

Choice of magnetic origin               ... GIAO
Position of magnetic origin             ...     0.000000     0.000000     0.000000

Properties with geometric perturbations:
SCF Hessian                             ...  NO
IR spectrum                             ...  NO
VCD spectrum                            ...  NO
X-ray spectroscopy properties:
SCF XES/XAS/RIXS spectra                ...  NO

SCF SOC stabilization energy            ...  NO
Diagonal Born-Oppenheimer correction    ...  NO

-------------
DIPOLE MOMENT
-------------

Method             : SCF
Type of density    : Electron Density
Multiplicity       :   2
Irrep              :   0
Energy             :  -490.6668913655198025 Eh
Basis              : AO
                                X                 Y                 Z
Electronic contribution:      0.000000002       0.000000003       0.753334898
Nuclear contribution   :      0.000000000       0.000000000      -0.261362976
                        -----------------------------------------
Total Dipole Moment    :      0.000000002       0.000000003       0.491971922
                        -----------------------------------------
Magnitude (a.u.)       :      0.491971922
Magnitude (Debye)      :      1.250493247



--------------------
Rotational spectrum 
--------------------
 
Rotational constants in cm-1:             3.442444             0.286393             0.264396 
Rotational constants in MHz :        103201.869580          8585.841533          7926.407020 

Dipole components along the rotational axes: 
x,y,z [a.u.] :     0.000000     0.491972     0.000000 
x,y,z [Debye]:     0.000000     1.250493     0.000000 

 

Dipole moment calculation done in   0.0 sec 

-----------------
QUADRUPOLE MOMENT
-----------------

Method             : SCF
Type of density    : Electron Density
Multiplicity       :   2
Irrep              :   0
Energy             :  -490.6668913655198025 Eh
Basis              : AO

                XX              YY              ZZ              XY              XZ              YZ
  NUC        0.000000000   105.106420135     8.604299986     0.000000000     0.000000000     0.000000000
  EL       -15.923320549  -126.538612271   -25.315785842    -0.000000001     0.000000001     0.000000008
  TOT      -15.923320549   -21.432192136   -16.711485857    -0.000000001     0.000000001     0.000000008 (a.u.)
           -21.417410716   -28.827031404   -22.477520010    -0.000000002     0.000000001     0.000000011 (Buckingham)

diagonalized tensor:
           -21.432192136   -16.711485857   -15.923320549 (a.u.)
           -28.827031404   -22.477520010   -21.417410716 (Buckingham)
           -13.759132081     5.289402100     8.469729981 (traceless form in Buckingham)

             0.000000000     0.000000001     1.000000000
             1.000000000    -0.000000002    -0.000000000
            -0.000000002    -1.000000000     0.000000001
        
Isotropic quadrupole :   -18.022332847

Quadrupole moment calculation done in   0.0 sec (  0.0 sec for integrals)

Maximum memory used throughout the entire PROP-calculation: 5.7 MB

--------------------------------
SUGGESTED CITATIONS FOR THIS RUN
--------------------------------

Below you find a list of papers that are relevant to this ORCA run
We neither can nor want to force you to cite these papers, but we appreciate if you do
You receive ORCA, which is the product of decades of hard work by many enthusiastic individuals, for free
The only thing we kindly ask in return is that you cite our papers,
We deeply appreciate it, if you show your appreciation for ORCA by not just citing the generic ORCA reference.

Please note that relegating all ORCA citations to the supporting information does *not* help us.
SI sections are not indexed - citations you put there will not count into any citation statistics
But we need these citations in order to attract the funding resources that allow us to do what we are doing

Therefore, if you are a happy ORCA user, please consider citing a few of the papers listed below in the main body of your paper

In addition to the list printed below, the program has created the file /cluster/projects/nn14654k/ylvaos/basis_set_n_funcs/functionals/gga_x_b88/PO2/inp/PO2_gga_x_b88_augccpvtz.bibtex that contains the list in bibtex format
You can import this file easily into all common literature databanks and citation aid programs

It goes without saying that in many instances, there are alternative algorithms to achieve similar
results as the ones you have gotten from ORCA. It is, of course, also the case that in some instances
ORCA just re-implements algorithms worked out by others. We are fully aware of that and we are also
fully appreciative of our colleagues work. Hence this citation list should not be read as indicating
that the listed papers, which are focused on our own work, are the only ones worth citing. It simply
meant to make it easier for users to cite ORCA specific papers. It is not a substitute for doing your
own literature research and citing the relevant literature in a scientifically appropriate manner.

List of essential papers. We consider these as the minimum necessary citations

  1. Neese, F.
     Software update: the ORCA program system, version 6.0
     WIRES Comput. Molec. Sci. 2025 15(1), e70019
     doi.org/10.1002/wcms.70019

List of papers to cite with high priority. The work reported in these papers was absolutely
necessary for this run to complete.
Our perspective: the developers of density functionals and basis sets usually get cited in chemistry papers
Good! But without the algorithms to do something with them, the functionals or basis sets would not do anything.
Hence, in our opinion, the algorithm design and method developments papers are equally worthy of getting cited

  1. Lehtola, S.; Steigemann, C.; Oliveira, M.; Marques, M.
     Recent developments in Libxc - A comprehensive library of functionals for density functional theory
     Software X 2018 7 , 
     doi.org/10.1016/j.softx.2017.11.002
  2. Neese, F.
     The SHARK Integral Generation and Digestion System
     J. Comp. Chem. 2022 44(3), 381
     doi.org/10.1002/jcc.26942

List of suggested additional citations. These are papers that are important in the 'surrounding' of 
of this run, or papers that preceded the highly important papers. If you like your results we are grateful for a citation.

  1. Neese, F.
     The ORCA program system
     WIRES Comput. Molec. Sci. 2012 2(1), 73-78
     doi.org/10.1002/wcms.81
  2. Neese, F.
     Software update: the ORCA program system, version 4.0
     WIRES Comput. Molec. Sci. 2018 8(1), 1-6
     doi.org/10.1002/wcms.1327
  3. Neese, F.; Wennmohs, F.; Becker, U.; Riplinger, C.
     The ORCA quantum chemistry program package
     J. Chem. Phys. 2020 152(22), 224108
     doi.org/10.1063/5.0004608
  4. Neese, F.
     Software update: The ORCA program system—Version 5.0
     WIRES Comput. Molec. Sci. 2022 12(1), e1606
     doi.org/10.1002/wcms.1606

List of optional additional citations

  1. Neese, F.
     Approximate second-order SCF convergence for spin unrestricted wavefunctions
     Chem. Phys. Lett. 2000 325(1-3), 93-98
     doi.org/10.1016/s0009-2614(00)00662-x

Timings for individual modules:

Sum of individual times          ...        5.597 sec (=   0.093 min)
Startup calculation              ...        0.855 sec (=   0.014 min)  15.3 %
SCF iterations                   ...        4.234 sec (=   0.071 min)  75.6 %
Property integrals               ...        0.248 sec (=   0.004 min)   4.4 %
Property calculations            ...        0.253 sec (=   0.004 min)   4.5 %
Orbital localization             ...        0.008 sec (=   0.000 min)   0.1 %
                             ****ORCA TERMINATED NORMALLY****
TOTAL RUN TIME: 0 days 0 hours 0 minutes 6 seconds 237 msec
