
                                 *****************
                                 * O   R   C   A *
                                 *****************

                                            #,                                       
                                            ###                                      
                                            ####                                     
                                            #####                                    
                                            ######                                   
                                           ########,                                 
                                     ,,################,,,,,                         
                               ,,#################################,,                 
                          ,,##########################################,,             
                       ,#########################################, ''#####,          
                    ,#############################################,,   '####,        
                  ,##################################################,,,,####,       
                ,###########''''           ''''###############################       
              ,#####''   ,,,,##########,,,,          '''####'''          '####       
            ,##' ,,,,###########################,,,                        '##       
           ' ,,###''''                  '''############,,,                           
         ,,##''                                '''############,,,,        ,,,,,,###''
      ,#''                                            '''#######################'''  
     '                                                          ''''####''''         
             ,#######,   #######,   ,#######,      ##                                
            ,#'     '#,  ##    ##  ,#'     '#,    #''#        ,####,    ,#,          
            ##       ##  ##   ,#'  ##            #'  '#       #'       ,# #          
            ##       ##  #######   ##           ,######,      #####,      #          
            '#,     ,#'  ##    ##  '#,     ,#' ,#      #,     #,   #      #          
             '#######'   ##     ##  '#######'  #'      '#     '####' #    #          



                #########################################################
                #                        -***-                          #
                #          Department of theory and spectroscopy        #
                #                                                       #
                #                      Frank Neese                      #
                #                                                       #
                #     Directorship, Architecture, Infrastructure        #
                #                    SHARK, DRIVERS                     #
                #        Core code/Algorithms in most modules           #
                #                                                       #
                #        Max Planck Institute fuer Kohlenforschung      #
                #                Kaiser Wilhelm Platz 1                 #
                #                 D-45470 Muelheim/Ruhr                 #
                #                      Germany                          #
                #                                                       #
                #                  All rights reserved                  #
                #                        -***-                          #
                #########################################################


                         Program Version 6.1.1  -  RELEASE   -
                                (GIT: $487d211c$)
                          ($2025-11-21 10:33:24 +0100$)


 With contributions from (in alphabetic order):
[Max-Planck-Institut fuer Kohlenforschung]                               
  Daniel Aravena         : Magnetic Suceptibility                        
  Michael Atanasov       : Ab Initio Ligand Field Theory (pilot matlab implementation)
  Alexander A. Auer      : GIAO ZORA, VPT2 properties, NMR spectrum      
  Ute Becker             : All parallelization in ORCA, NUMFREQ, NUMCALC 
  Giovanni Bistoni       : ED, misc. LED, open-shell LED, HFLD           
  Dmytro Bykov           : pre 5.0 version of the SCF Hessian            
  Marcos Casanova-Páez   : Triplet and SCS-CIS(D). UHF-(DLPNO)-IP/EA/STEOM-CCSD. UHF-CVS-IP/STEOM-CCSD   
  Vijay G. Chilkuri      : MRCI spin determinant printing, contributions to CSF-ICE 
  Pauline Colinet        : FMM embedding                                 
  Dipayan Datta          : RHF DLPNO-CCSD density                        
  Achintya Kumar Dutta   : EOM-CC, STEOM-CC                              
  Nicolas Foglia         : Exact transition moments, OPA infrastructure, MCD improvements    
  Dmitry Ganyushin       : Spin-Orbit,Spin-Spin,Magnetic field MRCI      
  Miquel Garcia-Rates    : C-PCM and meta-GGA Hessian, CCSD/C-PCM, Gaussian charge scheme 
  Tiago L. C. Gouveia    : GS-ROHF, GS-ROCIS                             
  Yang Guo               : DLPNO-NEVPT2, F12-NEVPT2, CIM, IAO-localization        
  Andreas Hansen         : Spin unrestricted coupled pair/coupled cluster methods 
  Ingolf Harden          : AUTO-CI MPn and infrastructure                
  Benjamin Helmich-Paris : MC-RPA, TRAH-(SCF,CASSCF), AVAS, COSX integrals, SCF dyn. polar., MC-PDFT, srDFT 
  Lee Huntington         : MR-EOM, pCC                                   
  Robert Izsak           : Overlap fitted RIJCOSX, COSX-SCS-MP3, EOM     
  Riya Kayal             : Wick's Theorem for AUTO-CI, AUTO-CI UHF-CCSDT 
  Emily Kempfer          : AUTO-CI RHF CISDT and CCSDT, approximate NEVPT4
  Christian Kollmar      : KDIIS, OOCD, Brueckner-CCSD(T), CCSD density, CASPT2, CASPT2-K, improved NEVPT2 
  Axel Koslowski         : Symmetry handling                             
  Simone Kossmann        : meta-GGA functionals, TD-DFT gradient, OOMP2, (MP2 Hessian; deprecated post 5.0) 
  Lucas Lang             : DCDCAS, Hyperfine gauge corrections, ICE-SOC+SSC
  Marvin Lechner         : AUTO-CI (C++ implementation), FIC-MRCC        
  Spencer Leger          : CASSCF response                               
  Dagmar Lenk            : GEPOL surface, SMD, ORCA-2-JSON               
  Dimitrios Liakos       : Extrapolation schemes; Compound Job, Property file
  Dimitrios Manganas     : Further ROCIS development; embedding schemes. LFT, Crystal Embedding 
  Dimitrios Pantazis     : SARC Basis sets                               
  Anastasios Papadopoulos: AUTO-CI, single reference methods and gradients 
  Taras Petrenko         : pre 6.0 DFT Hessian and TD-DFT gradient,  ECA, NRVS 
  Petra Pikulova         : Analytic Raman intensities                    
  Peter Pinski           : DLPNO-MP2, DLPNO-MP2 Gradient                 
  Shashank Vittal Rao    : ES-AILFT, MagRelax                            
  Christoph Reimann      : Effective Core Potentials                     
  Marius Retegan         : Local ZFS, SOC                                
  Christoph Riplinger    : Optimizer, TS searches, QM/MM, DLPNO-CCSD(T), (RO)-DLPNO pert. Triples 
  Michael Roemelt        : Original ROCIS implementation, recursive CI coupling coefficients
  Masaaki Saitow         : Open-shell DLPNO-CCSD energy and density      
  Barbara Sandhoefer     : DKH picture change effects                    
  Yorick L. A. Schmerwitz: GMF and freeze-and-release deltaSCF, NEB S-IDPP initial path                    
  Kantharuban Sivalingam : CASSCF convergence/infrastructure, NEVPT2, NEVPT3, NEVPT4(SD), FIC-MRCI and CEPA variants
  Bernardo de Souza      : ESD, SOC TD-DFT                               
  Georgi L. Stoychev     : AutoAux, RI-MP2 NMR, DLPNO-MP2 response, X2C  
  Van Anh Tran           : RI-MP2 g-tensors                              
  Willem Van den Heuvel  : Paramagnetic NMR                              
  Zikuan Wang            : NOTCH, Electric field optimization            
  Frank Wennmohs         : Technical directorship and infrastructure     
  Hang Xu                : AUTO-CI-Response properties                   
                                                                         
[FACCTs GmbH]                                                            
  Markus Bursch, Nicolas Foglia, Miquel Garcia-Rates, Ingolf Harden, Hagen Neugebauer, Anastasios Papadopoulos, 
  Christoph Riplinger, Bernardo de Souza, Georgi L. Stoychev                                                    
                                                                 
  APM, various basis sets, CI-OPT, improved COSX, DLPNO-Multilevel,           
  DOCKER, DRACO, updates on ESD, Fragmentator, GOAT, IRC, LR-CPCM, L-BFGS, MBIS, meta-GGA TD-DFT gradient, ML-optimized integration grids, 
  MM, NACMEs, nearIR, NEB, NEB-TS, NL-DFT gradient (VV10), 2- and 3-layer-ONIOM, interface openCOSMO-RS, QMMM,   
  Crystal-QMMM, RESP, rigid body optimization, SF, symmetry and pop. for TD-DFT, various functionals, SOLVATOR                                   
                                                                         
[Other institutions]                                                     
  V. Asgeirsson          : NEB                                           
  Christoph Bannwarth    : sTDA-DFT, sTD-DFT, PBEh-3c, B97-3c, D3        
  Giovanni Bistoni       : ETS/NOCV, ADLD/ADEX, COVALED                  
  Martin Brehm           : Molecular dynamics                            
  Ronald Cardenas        : ETS/NOCV                                      
  Martina Colucci        : COVALED                                       
  Sebastian Ehlert       : rSCAN, r2SCAN, r2SCAN-3c, D4, dhf basis sets  
  Marvin Friede          : D4 for Fr, Ra, Ac-Lr                          
  Lars Goerigk           : TD-DFT with DH, B97 family of functionals     
  Stefan Grimme          : VdW corrections, initial TS optimization, DFT functionals, gCP, sTDA/sTD-DF 
  Waldemar Hujo          : DFT-NL                                        
  H. Jonsson             : NEB                                           
  Holger Kruse           : gCP                                           
  Marcel Mueller         : wB97X-3c, vDZP basis set                      
  Hagen Neugebauer       : wr2SCAN, Native XTB                           
  Gianluca Regni         : ADLD/ADEX                                     
  Tobias Risthaus        : pre 6.0 range-separated hybrid DFT and stability analysis
  Lukas Wittmann         : regularized MP2, r2SCAN double-hybrids, wr2SCAN        
                                                                         
We gratefully acknowledge several colleagues who have allowed us to      
interface, adapt or use parts of their codes:                            
  Ed Valeev, F. Pavosevic, A. Kumar             : LibInt (2-el integral package), F12 methods 
  Garnet Chan, S. Sharma, J. Yang, R. Olivares  : DMRG                   
  Ulf Ekstrom                                   : XCFun DFT Library      
  Mihaly Kallay                                 : mrcc  (arbitrary order and MRCC methods)
  Frank Weinhold                                : gennbo (NPA and NBO analysis)           
  Simon Mueller                                 : openCOSMO-RS                            
  Christopher J. Cramer and Donald G. Truhlar   : smd solvation model                     
  S Lehtola, MJT Oliveira, MAL Marques          : LibXC Library                           
  Liviu Ungur et al                             : ANISO software                          


 Your calculation uses the libint2 library for the computation of 2-el integrals
 For citations please refer to: http://libint.valeyev.net

 Your ORCA version has been built with support for libXC version: 7.0.0
 For citations please refer to: https://libxc.gitlab.io

 This ORCA versions uses:
   CBLAS   interface :  Fast vector & matrix operations
   LAPACKE interface :  Fast linear algebra routines
   SCALAPACK package :  Parallel linear algebra routines
   Shared memory     :  Shared parallel matrices
   BLAS/LAPACK       :  OpenBLAS 0.3.29  USE64BITINT DYNAMIC_ARCH NO_AFFINITY Cooperlake SINGLE_THREADED
        Core in use  :  Cooperlake
   Copyright (c) 2011-2014, The OpenBLAS Project


  ***********************************
  * Starting time: Wed May 20 12:32:45 2026
  * Host name:     c1-33
  * Process ID:    548477
  * Working dir.:  /cluster/projects/nn14654k/ylvaos/basis_set_n_funcs/functionals/gga_c_N12/CH3COOH/out
  ***********************************

Using LibXC functional ID  80 : Minnesota N12 correlation functional
[ 1]  R. Peverati and D. G. Truhlar.,  J. Chem. Theory Comput. 8, 2310 (2012)
Using LibXC functional ID  80 : Minnesota N12 correlation functional
[ 1]  R. Peverati and D. G. Truhlar.,  J. Chem. Theory Comput. 8, 2310 (2012)
Your calculation utilizes LibXC
by S. Lehtola, C. Steigemann, M. J. T. Oliveira & M. A. L. Marques
Please cite in your paper:
Lehtola, S.; Steigemann, C.; Oliveira, M.J.T.; Marques, M. A. L. Software X, 7, (2018), 1.
   

================================================================================

----- Orbital basis set information -----
Your calculation utilizes the basis: def2-QZVP
   F. Weigend and R. Ahlrichs, Phys. Chem. Chem. Phys. 7, 3297 (2005).

================================================================================
                                        WARNINGS
                       Please study these warnings very carefully!
================================================================================


================================================================================
                                       INPUT FILE
================================================================================
NAME = /cluster/projects/nn14654k/ylvaos/basis_set_n_funcs/functionals/gga_c_N12/CH3COOH/inp/CH3COOH_gga_c_N12_def2qzvp.inp
|  1> ! dft def2-QZVP TightSCF
|  2> %pal nprocs 8 end
|  3> 
|  4> %loc
|  5>   LocMet NewBoys
|  6>   Occ true
|  7> end
|  8> 
|  9> %method
| 10>   exchange None
| 11>   correlation gga_c_N12
| 12> end
| 13> 
| 14> %elprop
| 15>   Dipole true
| 16>   Quadrupole true
| 17> end
| 18> 
| 19> * xyz 0 1
| 20> C    0.000000000000   0.154560000000   0.000000000000
| 21> C    1.073776000000  -0.892748000000   0.000000000000
| 22> O    0.166384000000   1.360084000000   0.000000000000
| 23> O   -1.236449000000  -0.415036000000   0.000000000000
| 24> H   -1.867646000000   0.333582000000   0.000000000000
| 25> H    2.048189000000  -0.408135000000   0.000000000000
| 26> H    0.968661000000  -1.528353000000   0.881747000000
| 27> H    0.968661000000  -1.528353000000  -0.881747000000
| 28> *
| 29> 
| 30> 
| 31>                          ****END OF INPUT****
================================================================================

                       ****************************
                       * Single Point Calculation *
                       ****************************

---------------------------------
CARTESIAN COORDINATES (ANGSTROEM)
---------------------------------
  C      0.000000    0.154560    0.000000
  C      1.073776   -0.892748    0.000000
  O      0.166384    1.360084    0.000000
  O     -1.236449   -0.415036    0.000000
  H     -1.867646    0.333582    0.000000
  H      2.048189   -0.408135    0.000000
  H      0.968661   -1.528353    0.881747
  H      0.968661   -1.528353   -0.881747

----------------------------
CARTESIAN COORDINATES (A.U.)
----------------------------
  NO LB      ZA    FRAG     MASS         X           Y           Z
   0 C     6.0000    0    12.011    0.000000    0.292076    0.000000
   1 C     6.0000    0    12.011    2.029143   -1.687049    0.000000
   2 O     8.0000    0    15.999    0.314420    2.570186    0.000000
   3 O     8.0000    0    15.999   -2.336550   -0.784304    0.000000
   4 H     1.0000    0     1.008   -3.529339    0.630379    0.000000
   5 H     1.0000    0     1.008    3.870516   -0.771263    0.000000
   6 H     1.0000    0     1.008    1.830504   -2.888169    1.666260
   7 H     1.0000    0     1.008    1.830504   -2.888169   -1.666260

--------------------------------
INTERNAL COORDINATES (ANGSTROEM)
--------------------------------
 C      0   0   0     0.000000000000     0.00000000     0.00000000
 C      1   0   0     1.499949647502     0.00000000     0.00000000
 O      1   2   0     1.216951827326   126.42686784     0.00000000
 O      1   2   3     1.361339683113   110.98078396   180.00000000
 H      4   1   2     0.979203024267   105.40175469   180.00000085
 H      2   1   3     1.088269476893   109.27200725     0.00000000
 H      2   1   3     1.092025938913   109.72406365   120.93315147
 H      2   1   3     1.092025938913   109.72406365   239.06684853

---------------------------
INTERNAL COORDINATES (A.U.)
---------------------------
 C      0   0   0     0.000000000000     0.00000000     0.00000000
 C      1   0   0     2.834494048450     0.00000000     0.00000000
 O      1   2   0     2.299705671821   126.42686784     0.00000000
 O      1   2   3     2.572559176322   110.98078396   180.00000000
 H      4   1   2     1.850425545371   105.40175469   180.00000085
 H      2   1   3     2.056531271234   109.27200725     0.00000000
 H      2   1   3     2.063629955684   109.72406365   120.93315147
 H      2   1   3     2.063629955684   109.72406365   239.06684853

---------------------
BASIS SET INFORMATION
---------------------
There are 3 groups of distinct atoms

 Group   1 Type C   : 15s8p3d2f1g contracted to 7s4p3d2f1g pattern {8211111/5111/111/11/1}
 Group   2 Type O   : 15s8p3d2f1g contracted to 7s4p3d2f1g pattern {8211111/5111/111/11/1}
 Group   3 Type H   : 7s3p2d1f contracted to 4s3p2d1f pattern {4111/111/11/1}

Atom   0C    basis set group =>   1
Atom   1C    basis set group =>   1
Atom   2O    basis set group =>   2
Atom   3O    basis set group =>   2
Atom   4H    basis set group =>   3
Atom   5H    basis set group =>   3
Atom   6H    basis set group =>   3
Atom   7H    basis set group =>   3


           ************************************************************
           *        Program running with 8 parallel MPI-processes     *
           *              working on a common directory               *
           ************************************************************
------------------------------------------------------------------------------
                             ORCA STARTUP CALCULATIONS
------------------------------------------------------------------------------
------------------------------------------------------------------------------
                   ___                                                        
                  /   \      - P O W E R E D   B Y -                         
                 /     \                                                     
                 |  |  |   _    _      __       _____    __    __             
                 |  |  |  | |  | |    /  \     |  _  \  |  |  /  |          
                  \  \/   | |  | |   /    \    | | | |  |  | /  /          
                 / \  \   | |__| |  /  /\  \   | |_| |  |  |/  /          
                |  |  |   |  __  | /  /__\  \  |    /   |      \           
                |  |  |   | |  | | |   __   |  |    \   |  |\   \          
                \     /   | |  | | |  |  |  |  | |\  \  |  | \   \       
                 \___/    |_|  |_| |__|  |__|  |_| \__\ |__|  \__/        
                                                                              
                      - O R C A' S   B I G   F R I E N D -                    
                                      &                                       
                       - I N T E G R A L  F E E D E R -                       
                                                                              
 v1 FN, 2020, v2 2021, v3 2022-2024                                           
------------------------------------------------------------------------------


----------------------
SHARK INTEGRAL PACKAGE
----------------------

Number of atoms                             ...      8
Number of basis functions                   ...    348
Number of shells                            ...    108
Maximum angular momentum                    ...      4
Integral batch strategy                     ... SHARK/LIBINT Hybrid
RI-J (if used) integral strategy            ... SPLIT-RIJ (Revised 2003 algorithm where possible)
Printlevel                                  ...      1
Contraction scheme used                     ... SEGMENTED contraction
Prescreening option                         ... SCHWARTZ
   Thresh                                   ... 2.500e-11
   Tcut                                     ... 2.500e-12
   Tpresel                                  ... 2.500e-12 
Coulomb Range Separation                    ... NOT USED
Exchange Range Separation                   ... NOT USED
Multipole approximations                    ... NOT USED
Finite Nucleus Model                        ... NOT USED
CABS basis                                  ... NOT available
Auxiliary Coulomb fitting basis             ... NOT available
Auxiliary J/K fitting basis                 ... NOT available
Auxiliary Correlation fitting basis         ... NOT available
Auxiliary 'external' fitting basis          ... NOT available

Checking pre-screening integrals            ... done (  0.0 sec) Dimension = 108
   => SHARK Basis and OBASIS are compatible. Storing Pre-screening
Shell pair information
Shell pair cut-off parameter TPreSel        ...   2.5e-12
Total number of shell pairs                 ...      5886
Shell pairs after pre-screening             ...      5532
Total number of primitive shell pairs       ...     14376
Primitive shell pairs kept                  ...     11125
          la=0 lb=0:    878 shell pairs
          la=1 lb=0:   1160 shell pairs
          la=1 lb=1:    398 shell pairs
          la=2 lb=0:    815 shell pairs
          la=2 lb=1:    542 shell pairs
          la=2 lb=2:    202 shell pairs
          la=3 lb=0:    486 shell pairs
          la=3 lb=1:    327 shell pairs
          la=3 lb=2:    228 shell pairs
          la=3 lb=3:     77 shell pairs
          la=4 lb=0:    173 shell pairs
          la=4 lb=1:    109 shell pairs
          la=4 lb=2:     79 shell pairs
          la=4 lb=3:     48 shell pairs
          la=4 lb=4:     10 shell pairs

Checking whether 4 symmetric matrices of dimension 348 fit in memory
:Max Core in MB      =   4096.00
 MB in use           =     10.31
 MB left             =   4085.69
 MB needed           =      1.85
 Data fit in memory  = YES
Calculating Nuclear repulsion               ... done (  0.0 sec) ENN=    120.693288504615 Eh

Diagonalization of the overlap matrix:
Smallest eigenvalue                        ... 8.147e-05
Time for diagonalization                   ...    0.009 sec
Threshold for overlap eigenvalues          ... 1.000e-07
Number of eigenvalues below threshold      ... 0
Time for construction of square roots      ...    0.007 sec
Total time needed                          ...    0.018 sec

-------------------
DFT GRID GENERATION
-------------------

General Integration Accuracy     IntAcc      ... 4.388
Radial Grid Type                 RadialGrid  ... OptM3 with GC (2021)
Angular Grid (max. ang.)         AngularGrid ... 4 (Lebedev-302)
Angular grid pruning method      GridPruning ... 4 (adaptive)
Weight generation scheme         WeightScheme... mBecke (2022)
Basis function cutoff            BFCut       ... 1.0000e-11
Integration weight cutoff        WCut        ... 1.0000e-14
Partially contracted basis set               ... off
Rotationally invariant grid construction     ... off
Angular grids for H and He will be reduced by one unit
Diffuse basis detected: some atoms will have their outermost
                        angular grid increased by 1.

Total number of grid points                  ...    38610
Total number of batches                      ...      606
Average number of points per batch           ...       63
Average number of grid points per atom       ...     4826
Grids setup in   0.1 sec
Initializing property integral containers    ... done (  0.0 sec)

SHARK setup successfully completed in   0.3 seconds

Maximum memory used throughout the entire STARTUP-calculation: 26.1 MB


           ************************************************************
           *        Program running with 8 parallel MPI-processes     *
           *              working on a common directory               *
           ************************************************************
-------------------------------------------------------------------------------
                                 ORCA GUESS
                   Start orbitals & Density for SCF / CASSCF
-------------------------------------------------------------------------------

------------
SCF SETTINGS
------------
Hamiltonian:
 Density Functional     Method          .... DFT(GTOs)
 Exchange Functional    Exchange        .... no Exchange
  Functional kind                       .... Correlation
  Functional name                       .... Minnesota N12 correlation functional
  Functional family                     .... GGA
  Functional refs                              
    [ 0] R. Peverati and D. G. Truhlar.,  J. Chem. Theory Comput. 8, 2310 (2012), doi: 10.1021/ct3002656
  Functional external parameters        .... 10
    Parameter  0 _css0      =  1.000000e+00 : u^0 coefficient for same-spin correlation
    Parameter  1 _css1      = -5.531700e+00 : u^1 coefficient for same-spin correlation
    Parameter  2 _css2      =  3.079580e+01 : u^2 coefficient for same-spin correlation
    Parameter  3 _css3      = -5.641960e+01 : u^3 coefficient for same-spin correlation
    Parameter  4 _css4      =  3.212500e+01 : u^4 coefficient for same-spin correlation
    Parameter  5 _cos0      =  1.000000e+00 : u^0 coefficient for opposite-spin correlation
    Parameter  6 _cos1      =  3.245110e+00 : u^1 coefficient for opposite-spin correlation
    Parameter  7 _cos2      = -2.528930e+01 : u^2 coefficient for opposite-spin correlation
    Parameter  8 _cos3      =  1.444070e+01 : u^3 coefficient for opposite-spin correlation
    Parameter  9 _cos4      =  1.968700e+01 : u^4 coefficient for opposite-spin correlation
 Gradients option       PostSCFGGA      .... off


General Settings:
 Integral files         IntName         .... /cluster/projects/nn14654k/ylvaos/basis_set_n_funcs/functionals/gga_c_N12/CH3COOH/inp/CH3COOH_gga_c_N12_def2qzvp
 Hartree-Fock type      HFTyp           .... RHF
 Total Charge           Charge          ....    0
 Multiplicity           Mult            ....    1
 Number of Electrons    NEL             ....   32
 Basis Dimension        Dim             ....  348
 Nuclear Repulsion      ENuc            ....    120.6932885046 Eh

Convergence Acceleration:
 AO-DIIS                CNVDIIS         .... on
   Start iteration      DIISMaxIt       ....    12
   Startup error        DIISStart       ....  0.200000
   # of expansion vecs  DIISMaxEq       ....     5
   Bias factor          DIISBfac        ....   1.050
   Max. coefficient     DIISMaxC        ....  10.000
 MO-DIIS                CNVKDIIS        .... off
 Trust-Rad. Augm. Hess. CNVTRAH         .... auto
   Auto Start mean grad. ratio tolernc. ....  1.125000
   Auto Start start iteration           ....    50
   Auto Start num. interpolation iter.  ....    10
   Max. Number of Micro iterations      ....    24
   Max. Number of Macro iterations      .... Maxiter - #DIIS iter
   Number of Davidson start vectors     ....     2
   Converg. threshold    (grad. norm)   ....   1.000e-05
   Grad. Scal. Fac. for Micro threshold ....   0.100
   Minimum threshold for Micro iter.    ....   1.000e-02
   NR start threshold (gradient norm)   ....   1.000e-04
   Initial trust radius                 ....   0.400
   Minimum AH scaling param. (alpha)    ....   1.000
   Maximum AH scaling param. (alpha)    .... 1000.000
   Quad. conv. algorithm                .... NR
   White noise on init. David. guess    .... on
   Maximum white noise                  ....   0.010
   Pseudo random numbers                .... off
   Inactive MOs                         .... canonical
   Orbital update algorithm             .... Taylor
   Preconditioner                       .... Diag
   Full preconditioner red. dimension   ....   250
 SOSCF                 CNVSOSCF           .... on
   Start iteration     SOSCFMaxIt         ....   150
   Startup grad/error  SOSCFStart         ....  0.003300
   Hessian update      SOSCFHessUp        .... L-BFGS
   Autom. constraints  SOSCFAutoConstrain .... off
 Level Shifting         CNVShift        .... on
   Level shift para.    LevelShift      ....    0.2500
   Turn off err/grad.   ShiftErr        ....    0.0010
 Zerner damping         CNVZerner       .... off
 Static damping         CNVDamp         .... on
   Fraction old density DampFac         ....    0.7000
   Max. Damping (<1)    DampMax         ....    0.9800
   Min. Damping (>=0)   DampMin         ....    0.0000
   Turn off err/grad.   DampErr         ....    0.1000

SCF Procedure:
 Maximum # iterations   MaxIter         ....   125
 SCF integral mode      SCFMode         .... Direct
   Integral package                     .... SHARK and LIBINT hybrid scheme
 Reset frequency        DirectResetFreq ....    20
 Integral Threshold     Thresh          ....  2.500e-11 Eh
 Primitive CutOff       TCut            ....  2.500e-12 Eh

Convergence Tolerance:
 Convergence Check Mode ConvCheckMode   .... Total+1el-Energy
 Convergence forced     ConvForced      .... 0
 Energy Change          TolE            ....  1.000e-08 Eh
 1-El. energy change                    ....  1.000e-05 Eh
 Orbital Gradient       TolG            ....  1.000e-05
 Orbital Rotation angle TolX            ....  1.000e-05
 DIIS Error             TolErr          ....  5.000e-07

------------------------------
INITIAL GUESS: MODEL POTENTIAL
------------------------------
Loading Hartree-Fock densities                     ... done
Calculating cut-offs                               ... done
Initializing the effective Hamiltonian             ... done
Setting up the integral package (SHARK)            ... done
Starting the Coulomb interaction                   ... done (   0.0 sec)
Making the grid                                    ... done (   0.0 sec)
Mapping shells                                     ... done
Starting the XC term evaluation                    ... done (   0.0 sec)
  promolecular density results
     # of electrons  =     31.997023257
     EX              =      0.000000000
     EC              =     -1.705805992
     EX+EC           =     -1.705805992
Transforming the Hamiltonian                       ... done (   0.0 sec)
Diagonalizing the Hamiltonian                      ... done (   0.0 sec)
Back transforming the eigenvectors                 ... done (   0.0 sec)
Now organizing SCF variables                       ... done
                      ------------------
                      INITIAL GUESS DONE (   0.1 sec)
                      ------------------
             **** ENERGY FILE WAS UPDATED (/cluster/projects/nn14654k/ylvaos/basis_set_n_funcs/functionals/gga_c_N12/CH3COOH/inp/CH3COOH_gga_c_N12_def2qzvp.en.tmp) ****
Finished Guess after   0.2 sec
Maximum memory used throughout the entire GUESS-calculation: 19.9 MB


           ************************************************************
           *        Program running with 8 parallel MPI-processes     *
           *              working on a common directory               *
           ************************************************************

-------------------------------------------------------------------------------------------
                                      ORCA LEAN-SCF
                              memory conserving SCF solver
-------------------------------------------------------------------------------------------

----------------------------------------D-I-I-S--------------------------------------------
Iteration    Energy (Eh)           Delta-E    RMSDP     MaxDP     DIISErr   Damp  Time(sec)
-------------------------------------------------------------------------------------------
               ***  Starting incremental Fock matrix formation  ***
    1    -198.2384904084984214     0.00e+00  8.64e-01  5.49e+01  9.53e-01  0.700   3.3
Warning: op=0 Small HOMO/LUMO gap (  -1.124) - skipping pre-diagonalization
         LevelShift set to 1.000 Eh
         Will do a full diagonalization
    2    -199.9431394965195636    -1.70e+00  6.07e-01  3.85e+01  2.66e-01  0.700   3.3
    3    -200.5484230905625509    -6.05e-01  4.25e-01  2.70e+01  2.59e-01  0.700   3.3
    4    -201.0020930552594791    -4.54e-01  2.98e-01  1.89e+01  2.61e-01  0.700   3.3
                               ***Turning on AO-DIIS***
    5    -201.3920227794087054    -3.90e-01  2.08e-01  1.32e+01  1.73e-01  0.700   3.2
    6    -201.6594649756743252    -2.67e-01  1.46e-01  9.24e+00  1.48e-01  0.700   3.2
    7    -201.8512742863893550    -1.92e-01  1.02e-01  6.44e+00  1.52e-01  0.700   3.2
    8    -202.0082271710951431    -1.57e-01  7.04e-02  4.46e+00  1.37e-01  0.700   3.2
    9    -202.1334594355136574    -1.25e-01  4.89e-02  3.09e+00  9.91e-02  0.700   3.2
   10    -202.2205496221882299    -8.71e-02  1.13e-01  7.10e+00  6.85e-02  0.000   3.1
   11    -202.4114215971912927    -1.91e-01  4.46e-03  1.73e-01  2.12e-02  0.000   3.4
   12    -202.4143852654740385    -2.96e-03  3.58e-03  1.49e-01  1.04e-02  0.000   3.0
   13    -202.4158646678063178    -1.48e-03  2.27e-03  1.02e-01  7.75e-03  0.000   3.0
   14    -202.4165820639991011    -7.17e-04  1.96e-03  8.95e-02  7.72e-03  0.000   3.0
   15    -202.4170178471172221    -4.36e-04  1.96e-03  8.96e-02  7.26e-03  0.000   3.0
   16    -202.4173278252192745    -3.10e-04  1.14e-03  5.39e-02  5.12e-03  0.000   2.9
   17    -202.4175013867687767    -1.74e-04  1.11e-03  5.27e-02  5.39e-03  0.000   2.9
   18    -202.4176231274306588    -1.22e-04  9.70e-04  4.61e-02  4.86e-03  0.000   2.8
   19    -202.4177102616919797    -8.71e-05  8.89e-04  4.21e-02  4.29e-03  0.000   2.8
   20    -202.4177736096214630    -6.33e-05  8.10e-04  3.80e-02  3.73e-03  0.000   2.8
               *** Restarting incremental Fock matrix formation ***
                             ****Resetting DIIS****
Warning: op=0 Small HOMO/LUMO gap (   0.090) - skipping pre-diagonalization
         Will do a full diagonalization
                              *** Initializing SOSCF ***
---------------------------------------S-O-S-C-F--------------------------------------
Iteration    Energy (Eh)           Delta-E    RMSDP     MaxDP     MaxGrad    Time(sec)
--------------------------------------------------------------------------------------
   21    -202.4178200741691285    -4.65e-05  6.10e-03  2.74e-01  3.13e-03     3.2
               *** Restarting incremental Fock matrix formation ***
   22    -202.4177795839935925     4.05e-05  6.00e-03  2.60e-01  2.90e-03     3.2
   23    -202.4160048657062134     1.77e-03  3.89e-03  1.71e-01  1.22e-02     3.0
   24    -202.4179075798638223    -1.90e-03  1.72e-03  6.86e-02  1.45e-03     2.9
   25    -202.4176485227396824     2.59e-04  1.22e-03  5.08e-02  3.16e-03     2.9
   26    -202.4179486710024207    -3.00e-04  1.25e-04  2.19e-03  2.50e-04     2.9
   27    -202.4179405649472301     8.11e-06  7.44e-05  1.36e-03  6.33e-04     2.7
   28    -202.4179503724823235    -9.81e-06  3.36e-05  1.26e-03  3.57e-05     2.6
   29    -202.4179503555955648     1.69e-08  1.81e-05  7.68e-04  4.22e-05     2.5
   30    -202.4179504292739011    -7.37e-08  3.50e-06  1.20e-04  6.16e-06     2.4
   31    -202.4179504280132846     1.26e-09  3.05e-06  1.36e-04  9.01e-06     2.0
                 **** Energy Check signals convergence ****

               *****************************************************
               *                     SUCCESS                       *
               *           SCF CONVERGED AFTER  31 CYCLES          *
               *****************************************************

             **** ENERGY FILE WAS UPDATED (/cluster/projects/nn14654k/ylvaos/basis_set_n_funcs/functionals/gga_c_N12/CH3COOH/inp/CH3COOH_gga_c_N12_def2qzvp.en.tmp) ****

----------------
TOTAL SCF ENERGY
----------------

Total Energy       :       -202.41795043023865 Eh           -5508.07246 eV

Components:
Nuclear Repulsion  :        120.69328850461517 Eh            3284.23135 eV
Electronic Energy  :       -323.11123893485382 Eh           -8792.30380 eV
One Electron Energy:       -538.44165217286775 Eh          -14651.74224 eV
Two Electron Energy:        215.33041323801393 Eh            5859.43843 eV

Virial components:
Potential Energy   :       -407.84405744531671 Eh          -11098.00101 eV
Kinetic Energy     :        205.42610701507809 Eh            5589.92856 eV
Virial Ratio       :          1.98535650298519

DFT components:
N(Alpha)           :       16.000033165151 electrons
N(Beta)            :       16.000033165151 electrons
N(Total)           :       32.000066330302 electrons
E(X)               :        0.000000000000 Eh       
E(C)               :       -1.663817239157 Eh       
E(XC)              :       -1.663817239157 Eh       

---------------
SCF CONVERGENCE
---------------

  Last Energy change         ...   -1.2606e-09  Tolerance :   1.0000e-08
  Last MAX-Density change    ...    1.3623e-04  Tolerance :   1.0000e-07
  Last RMS-Density change    ...    3.0454e-06  Tolerance :   5.0000e-09
  Last DIIS Error            ...    3.1310e-03  Tolerance :   5.0000e-07
  Last Orbital Gradient      ...    9.0077e-06  Tolerance :   1.0000e-05
  Last Orbital Rotation      ...    9.9783e-06  Tolerance :   1.0000e-05


----------------
ORBITAL ENERGIES
----------------

  NO   OCC          E(Eh)            E(eV) 
   0   2.0000     -16.829949      -457.9662 
   1   2.0000     -16.793240      -456.9673 
   2   2.0000      -8.456211      -230.1052 
   3   2.0000      -8.378545      -227.9918 
   4   2.0000      -0.698792       -19.0151 
   5   2.0000      -0.605088       -16.4653 
   6   2.0000      -0.408690       -11.1210 
   7   2.0000      -0.266101        -7.2410 
   8   2.0000      -0.191445        -5.2095 
   9   2.0000      -0.174072        -4.7367 
  10   2.0000      -0.152596        -4.1524 
  11   2.0000      -0.103619        -2.8196 
  12   2.0000      -0.093746        -2.5509 
  13   2.0000      -0.075029        -2.0417 
  14   2.0000      -0.028755        -0.7825 
  15   2.0000       0.019055         0.5185 
  16   0.0000       0.111280         3.0281 
  17   0.0000       0.144915         3.9433 
  18   0.0000       0.162499         4.4218 
  19   0.0000       0.174732         4.7547 
  20   0.0000       0.185214         5.0399 
  21   0.0000       0.207098         5.6354 
  22   0.0000       0.228190         6.2094 
  23   0.0000       0.229981         6.2581 
  24   0.0000       0.242255         6.5921 
  25   0.0000       0.245812         6.6889 
  26   0.0000       0.278433         7.5766 
*Only the first 10 virtual orbitals were printed.

                    ********************************
                    * MULLIKEN POPULATION ANALYSIS *
                    ********************************

-----------------------
MULLIKEN ATOMIC CHARGES
-----------------------
   0 C :    0.103488
   1 C :   -1.176999
   2 O :   -0.043892
   3 O :   -0.096410
   4 H :    0.172949
   5 H :    0.347787
   6 H :    0.346538
   7 H :    0.346538
Sum of atomic charges:    0.0000000

--------------------------------
MULLIKEN REDUCED ORBITAL CHARGES
--------------------------------
  0 C s       :     2.756888  s :     2.756888
      pz      :     0.916133  p :     2.943016
      px      :     1.033536
      py      :     0.993347
      dz2     :     0.014830  d :     0.165762
      dxz     :     0.048367
      dyz     :     0.059634
      dx2y2   :     0.034216
      dxy     :     0.008715
      f0      :     0.004258  f :     0.028915
      f+1     :     0.001739
      f-1     :     0.002338
      f+2     :     0.004140
      f-2     :     0.002864
      f+3     :     0.009970
      f-3     :     0.003606
      g0      :     0.000047  g :     0.001930
      g+1     :     0.000233
      g-1     :     0.000378
      g+2     :     0.000165
      g-2     :     0.000068
      g+3     :     0.000061
      g-3     :     0.000263
      g+4     :     0.000393
      g-4     :     0.000322

  1 C s       :     3.118144  s :     3.118144
      pz      :     1.323682  p :     3.944636
      px      :     1.321410
      py      :     1.299544
      dz2     :     0.020552  d :     0.110177
      dxz     :     0.007781
      dyz     :     0.049684
      dx2y2   :     0.014761
      dxy     :     0.017398
      f0      :     0.000178  f :     0.003589
      f+1     :     0.000371
      f-1     :     0.000200
      f+2     :     0.000184
      f-2     :     0.000874
      f+3     :     0.000283
      f-3     :     0.001500
      g0      :     0.000052  g :     0.000454
      g+1     :     0.000025
      g-1     :     0.000121
      g+2     :     0.000021
      g-2     :     0.000063
      g+3     :     0.000012
      g-3     :     0.000026
      g+4     :     0.000083
      g-4     :     0.000051

  2 O s       :     3.624714  s :     3.624714
      pz      :     1.316500  p :     4.388751
      px      :     1.661401
      py      :     1.410850
      dz2     :     0.003710  d :     0.027970
      dxz     :     0.000462
      dyz     :     0.008928
      dx2y2   :     0.010814
      dxy     :     0.004057
      f0      :     0.000207  f :     0.002335
      f+1     :     0.000008
      f-1     :     0.000253
      f+2     :     0.000579
      f-2     :     0.000083
      f+3     :     0.000478
      f-3     :     0.000727
      g0      :     0.000009  g :     0.000123
      g+1     :     0.000001
      g-1     :     0.000023
      g+2     :     0.000019
      g-2     :     0.000004
      g+3     :     0.000003
      g-3     :     0.000013
      g+4     :     0.000028
      g-4     :     0.000024

  3 O s       :     3.632364  s :     3.632364
      pz      :     1.630754  p :     4.430690
      px      :     1.208244
      py      :     1.591692
      dz2     :     0.006648  d :     0.030565
      dxz     :     0.003357
      dyz     :     0.002620
      dx2y2   :     0.005388
      dxy     :     0.012552
      f0      :     0.000358  f :     0.002702
      f+1     :     0.000548
      f-1     :     0.000367
      f+2     :     0.000138
      f-2     :     0.000191
      f+3     :     0.000685
      f-3     :     0.000416
      g0      :     0.000007  g :     0.000089
      g+1     :     0.000008
      g-1     :     0.000004
      g+2     :     0.000004
      g-2     :     0.000011
      g+3     :     0.000002
      g-3     :     0.000007
      g+4     :     0.000023
      g-4     :     0.000023

  4 H s       :     0.743039  s :     0.743039
      pz      :     0.038200  p :     0.076458
      px      :     0.012510
      py      :     0.025748
      dz2     :     0.000252  d :     0.007229
      dxz     :     0.001819
      dyz     :     0.002565
      dx2y2   :     0.000600
      dxy     :     0.001993
      f0      :     0.000116  f :     0.000325
      f+1     :     0.000008
      f-1     :     0.000002
      f+2     :     0.000003
      f-2     :     0.000146
      f+3     :    -0.000003
      f-3     :     0.000053

  5 H s       :     0.622896  s :     0.622896
      pz      :     0.006398  p :     0.028710
      px      :     0.006243
      py      :     0.016069
      dz2     :     0.000115  d :     0.000530
      dxz     :     0.000281
      dyz     :    -0.000194
      dx2y2   :    -0.000756
      dxy     :     0.001084
      f0      :     0.000020  f :     0.000077
      f+1     :    -0.000002
      f-1     :     0.000001
      f+2     :     0.000006
      f-2     :     0.000031
      f+3     :     0.000023
      f-3     :    -0.000002

  6 H s       :     0.621351  s :     0.621351
      pz      :     0.014645  p :     0.030360
      px      :     0.012707
      py      :     0.003007
      dz2     :     0.000634  d :     0.001614
      dxz     :     0.000638
      dyz     :    -0.000089
      dx2y2   :     0.000047
      dxy     :     0.000384
      f0      :     0.000059  f :     0.000137
      f+1     :     0.000014
      f-1     :    -0.000009
      f+2     :     0.000009
      f-2     :     0.000044
      f+3     :     0.000015
      f-3     :     0.000004

  7 H s       :     0.621351  s :     0.621351
      pz      :     0.014645  p :     0.030359
      px      :     0.012707
      py      :     0.003007
      dz2     :     0.000634  d :     0.001614
      dxz     :     0.000638
      dyz     :    -0.000089
      dx2y2   :     0.000047
      dxy     :     0.000384
      f0      :     0.000059  f :     0.000137
      f+1     :     0.000014
      f-1     :    -0.000009
      f+2     :     0.000009
      f-2     :     0.000044
      f+3     :     0.000015
      f-3     :     0.000004



                     *******************************
                     * LOEWDIN POPULATION ANALYSIS *
                     *******************************

----------------------
LOEWDIN ATOMIC CHARGES
----------------------
   0 C :   -1.024224
   1 C :    0.199118
   2 O :    0.551389
   3 O :    0.904050
   4 H :   -0.440513
   5 H :   -0.070907
   6 H :   -0.059457
   7 H :   -0.059457

-------------------------------
LOEWDIN REDUCED ORBITAL CHARGES
-------------------------------
  0 C s       :     2.620012  s :     2.620012
      pz      :     0.779766  p :     2.882696
      px      :     0.960584
      py      :     1.142346
      dz2     :     0.076045  d :     1.200234
      dxz     :     0.160118
      dyz     :     0.227334
      dx2y2   :     0.330000
      dxy     :     0.406738
      f0      :     0.010198  f :     0.287946
      f+1     :     0.011705
      f-1     :     0.016809
      f+2     :     0.041112
      f-2     :     0.025077
      f+3     :     0.122972
      f-3     :     0.060072
      g0      :     0.001146  g :     0.033336
      g+1     :     0.002878
      g-1     :     0.006119
      g+2     :     0.003415
      g-2     :     0.003564
      g+3     :     0.000407
      g-3     :     0.002104
      g+4     :     0.006849
      g-4     :     0.006853

  1 C s       :     2.528209  s :     2.528209
      pz      :     0.962095  p :     2.891548
      px      :     0.962448
      py      :     0.967005
      dz2     :     0.049391  d :     0.319014
      dxz     :     0.027379
      dyz     :     0.078929
      dx2y2   :     0.088219
      dxy     :     0.075096
      f0      :     0.004946  f :     0.059184
      f+1     :     0.006344
      f-1     :     0.007736
      f+2     :     0.005121
      f-2     :     0.007923
      f+3     :     0.013388
      f-3     :     0.013727
      g0      :     0.000100  g :     0.002928
      g+1     :     0.000327
      g-1     :     0.000215
      g+2     :     0.000332
      g-2     :     0.000158
      g+3     :     0.000233
      g-3     :     0.000223
      g+4     :     0.000297
      g-4     :     0.001043

  2 O s       :     3.190518  s :     3.190518
      pz      :     1.218598  p :     4.140218
      px      :     1.421530
      py      :     1.500090
      dz2     :     0.009291  d :     0.096593
      dxz     :     0.001969
      dyz     :     0.021037
      dx2y2   :     0.026847
      dxy     :     0.037449
      f0      :     0.001673  f :     0.020213
      f+1     :     0.000630
      f-1     :     0.002336
      f+2     :     0.002535
      f-2     :     0.000581
      f+3     :     0.007515
      f-3     :     0.004942
      g0      :     0.000051  g :     0.001069
      g+1     :     0.000004
      g-1     :     0.000134
      g+2     :     0.000106
      g-2     :     0.000077
      g+3     :     0.000022
      g-3     :     0.000076
      g+4     :     0.000247
      g-4     :     0.000352

  3 O s       :     2.985928  s :     2.985928
      pz      :     1.362641  p :     3.976535
      px      :     1.194791
      py      :     1.419103
      dz2     :     0.012042  d :     0.114612
      dxz     :     0.016463
      dyz     :     0.006960
      dx2y2   :     0.032721
      dxy     :     0.046426
      f0      :     0.001533  f :     0.018266
      f+1     :     0.001495
      f-1     :     0.000706
      f+2     :     0.000701
      f-2     :     0.002152
      f+3     :     0.007194
      f-3     :     0.004485
      g0      :     0.000028  g :     0.000610
      g+1     :     0.000085
      g-1     :     0.000046
      g+2     :     0.000074
      g-2     :     0.000064
      g+3     :     0.000032
      g-3     :     0.000067
      g+4     :     0.000193
      g-4     :     0.000022

  4 H s       :     0.797461  s :     0.797461
      pz      :     0.129699  p :     0.454381
      px      :     0.133354
      py      :     0.191328
      dz2     :     0.012649  d :     0.158987
      dxz     :     0.021372
      dyz     :     0.030398
      dx2y2   :     0.057463
      dxy     :     0.037105
      f0      :     0.003956  f :     0.029684
      f+1     :     0.001685
      f-1     :     0.001854
      f+2     :     0.000152
      f-2     :     0.006740
      f+3     :     0.006792
      f-3     :     0.008504

  5 H s       :     0.798220  s :     0.798220
      pz      :     0.065214  p :     0.204424
      px      :     0.078552
      py      :     0.060658
      dz2     :     0.003874  d :     0.059675
      dxz     :     0.015471
      dyz     :     0.005940
      dx2y2   :     0.019260
      dxy     :     0.015130
      f0      :     0.000971  f :     0.008588
      f+1     :     0.001029
      f-1     :     0.000334
      f+2     :     0.000472
      f-2     :     0.001197
      f+3     :     0.002564
      f-3     :     0.002020

  6 H s       :     0.779814  s :     0.779814
      pz      :     0.071500  p :     0.212046
      px      :     0.063672
      py      :     0.076874
      dz2     :     0.019074  d :     0.059170
      dxz     :     0.012071
      dyz     :     0.012813
      dx2y2   :     0.005884
      dxy     :     0.009327
      f0      :     0.002066  f :     0.008426
      f+1     :     0.000665
      f-1     :     0.002053
      f+2     :     0.001346
      f-2     :     0.001634
      f+3     :     0.000403
      f-3     :     0.000258

  7 H s       :     0.779814  s :     0.779814
      pz      :     0.071500  p :     0.212046
      px      :     0.063672
      py      :     0.076874
      dz2     :     0.019074  d :     0.059170
      dxz     :     0.012071
      dyz     :     0.012813
      dx2y2   :     0.005884
      dxy     :     0.009327
      f0      :     0.002066  f :     0.008426
      f+1     :     0.000665
      f-1     :     0.002053
      f+2     :     0.001346
      f-2     :     0.001634
      f+3     :     0.000403
      f-3     :     0.000258



                      *****************************
                      * MAYER POPULATION ANALYSIS *
                      *****************************

  NA   - Mulliken gross atomic population
  ZA   - Total nuclear charge
  QA   - Mulliken gross atomic charge
  VA   - Mayer's total valence
  BVA  - Mayer's bonded valence
  FA   - Mayer's free valence

  ATOM       NA         ZA         QA         VA         BVA        FA
  0 C      5.8965     6.0000     0.1035     4.8862     4.8862     0.0000
  1 C      7.1770     6.0000    -1.1770     3.3918     3.3918     0.0000
  2 O      8.0439     8.0000    -0.0439     2.5711     2.5711     0.0000
  3 O      8.0964     8.0000    -0.0964     2.3370     2.3370     0.0000
  4 H      0.8271     1.0000     0.1729     1.1897     1.1897    -0.0000
  5 H      0.6522     1.0000     0.3478     0.9252     0.9252     0.0000
  6 H      0.6535     1.0000     0.3465     0.8815     0.8815     0.0000
  7 H      0.6535     1.0000     0.3465     0.8815     0.8815     0.0000

  Mayer bond orders larger than 0.100000
B(  0-C ,  1-C ) :   0.9188 B(  0-C ,  2-O ) :   2.4373 B(  0-C ,  3-O ) :   1.5146 
B(  1-C ,  5-H ) :   0.8406 B(  1-C ,  6-H ) :   0.8286 B(  1-C ,  7-H ) :   0.8286 
B(  2-O ,  4-H ) :   0.1773 B(  3-O ,  4-H ) :   0.8848 

-------
TIMINGS
-------

Total SCF time: 0 days 0 hours 1 min 34 sec 

Total time                  ....      94.274 sec
Sum of individual times     ....      92.255 sec  ( 97.9%)

SCF preparation             ....       0.086 sec  (  0.1%)
Fock matrix formation       ....      90.428 sec  ( 95.9%)
  Startup                   ....       0.024 sec  (  0.0% of F)
  Coulomb formation         ....      88.466 sec  ( 97.8% of F)
  XC integration            ....       3.104 sec  (  3.4% of F)
    XC Preparation          ....       0.000 sec  (  0.0% of XC)
    Basis function eval.    ....       0.425 sec  ( 13.7% of XC)
    Density eval.           ....       0.552 sec  ( 17.8% of XC)
    XC-Functional eval.     ....       0.096 sec  (  3.1% of XC)
    XC-Potential eval.      ....       1.322 sec  ( 42.6% of XC)
Diagonalization             ....       0.000 sec  (  0.0%)
Density matrix formation    ....       0.234 sec  (  0.2%)
Total Energy calculation    ....       0.071 sec  (  0.1%)
Population analysis         ....       0.027 sec  (  0.0%)
Orbital Transformation      ....       0.055 sec  (  0.1%)
Orbital Orthonormalization  ....       0.000 sec  (  0.0%)
DIIS solution               ....       1.101 sec  (  1.2%)
SOSCF solution              ....       0.253 sec  (  0.3%)
Finished LeanSCF after  94.3 sec

Maximum memory used throughout the entire LEANSCF-calculation: 35.0 MB


           ************************************************************
           *        Program running with 8 parallel MPI-processes     *
           *              working on a common directory               *
           ************************************************************

------------------------------------------------------------------------------
                         ORCA PROPERTY INTEGRAL CALCULATIONS
------------------------------------------------------------------------------

GBWName                                   ... /cluster/projects/nn14654k/ylvaos/basis_set_n_funcs/functionals/gga_c_N12/CH3COOH/inp/CH3COOH_gga_c_N12_def2qzvp.gbw
Number of atoms                           ...      8
Number of basis functions                 ...    348
Max core memory                           ...   4096 MB

Dipole integrals                          ... YES
Quadrupole integrals                      ... YES
Linear momentum integrals                 ...  NO
Angular momentum integrals                ...  NO
Higher moments length integrals           ...  NO
Higher moments velocity integrals         ...  NO
Kinetic energy integrals                  ...  NO
GIAO right hand sides                     ...  NO
GIAO dipole derivative integrals          ...  NO
SOC integrals                             ...  NO
EPR diamagnetic integrals (GIAO)          ...  NO
EPR gauge integrals                       ...  NO
Field gradient integrals                  ...  NO (   0 nuclei)
Spin-dipole/Fermi contact integrals       ...  NO (   0 nuclei)
Contact density integrals                 ...  NO (   0 nuclei)
Nucleus-orbit integrals                   ...  NO (   0 nuclei)
Geometric perturbations                   ...  NO (   8 nuclei)

Choice of electric origin   ... Center of mass
Position of electric origin ... ( -0.0657,  0.0975,  0.0000) 
Choice of magnetic origin   ... GIAO
Position of magnetic origin ... (  0.0000,  0.0000,  0.0000) 

Calculating integrals                     ... Electric Dipole (Length)     done (  0.0 sec)
Calculating integrals                     ... Electric Quadrupole (Length) done (  0.0 sec)

Property integrals calculated in   0.0 sec

Maximum memory used throughout the entire PROPINT-calculation: 22.2 MB
------------------------------------------------------------------------------
                           ORCA ORBITAL LOCALIZATION
------------------------------------------------------------------------------

Input orbitals are from                  ... /cluster/projects/nn14654k/ylvaos/basis_set_n_funcs/functionals/gga_c_N12/CH3COOH/inp/CH3COOH_gga_c_N12_def2qzvp.gbw
Output orbitals are to                   ... /cluster/projects/nn14654k/ylvaos/basis_set_n_funcs/functionals/gga_c_N12/CH3COOH/inp/CH3COOH_gga_c_N12_def2qzvp.loc
Max. number of iterations                ... 128
Localizations seeded randomly            ... on
Convergence tolerance                    ... 1.000e-06
Threshold for strong local MOs           ... 9.500e-01
Threshold for bond MOs                   ... 8.500e-01
Operator                                 ... 0
Orbital range for localization           ... 4 to 15
Localization criterion                   ... NEW-BOYS
Doing the dipole integrals               ... o.k.
Initial value of the localization sum :    47.488867
ITERATION   0 : L=   77.2814105032 DL=  2.98e+01 (AVERGE_DL)=    0.6718647043 
ITERATION   1 : L=   83.1672674355 DL=  5.89e+00 (AVERGE_DL)=    0.2986296209 
ITERATION   2 : L=   83.3625034998 DL=  1.95e-01 (AVERGE_DL)=    0.0543886218 
ITERATION   3 : L=   83.3802505419 DL=  1.77e-02 (AVERGE_DL)=    0.0163980053 
ITERATION   4 : L=   83.3929035027 DL=  1.27e-02 (AVERGE_DL)=    0.0138459932 
ITERATION   5 : L=   83.4012407884 DL=  8.34e-03 (AVERGE_DL)=    0.0112393288 
ITERATION   6 : L=   83.4065885294 DL=  5.35e-03 (AVERGE_DL)=    0.0090014654 
ITERATION   7 : L=   83.4100497899 DL=  3.46e-03 (AVERGE_DL)=    0.0072417774 
ITERATION   8 : L=   83.4123535800 DL=  2.30e-03 (AVERGE_DL)=    0.0059081224 
ITERATION   9 : L=   83.4139353854 DL=  1.58e-03 (AVERGE_DL)=    0.0048955846 
ITERATION  10 : L=   83.4150534522 DL=  1.12e-03 (AVERGE_DL)=    0.0041158724 
ITERATION  11 : L=   83.4158637688 DL=  8.10e-04 (AVERGE_DL)=    0.0035039299 
ITERATION  12 : L=   83.4164634560 DL=  6.00e-04 (AVERGE_DL)=    0.0030143274 
ITERATION  13 : L=   83.4169149253 DL=  4.51e-04 (AVERGE_DL)=    0.0026154243 
ITERATION  14 : L=   83.4172595756 DL=  3.45e-04 (AVERGE_DL)=    0.0022851642 
ITERATION  15 : L=   83.4175256567 DL=  2.66e-04 (AVERGE_DL)=    0.0020078674 
ITERATION  16 : L=   83.4177329560 DL=  2.07e-04 (AVERGE_DL)=    0.0017722580 
ITERATION  17 : L=   83.4178956446 DL=  1.63e-04 (AVERGE_DL)=    0.0015700249 
ITERATION  18 : L=   83.4180240799 DL=  1.28e-04 (AVERGE_DL)=    0.0013949875 
ITERATION  19 : L=   83.4181259544 DL=  1.02e-04 (AVERGE_DL)=    0.0012423979 
ITERATION  20 : L=   83.4182070717 DL=  8.11e-05 (AVERGE_DL)=    0.0011086253 
ITERATION  21 : L=   83.4182718611 DL=  6.48e-05 (AVERGE_DL)=    0.0009907864 
ITERATION  22 : L=   83.4183237358 DL=  5.19e-05 (AVERGE_DL)=    0.0008865551 
ITERATION  23 : L=   83.4183653524 DL=  4.16e-05 (AVERGE_DL)=    0.0007940747 
ITERATION  24 : L=   83.4183987942 DL=  3.34e-05 (AVERGE_DL)=    0.0007118241 
ITERATION  25 : L=   83.4184257014 DL=  2.69e-05 (AVERGE_DL)=    0.0006385023 
ITERATION  26 : L=   83.4184473738 DL=  2.17e-05 (AVERGE_DL)=    0.0005730356 
ITERATION  27 : L=   83.4184648417 DL=  1.75e-05 (AVERGE_DL)=    0.0005144562 
ITERATION  28 : L=   83.4184789336 DL=  1.41e-05 (AVERGE_DL)=    0.0004620760 
ITERATION  29 : L=   83.4184903054 DL=  1.14e-05 (AVERGE_DL)=    0.0004150901 
ITERATION  30 : L=   83.4184994871 DL=  9.18e-06 (AVERGE_DL)=    0.0003729842 
ITERATION  31 : L=   83.4185069033 DL=  7.42e-06 (AVERGE_DL)=    0.0003352108 
ITERATION  32 : L=   83.4185128943 DL=  5.99e-06 (AVERGE_DL)=    0.0003012851 
ITERATION  33 : L=   83.4185177350 DL=  4.84e-06 (AVERGE_DL)=    0.0002708213 
ITERATION  34 : L=   83.4185216480 DL=  3.91e-06 (AVERGE_DL)=    0.0002434886 
ITERATION  35 : L=   83.4185248097 DL=  3.16e-06 (AVERGE_DL)=    0.0002188709 
ITERATION  36 : L=   83.4185273671 DL=  2.56e-06 (AVERGE_DL)=    0.0001968485 
ITERATION  37 : L=   83.4185294335 DL=  2.07e-06 (AVERGE_DL)=    0.0001769441 
ITERATION  38 : L=   83.4185311045 DL=  1.67e-06 (AVERGE_DL)=    0.0001591157 
ITERATION  39 : L=   83.4185324551 DL=  1.35e-06 (AVERGE_DL)=    0.0001430535 
ITERATION  40 : L=   83.4185335475 DL=  1.09e-06 (AVERGE_DL)=    0.0001286477 
ITERATION  41 : L=   83.4185344302 DL=  8.83e-07 (AVERGE_DL)=    0.0001156479 
LOCALIZATION SUM CONVERGED


--------------------------------------------------------------------------------
                    LOCALIZED MOLECULAR ORBITAL COMPOSITIONS
--------------------------------------------------------------------------------

The Mulliken populations for each LMO on each atom are computed
The LMO`s will be ordered according to atom index and type
  (A) Strongly localized MO`s have populations of >=0.950 on one atom
  (B) Two center bond orbitals have populations of >=0.850 on two atoms
  (C) Other MO`s are considered to be `delocalized`

FOUND  -   0 strongly local MO`s
       -  12 two center bond MO`s
       -   0 significantly delocalized MO`s

Bond-like localized orbitals:
MO  15:   7H  -   0.335677  and   1C  -   0.620288
MO  14:   6H  -   0.335677  and   1C  -   0.620289
MO  13:   5H  -   0.310354  and   1C  -   0.700517
MO  12:   4H  -   0.339811  and   3O  -   0.700064
MO  11:   3O  -   0.767935  and   0C  -   0.279426
MO  10:   3O  -   0.769783  and   0C  -   0.276382
MO   9:   3O  -   0.892083  and   0C  -   0.097067
MO   8:   2O  -   0.668323  and   0C  -   0.372920
MO   7:   2O  -   0.668313  and   0C  -   0.372946
MO   6:   2O  -   0.860141  and   0C  -   0.114200
MO   5:   2O  -   0.876995  and   0C  -   0.147309
MO   4:   1C  -   0.784360  and   0C  -   0.269653
Localized MO's were stored in: /cluster/projects/nn14654k/ylvaos/basis_set_n_funcs/functionals/gga_c_N12/CH3COOH/inp/CH3COOH_gga_c_N12_def2qzvp.loc

-------------------------   --------------------
FINAL SINGLE POINT ENERGY      -202.417950430239
-------------------------   --------------------



           ************************************************************
           *        Program running with 8 parallel MPI-processes     *
           *              working on a common directory               *
           ************************************************************

------------------------------------------------------------------------------
                              ORCA PROPERTY CALCULATIONS
------------------------------------------------------------------------------

GBWName                                 ... /cluster/projects/nn14654k/ylvaos/basis_set_n_funcs/functionals/gga_c_N12/CH3COOH/inp/CH3COOH_gga_c_N12_def2qzvp.gbw
Number of atoms                         ...      8
Number of basis functions               ...    348
Max core memory                         ...   4096 MB

Electric properties:
Dipole moment                           ... YES
Quadrupole moment                       ... YES
Static polarizability (Dipole/Dipole)   ...  NO
Static polarizability (Dipole/Quad.)    ...  NO
Static polarizability (Quad./Quad.)     ...  NO
Static polarizability (Velocity)        ...  NO
Static hyperpolarizability              ...  NO

Atomic electric properties:
Dipole moment                           ...  NO
Quadrupole moment                       ...  NO
Static polarizability                   ...  NO

Choice of electric origin               ... Center of mass
Position of electric origin             ...    -0.065707     0.097461     0.000000

General magnetic properties:
Magnetizability                         ...  NO

EPR properties:
g-Tensor (aka g-matrix)                 ...  NO
Zero-Field splitting spin-orbit         ...  NO
Zero-field splitting spin-spin          ...  NO
Hyperfine couplings                     ...  NO (   0 nuclei)
Quadrupole couplings                    ...  NO (   0 nuclei)
Contact density                         ...  NO (   0 nuclei)

NMR properties:
Chemical shifts                         ...  NO (   0 nuclei)
Spin-rotation constants                 ...  NO (   0 nuclei)
Spin-spin couplings                     ...  NO (   0 nuclei,    0 pairs)

Choice of magnetic origin               ... GIAO
Position of magnetic origin             ...     0.000000     0.000000     0.000000

Properties with geometric perturbations:
SCF Hessian                             ...  NO
IR spectrum                             ...  NO
VCD spectrum                            ...  NO
X-ray spectroscopy properties:
SCF XES/XAS/RIXS spectra                ...  NO

SCF SOC stabilization energy            ...  NO
Diagonal Born-Oppenheimer correction    ...  NO

-------------
DIPOLE MOMENT
-------------

Method             : SCF
Type of density    : Electron Density
Multiplicity       :   1
Irrep              :   0
Energy             :  -202.4179504302386476 Eh
Basis              : AO
                                X                 Y                 Z
Electronic contribution:     -2.154877895       2.595933816      -0.000000014
Nuclear contribution   :      2.102617427      -3.118765285       0.000000000
                        -----------------------------------------
Total Dipole Moment    :     -0.052260468      -0.522831469      -0.000000014
                        -----------------------------------------
Magnitude (a.u.)       :      0.525436867
Magnitude (Debye)      :      1.335554379



--------------------
Rotational spectrum 
--------------------
 
Rotational constants in cm-1:             0.373252             0.316126             0.176788 
Rotational constants in MHz :         11189.819630          9477.229268          5299.974115 

Dipole components along the rotational axes: 
x,y,z [a.u.] :    -0.299882    -0.431456    -0.000000 
x,y,z [Debye]:    -0.762240    -1.096675    -0.000000 

 

Dipole moment calculation done in   0.0 sec 

-----------------
QUADRUPOLE MOMENT
-----------------

Method             : SCF
Type of density    : Electron Density
Multiplicity       :   1
Irrep              :   0
Energy             :  -202.4179504302386476 Eh
Basis              : AO

                XX              YY              ZZ              XY              XZ              YZ
  NUC      103.447904006    93.335807526     5.552847104   -15.402641721     0.000000000     0.000000000
  EL      -128.559627572  -122.590076095   -30.734249761    13.853488066     0.000000023     0.000000045
  TOT      -25.111723566   -29.254268569   -25.181402657    -1.549153655     0.000000023     0.000000045 (a.u.)
           -33.776127017   -39.347991722   -33.869847777    -2.083664646     0.000000031     0.000000060 (Buckingham)

diagonalized tensor:
           -29.769508550   -25.181402657   -24.596483585 (a.u.)
           -40.041007117   -33.869847777   -33.083111622 (Buckingham)
           -13.129054835     5.384423185     7.744631650 (traceless form in Buckingham)

             0.315596727     0.000000009     0.948893411
             0.948893411    -0.000000014    -0.315596727
            -0.000000011    -1.000000000     0.000000013
        
Isotropic quadrupole :   -26.515798264

Quadrupole moment calculation done in   0.0 sec (  0.0 sec for integrals)

Maximum memory used throughout the entire PROP-calculation: 18.2 MB

--------------------------------
SUGGESTED CITATIONS FOR THIS RUN
--------------------------------

Below you find a list of papers that are relevant to this ORCA run
We neither can nor want to force you to cite these papers, but we appreciate if you do
You receive ORCA, which is the product of decades of hard work by many enthusiastic individuals, for free
The only thing we kindly ask in return is that you cite our papers,
We deeply appreciate it, if you show your appreciation for ORCA by not just citing the generic ORCA reference.

Please note that relegating all ORCA citations to the supporting information does *not* help us.
SI sections are not indexed - citations you put there will not count into any citation statistics
But we need these citations in order to attract the funding resources that allow us to do what we are doing

Therefore, if you are a happy ORCA user, please consider citing a few of the papers listed below in the main body of your paper

In addition to the list printed below, the program has created the file /cluster/projects/nn14654k/ylvaos/basis_set_n_funcs/functionals/gga_c_N12/CH3COOH/inp/CH3COOH_gga_c_N12_def2qzvp.bibtex that contains the list in bibtex format
You can import this file easily into all common literature databanks and citation aid programs

It goes without saying that in many instances, there are alternative algorithms to achieve similar
results as the ones you have gotten from ORCA. It is, of course, also the case that in some instances
ORCA just re-implements algorithms worked out by others. We are fully aware of that and we are also
fully appreciative of our colleagues work. Hence this citation list should not be read as indicating
that the listed papers, which are focused on our own work, are the only ones worth citing. It simply
meant to make it easier for users to cite ORCA specific papers. It is not a substitute for doing your
own literature research and citing the relevant literature in a scientifically appropriate manner.

List of essential papers. We consider these as the minimum necessary citations

  1. Neese, F.
     Software update: the ORCA program system, version 6.0
     WIRES Comput. Molec. Sci. 2025 15(1), e70019
     doi.org/10.1002/wcms.70019

List of papers to cite with high priority. The work reported in these papers was absolutely
necessary for this run to complete.
Our perspective: the developers of density functionals and basis sets usually get cited in chemistry papers
Good! But without the algorithms to do something with them, the functionals or basis sets would not do anything.
Hence, in our opinion, the algorithm design and method developments papers are equally worthy of getting cited

  1. Lehtola, S.; Steigemann, C.; Oliveira, M.; Marques, M.
     Recent developments in Libxc - A comprehensive library of functionals for density functional theory
     Software X 2018 7 , 
     doi.org/10.1016/j.softx.2017.11.002
  2. Neese, F.
     The SHARK Integral Generation and Digestion System
     J. Comp. Chem. 2022 44(3), 381
     doi.org/10.1002/jcc.26942

List of suggested additional citations. These are papers that are important in the 'surrounding' of 
of this run, or papers that preceded the highly important papers. If you like your results we are grateful for a citation.

  1. Neese, F.
     The ORCA program system
     WIRES Comput. Molec. Sci. 2012 2(1), 73-78
     doi.org/10.1002/wcms.81
  2. Neese, F.
     Software update: the ORCA program system, version 4.0
     WIRES Comput. Molec. Sci. 2018 8(1), 1-6
     doi.org/10.1002/wcms.1327
  3. Neese, F.; Wennmohs, F.; Becker, U.; Riplinger, C.
     The ORCA quantum chemistry program package
     J. Chem. Phys. 2020 152(22), 224108
     doi.org/10.1063/5.0004608
  4. Neese, F.
     Software update: The ORCA program system—Version 5.0
     WIRES Comput. Molec. Sci. 2022 12(1), e1606
     doi.org/10.1002/wcms.1606

List of optional additional citations

  1. Neese, F.
     Approximate second-order SCF convergence for spin unrestricted wavefunctions
     Chem. Phys. Lett. 2000 325(1-3), 93-98
     doi.org/10.1016/s0009-2614(00)00662-x

Timings for individual modules:

Sum of individual times          ...       96.188 sec (=   1.603 min)
Startup calculation              ...        0.555 sec (=   0.009 min)   0.6 %
SCF iterations                   ...       95.018 sec (=   1.584 min)  98.8 %
Property integrals               ...        0.326 sec (=   0.005 min)   0.3 %
Property calculations            ...        0.276 sec (=   0.005 min)   0.3 %
Orbital localization             ...        0.013 sec (=   0.000 min)   0.0 %
                             ****ORCA TERMINATED NORMALLY****
TOTAL RUN TIME: 0 days 0 hours 1 minutes 36 seconds 928 msec
