
                                 *****************
                                 * O   R   C   A *
                                 *****************

                                            #,                                       
                                            ###                                      
                                            ####                                     
                                            #####                                    
                                            ######                                   
                                           ########,                                 
                                     ,,################,,,,,                         
                               ,,#################################,,                 
                          ,,##########################################,,             
                       ,#########################################, ''#####,          
                    ,#############################################,,   '####,        
                  ,##################################################,,,,####,       
                ,###########''''           ''''###############################       
              ,#####''   ,,,,##########,,,,          '''####'''          '####       
            ,##' ,,,,###########################,,,                        '##       
           ' ,,###''''                  '''############,,,                           
         ,,##''                                '''############,,,,        ,,,,,,###''
      ,#''                                            '''#######################'''  
     '                                                          ''''####''''         
             ,#######,   #######,   ,#######,      ##                                
            ,#'     '#,  ##    ##  ,#'     '#,    #''#        ,####,    ,#,          
            ##       ##  ##   ,#'  ##            #'  '#       #'       ,# #          
            ##       ##  #######   ##           ,######,      #####,      #          
            '#,     ,#'  ##    ##  '#,     ,#' ,#      #,     #,   #      #          
             '#######'   ##     ##  '#######'  #'      '#     '####' #    #          



                #########################################################
                #                        -***-                          #
                #          Department of theory and spectroscopy        #
                #                                                       #
                #                      Frank Neese                      #
                #                                                       #
                #     Directorship, Architecture, Infrastructure        #
                #                    SHARK, DRIVERS                     #
                #        Core code/Algorithms in most modules           #
                #                                                       #
                #        Max Planck Institute fuer Kohlenforschung      #
                #                Kaiser Wilhelm Platz 1                 #
                #                 D-45470 Muelheim/Ruhr                 #
                #                      Germany                          #
                #                                                       #
                #                  All rights reserved                  #
                #                        -***-                          #
                #########################################################


                         Program Version 6.1.1  -  RELEASE   -
                                (GIT: $487d211c$)
                          ($2025-11-21 10:33:24 +0100$)


 With contributions from (in alphabetic order):
[Max-Planck-Institut fuer Kohlenforschung]                               
  Daniel Aravena         : Magnetic Suceptibility                        
  Michael Atanasov       : Ab Initio Ligand Field Theory (pilot matlab implementation)
  Alexander A. Auer      : GIAO ZORA, VPT2 properties, NMR spectrum      
  Ute Becker             : All parallelization in ORCA, NUMFREQ, NUMCALC 
  Giovanni Bistoni       : ED, misc. LED, open-shell LED, HFLD           
  Dmytro Bykov           : pre 5.0 version of the SCF Hessian            
  Marcos Casanova-Páez   : Triplet and SCS-CIS(D). UHF-(DLPNO)-IP/EA/STEOM-CCSD. UHF-CVS-IP/STEOM-CCSD   
  Vijay G. Chilkuri      : MRCI spin determinant printing, contributions to CSF-ICE 
  Pauline Colinet        : FMM embedding                                 
  Dipayan Datta          : RHF DLPNO-CCSD density                        
  Achintya Kumar Dutta   : EOM-CC, STEOM-CC                              
  Nicolas Foglia         : Exact transition moments, OPA infrastructure, MCD improvements    
  Dmitry Ganyushin       : Spin-Orbit,Spin-Spin,Magnetic field MRCI      
  Miquel Garcia-Rates    : C-PCM and meta-GGA Hessian, CCSD/C-PCM, Gaussian charge scheme 
  Tiago L. C. Gouveia    : GS-ROHF, GS-ROCIS                             
  Yang Guo               : DLPNO-NEVPT2, F12-NEVPT2, CIM, IAO-localization        
  Andreas Hansen         : Spin unrestricted coupled pair/coupled cluster methods 
  Ingolf Harden          : AUTO-CI MPn and infrastructure                
  Benjamin Helmich-Paris : MC-RPA, TRAH-(SCF,CASSCF), AVAS, COSX integrals, SCF dyn. polar., MC-PDFT, srDFT 
  Lee Huntington         : MR-EOM, pCC                                   
  Robert Izsak           : Overlap fitted RIJCOSX, COSX-SCS-MP3, EOM     
  Riya Kayal             : Wick's Theorem for AUTO-CI, AUTO-CI UHF-CCSDT 
  Emily Kempfer          : AUTO-CI RHF CISDT and CCSDT, approximate NEVPT4
  Christian Kollmar      : KDIIS, OOCD, Brueckner-CCSD(T), CCSD density, CASPT2, CASPT2-K, improved NEVPT2 
  Axel Koslowski         : Symmetry handling                             
  Simone Kossmann        : meta-GGA functionals, TD-DFT gradient, OOMP2, (MP2 Hessian; deprecated post 5.0) 
  Lucas Lang             : DCDCAS, Hyperfine gauge corrections, ICE-SOC+SSC
  Marvin Lechner         : AUTO-CI (C++ implementation), FIC-MRCC        
  Spencer Leger          : CASSCF response                               
  Dagmar Lenk            : GEPOL surface, SMD, ORCA-2-JSON               
  Dimitrios Liakos       : Extrapolation schemes; Compound Job, Property file
  Dimitrios Manganas     : Further ROCIS development; embedding schemes. LFT, Crystal Embedding 
  Dimitrios Pantazis     : SARC Basis sets                               
  Anastasios Papadopoulos: AUTO-CI, single reference methods and gradients 
  Taras Petrenko         : pre 6.0 DFT Hessian and TD-DFT gradient,  ECA, NRVS 
  Petra Pikulova         : Analytic Raman intensities                    
  Peter Pinski           : DLPNO-MP2, DLPNO-MP2 Gradient                 
  Shashank Vittal Rao    : ES-AILFT, MagRelax                            
  Christoph Reimann      : Effective Core Potentials                     
  Marius Retegan         : Local ZFS, SOC                                
  Christoph Riplinger    : Optimizer, TS searches, QM/MM, DLPNO-CCSD(T), (RO)-DLPNO pert. Triples 
  Michael Roemelt        : Original ROCIS implementation, recursive CI coupling coefficients
  Masaaki Saitow         : Open-shell DLPNO-CCSD energy and density      
  Barbara Sandhoefer     : DKH picture change effects                    
  Yorick L. A. Schmerwitz: GMF and freeze-and-release deltaSCF, NEB S-IDPP initial path                    
  Kantharuban Sivalingam : CASSCF convergence/infrastructure, NEVPT2, NEVPT3, NEVPT4(SD), FIC-MRCI and CEPA variants
  Bernardo de Souza      : ESD, SOC TD-DFT                               
  Georgi L. Stoychev     : AutoAux, RI-MP2 NMR, DLPNO-MP2 response, X2C  
  Van Anh Tran           : RI-MP2 g-tensors                              
  Willem Van den Heuvel  : Paramagnetic NMR                              
  Zikuan Wang            : NOTCH, Electric field optimization            
  Frank Wennmohs         : Technical directorship and infrastructure     
  Hang Xu                : AUTO-CI-Response properties                   
                                                                         
[FACCTs GmbH]                                                            
  Markus Bursch, Nicolas Foglia, Miquel Garcia-Rates, Ingolf Harden, Hagen Neugebauer, Anastasios Papadopoulos, 
  Christoph Riplinger, Bernardo de Souza, Georgi L. Stoychev                                                    
                                                                 
  APM, various basis sets, CI-OPT, improved COSX, DLPNO-Multilevel,           
  DOCKER, DRACO, updates on ESD, Fragmentator, GOAT, IRC, LR-CPCM, L-BFGS, MBIS, meta-GGA TD-DFT gradient, ML-optimized integration grids, 
  MM, NACMEs, nearIR, NEB, NEB-TS, NL-DFT gradient (VV10), 2- and 3-layer-ONIOM, interface openCOSMO-RS, QMMM,   
  Crystal-QMMM, RESP, rigid body optimization, SF, symmetry and pop. for TD-DFT, various functionals, SOLVATOR                                   
                                                                         
[Other institutions]                                                     
  V. Asgeirsson          : NEB                                           
  Christoph Bannwarth    : sTDA-DFT, sTD-DFT, PBEh-3c, B97-3c, D3        
  Giovanni Bistoni       : ETS/NOCV, ADLD/ADEX, COVALED                  
  Martin Brehm           : Molecular dynamics                            
  Ronald Cardenas        : ETS/NOCV                                      
  Martina Colucci        : COVALED                                       
  Sebastian Ehlert       : rSCAN, r2SCAN, r2SCAN-3c, D4, dhf basis sets  
  Marvin Friede          : D4 for Fr, Ra, Ac-Lr                          
  Lars Goerigk           : TD-DFT with DH, B97 family of functionals     
  Stefan Grimme          : VdW corrections, initial TS optimization, DFT functionals, gCP, sTDA/sTD-DF 
  Waldemar Hujo          : DFT-NL                                        
  H. Jonsson             : NEB                                           
  Holger Kruse           : gCP                                           
  Marcel Mueller         : wB97X-3c, vDZP basis set                      
  Hagen Neugebauer       : wr2SCAN, Native XTB                           
  Gianluca Regni         : ADLD/ADEX                                     
  Tobias Risthaus        : pre 6.0 range-separated hybrid DFT and stability analysis
  Lukas Wittmann         : regularized MP2, r2SCAN double-hybrids, wr2SCAN        
                                                                         
We gratefully acknowledge several colleagues who have allowed us to      
interface, adapt or use parts of their codes:                            
  Ed Valeev, F. Pavosevic, A. Kumar             : LibInt (2-el integral package), F12 methods 
  Garnet Chan, S. Sharma, J. Yang, R. Olivares  : DMRG                   
  Ulf Ekstrom                                   : XCFun DFT Library      
  Mihaly Kallay                                 : mrcc  (arbitrary order and MRCC methods)
  Frank Weinhold                                : gennbo (NPA and NBO analysis)           
  Simon Mueller                                 : openCOSMO-RS                            
  Christopher J. Cramer and Donald G. Truhlar   : smd solvation model                     
  S Lehtola, MJT Oliveira, MAL Marques          : LibXC Library                           
  Liviu Ungur et al                             : ANISO software                          


 Your calculation uses the libint2 library for the computation of 2-el integrals
 For citations please refer to: http://libint.valeyev.net

 Your ORCA version has been built with support for libXC version: 7.0.0
 For citations please refer to: https://libxc.gitlab.io

 This ORCA versions uses:
   CBLAS   interface :  Fast vector & matrix operations
   LAPACKE interface :  Fast linear algebra routines
   SCALAPACK package :  Parallel linear algebra routines
   Shared memory     :  Shared parallel matrices
   BLAS/LAPACK       :  OpenBLAS 0.3.29  USE64BITINT DYNAMIC_ARCH NO_AFFINITY Cooperlake SINGLE_THREADED
        Core in use  :  Cooperlake
   Copyright (c) 2011-2014, The OpenBLAS Project


  ***********************************
  * Starting time: Wed May 20 12:32:45 2026
  * Host name:     c1-36
  * Process ID:    781094
  * Working dir.:  /cluster/projects/nn14654k/ylvaos/basis_set_n_funcs/functionals/gga_c_N12/CH3COOH/out
  ***********************************

Using LibXC functional ID  80 : Minnesota N12 correlation functional
[ 1]  R. Peverati and D. G. Truhlar.,  J. Chem. Theory Comput. 8, 2310 (2012)
Using LibXC functional ID  80 : Minnesota N12 correlation functional
[ 1]  R. Peverati and D. G. Truhlar.,  J. Chem. Theory Comput. 8, 2310 (2012)
Your calculation utilizes LibXC
by S. Lehtola, C. Steigemann, M. J. T. Oliveira & M. A. L. Marques
Please cite in your paper:
Lehtola, S.; Steigemann, C.; Oliveira, M.J.T.; Marques, M. A. L. Software X, 7, (2018), 1.
   

================================================================================

----- Orbital basis set information -----
Your calculation utilizes the basis: cc-pVTZ 
       H, B-Ne : Obtained from the ccRepo (grant-hill.group.shef.ac.uk/ccrepo) Feb. 2017
                 T. H. Dunning, Jr., J. Chem. Phys. 90, 1007 (1989)
            He : Obtained from the ccRepo (grant-hill.group.shef.ac.uk/ccrepo) Feb. 2017
                 D. E. Woon, T. H. Dunning, Jr., J. Chem. Phys. 100, 2975 (1994)
  Li-Be, Na-Mg : Obtained from the ccRepo (grant-hill.group.shef.ac.uk/ccrepo) Feb. 2017
                 B. P. Prascher, D. E. Woon, K. A. Peterson, T. H. Dunning, Jr., A. K. Wilson, Theor. Chem. Acc. 128, 69 (2011)
         Al-Ar : Obtained from the ccRepo (grant-hill.group.shef.ac.uk/ccrepo) Feb. 2017
                 D. E. Woon, T. H. Dunning, Jr., J. Chem. Phys. 98, 1358 (1993)
            Ca : Obtained from the Peterson Research Group Website (tyr0.chem.wsu.edu/~kipeters) Feb. 2017
                 J. Koput, K. A. Peterson, J. Phys. Chem. 106, 9595 (2002)
         Sc-Zn : Obtained from the ccRepo (grant-hill.group.shef.ac.uk/ccrepo) Feb. 2017
                 N. B. Balabanov, K. A. Peterson, J. Chem. Phys. 123, 064107 (2005)
                 N. B. Balabanov, K. A. Peterson, J. Chem. Phys. 125, 074110 (2006)
         Ga-Kr : Obtained from the ccRepo (grant-hill.group.shef.ac.uk/ccrepo) Feb. 2017
                 A. K. Wilson, D. E. Woon, K. A. Peterson, T. H. Dunning, Jr., J. Chem. Phys. 110, 7667 (1999)
             Y : Obtained from the ccRepo (grant-hill.group.shef.ac.uk/ccrepo) Feb. 2017
                 K. A. Peterson, D. Figgen, M. Dolg, H. Stoll, J. Chem. Phys. 126, 124101 (2007)
        Ag, Au : Obtained from the Peterson Research Group Website (tyr0.chem.wsu.edu/~kipeters) Feb. 2017
                 K. A. Peterson, C. Puzzarini, Theor. Chem. Acc. 114, 283 (2005)

================================================================================
                                        WARNINGS
                       Please study these warnings very carefully!
================================================================================


================================================================================
                                       INPUT FILE
================================================================================
NAME = /cluster/projects/nn14654k/ylvaos/basis_set_n_funcs/functionals/gga_c_N12/CH3COOH/inp/CH3COOH_gga_c_N12_ccpvtz.inp
|  1> ! dft cc-pVTZ TightSCF
|  2> %pal nprocs 8 end
|  3> 
|  4> %loc
|  5>   LocMet NewBoys
|  6>   Occ true
|  7> end
|  8> 
|  9> %method
| 10>   exchange None
| 11>   correlation gga_c_N12
| 12> end
| 13> 
| 14> %elprop
| 15>   Dipole true
| 16>   Quadrupole true
| 17> end
| 18> 
| 19> * xyz 0 1
| 20> C    0.000000000000   0.154560000000   0.000000000000
| 21> C    1.073776000000  -0.892748000000   0.000000000000
| 22> O    0.166384000000   1.360084000000   0.000000000000
| 23> O   -1.236449000000  -0.415036000000   0.000000000000
| 24> H   -1.867646000000   0.333582000000   0.000000000000
| 25> H    2.048189000000  -0.408135000000   0.000000000000
| 26> H    0.968661000000  -1.528353000000   0.881747000000
| 27> H    0.968661000000  -1.528353000000  -0.881747000000
| 28> *
| 29> 
| 30> 
| 31>                          ****END OF INPUT****
================================================================================

                       ****************************
                       * Single Point Calculation *
                       ****************************

---------------------------------
CARTESIAN COORDINATES (ANGSTROEM)
---------------------------------
  C      0.000000    0.154560    0.000000
  C      1.073776   -0.892748    0.000000
  O      0.166384    1.360084    0.000000
  O     -1.236449   -0.415036    0.000000
  H     -1.867646    0.333582    0.000000
  H      2.048189   -0.408135    0.000000
  H      0.968661   -1.528353    0.881747
  H      0.968661   -1.528353   -0.881747

----------------------------
CARTESIAN COORDINATES (A.U.)
----------------------------
  NO LB      ZA    FRAG     MASS         X           Y           Z
   0 C     6.0000    0    12.011    0.000000    0.292076    0.000000
   1 C     6.0000    0    12.011    2.029143   -1.687049    0.000000
   2 O     8.0000    0    15.999    0.314420    2.570186    0.000000
   3 O     8.0000    0    15.999   -2.336550   -0.784304    0.000000
   4 H     1.0000    0     1.008   -3.529339    0.630379    0.000000
   5 H     1.0000    0     1.008    3.870516   -0.771263    0.000000
   6 H     1.0000    0     1.008    1.830504   -2.888169    1.666260
   7 H     1.0000    0     1.008    1.830504   -2.888169   -1.666260

--------------------------------
INTERNAL COORDINATES (ANGSTROEM)
--------------------------------
 C      0   0   0     0.000000000000     0.00000000     0.00000000
 C      1   0   0     1.499949647502     0.00000000     0.00000000
 O      1   2   0     1.216951827326   126.42686784     0.00000000
 O      1   2   3     1.361339683113   110.98078396   180.00000000
 H      4   1   2     0.979203024267   105.40175469   180.00000085
 H      2   1   3     1.088269476893   109.27200725     0.00000000
 H      2   1   3     1.092025938913   109.72406365   120.93315147
 H      2   1   3     1.092025938913   109.72406365   239.06684853

---------------------------
INTERNAL COORDINATES (A.U.)
---------------------------
 C      0   0   0     0.000000000000     0.00000000     0.00000000
 C      1   0   0     2.834494048450     0.00000000     0.00000000
 O      1   2   0     2.299705671821   126.42686784     0.00000000
 O      1   2   3     2.572559176322   110.98078396   180.00000000
 H      4   1   2     1.850425545371   105.40175469   180.00000085
 H      2   1   3     2.056531271234   109.27200725     0.00000000
 H      2   1   3     2.063629955684   109.72406365   120.93315147
 H      2   1   3     2.063629955684   109.72406365   239.06684853

---------------------
BASIS SET INFORMATION
---------------------
There are 3 groups of distinct atoms

 Group   1 Type C   : 18s5p2d1f contracted to 4s3p2d1f pattern {8811/311/11/1}
 Group   2 Type O   : 18s5p2d1f contracted to 4s3p2d1f pattern {8811/311/11/1}
 Group   3 Type H   : 5s2p1d contracted to 3s2p1d pattern {311/11/1}

Atom   0C    basis set group =>   1
Atom   1C    basis set group =>   1
Atom   2O    basis set group =>   2
Atom   3O    basis set group =>   2
Atom   4H    basis set group =>   3
Atom   5H    basis set group =>   3
Atom   6H    basis set group =>   3
Atom   7H    basis set group =>   3


           ************************************************************
           *        Program running with 8 parallel MPI-processes     *
           *              working on a common directory               *
           ************************************************************
------------------------------------------------------------------------------
                             ORCA STARTUP CALCULATIONS
------------------------------------------------------------------------------
------------------------------------------------------------------------------
                   ___                                                        
                  /   \      - P O W E R E D   B Y -                         
                 /     \                                                     
                 |  |  |   _    _      __       _____    __    __             
                 |  |  |  | |  | |    /  \     |  _  \  |  |  /  |          
                  \  \/   | |  | |   /    \    | | | |  |  | /  /          
                 / \  \   | |__| |  /  /\  \   | |_| |  |  |/  /          
                |  |  |   |  __  | /  /__\  \  |    /   |      \           
                |  |  |   | |  | | |   __   |  |    \   |  |\   \          
                \     /   | |  | | |  |  |  |  | |\  \  |  | \   \       
                 \___/    |_|  |_| |__|  |__|  |_| \__\ |__|  \__/        
                                                                              
                      - O R C A' S   B I G   F R I E N D -                    
                                      &                                       
                       - I N T E G R A L  F E E D E R -                       
                                                                              
 v1 FN, 2020, v2 2021, v3 2022-2024                                           
------------------------------------------------------------------------------


----------------------
SHARK INTEGRAL PACKAGE
----------------------

Number of atoms                             ...      8
Number of basis functions                   ...    200
Number of shells                            ...     88
Maximum angular momentum                    ...      3
Integral batch strategy                     ... SHARK/LIBINT Hybrid
RI-J (if used) integral strategy            ... SPLIT-RIJ (Revised 2003 algorithm where possible)
Printlevel                                  ...      1
Contraction scheme used                     ... PARTIAL GENERAL contraction
Prescreening option                         ... SCHWARTZ
   Thresh                                   ... 2.500e-11
   Tcut                                     ... 2.500e-12
   Tpresel                                  ... 2.500e-12 
Coulomb Range Separation                    ... NOT USED
Exchange Range Separation                   ... NOT USED
Multipole approximations                    ... NOT USED
Finite Nucleus Model                        ... NOT USED
CABS basis                                  ... NOT available
Auxiliary Coulomb fitting basis             ... NOT available
Auxiliary J/K fitting basis                 ... NOT available
Auxiliary Correlation fitting basis         ... NOT available
Auxiliary 'external' fitting basis          ... NOT available

Checking pre-screening integrals            ... done (  0.0 sec) Dimension = 88
Save PGC pre-screening integrals            ... done (  0.0 sec) Dimension = 88
Calculate PGC overlap integrals             ... done (  0.0 sec) Dimension = 64
Calculating pre-screening integrals (ORCA)  ... done (  0.0 sec) Dimension = 64
Shell pair information
Shell pair cut-off parameter TPreSel        ...   2.5e-12
Total number of shell pairs                 ...      3916
Shell pairs after pre-screening             ...      3432
Total number of primitive shell pairs       ...      5484
Primitive shell pairs kept                  ...      4462
          la=0 lb=0:   1037 shell pairs
          la=1 lb=0:    962 shell pairs
          la=1 lb=1:    206 shell pairs
          la=2 lb=0:    568 shell pairs
          la=2 lb=1:    237 shell pairs
          la=2 lb=2:     78 shell pairs
          la=3 lb=0:    206 shell pairs
          la=3 lb=1:     80 shell pairs
          la=3 lb=2:     48 shell pairs
          la=3 lb=3:     10 shell pairs

Checking whether 4 symmetric matrices of dimension 200 fit in memory
:Max Core in MB      =   4096.00
 MB in use           =      5.78
 MB left             =   4090.22
 MB needed           =      0.61
 Data fit in memory  = YES
Calculating Nuclear repulsion               ... done (  0.0 sec) ENN=    120.693288504615 Eh

Diagonalization of the overlap matrix:
Smallest eigenvalue                        ... 8.493e-04
Time for diagonalization                   ...    0.002 sec
Threshold for overlap eigenvalues          ... 1.000e-07
Number of eigenvalues below threshold      ... 0
Time for construction of square roots      ...    0.002 sec
Total time needed                          ...    0.006 sec

-------------------
DFT GRID GENERATION
-------------------

General Integration Accuracy     IntAcc      ... 4.388
Radial Grid Type                 RadialGrid  ... OptM3 with GC (2021)
Angular Grid (max. ang.)         AngularGrid ... 4 (Lebedev-302)
Angular grid pruning method      GridPruning ... 4 (adaptive)
Weight generation scheme         WeightScheme... mBecke (2022)
Basis function cutoff            BFCut       ... 1.0000e-11
Integration weight cutoff        WCut        ... 1.0000e-14
Partially contracted basis set               ... off
Rotationally invariant grid construction     ... off
Angular grids for H and He will be reduced by one unit

Total number of grid points                  ...    37392
Total number of batches                      ...      588
Average number of points per batch           ...       63
Average number of grid points per atom       ...     4674

---------------------
SHARK GRID GENERATION
---------------------

General Integration Accuracy     IntAcc      ... 4.388
Radial Grid Type                 RadialGrid  ... OptM3 with GC (2021)
Angular Grid (max. ang.)         AngularGrid ... 4 (Lebedev-302)
Angular grid pruning method      GridPruning ... 4 (adaptive)
Weight generation scheme         WeightScheme... mBecke (2022)
Basis function cutoff            BFCut       ... 1.0000e-11
Integration weight cutoff        WCut        ... 1.0000e-14
Partially contracted basis set               ... off
Rotationally invariant grid construction     ... off
Angular grids for H and He will be reduced by one unit
Steep s-basis detected: some atoms will have their radial
                        grid points doubled.

Total number of grid points                  ...    62114
Total number of batches                      ...      975
Average number of points per batch           ...       63
Average number of grid points per atom       ...     7764
Grids setup in   0.4 sec
Initializing property integral containers    ... done (  0.0 sec)

SHARK setup successfully completed in   0.5 seconds

Maximum memory used throughout the entire STARTUP-calculation: 20.0 MB


           ************************************************************
           *        Program running with 8 parallel MPI-processes     *
           *              working on a common directory               *
           ************************************************************
-------------------------------------------------------------------------------
                                 ORCA GUESS
                   Start orbitals & Density for SCF / CASSCF
-------------------------------------------------------------------------------

------------
SCF SETTINGS
------------
Hamiltonian:
 Density Functional     Method          .... DFT(GTOs)
 Exchange Functional    Exchange        .... no Exchange
  Functional kind                       .... Correlation
  Functional name                       .... Minnesota N12 correlation functional
  Functional family                     .... GGA
  Functional refs                              
    [ 0] R. Peverati and D. G. Truhlar.,  J. Chem. Theory Comput. 8, 2310 (2012), doi: 10.1021/ct3002656
  Functional external parameters        .... 10
    Parameter  0 _css0      =  1.000000e+00 : u^0 coefficient for same-spin correlation
    Parameter  1 _css1      = -5.531700e+00 : u^1 coefficient for same-spin correlation
    Parameter  2 _css2      =  3.079580e+01 : u^2 coefficient for same-spin correlation
    Parameter  3 _css3      = -5.641960e+01 : u^3 coefficient for same-spin correlation
    Parameter  4 _css4      =  3.212500e+01 : u^4 coefficient for same-spin correlation
    Parameter  5 _cos0      =  1.000000e+00 : u^0 coefficient for opposite-spin correlation
    Parameter  6 _cos1      =  3.245110e+00 : u^1 coefficient for opposite-spin correlation
    Parameter  7 _cos2      = -2.528930e+01 : u^2 coefficient for opposite-spin correlation
    Parameter  8 _cos3      =  1.444070e+01 : u^3 coefficient for opposite-spin correlation
    Parameter  9 _cos4      =  1.968700e+01 : u^4 coefficient for opposite-spin correlation
 Gradients option       PostSCFGGA      .... off


General Settings:
 Integral files         IntName         .... /cluster/projects/nn14654k/ylvaos/basis_set_n_funcs/functionals/gga_c_N12/CH3COOH/inp/CH3COOH_gga_c_N12_ccpvtz
 Hartree-Fock type      HFTyp           .... RHF
 Total Charge           Charge          ....    0
 Multiplicity           Mult            ....    1
 Number of Electrons    NEL             ....   32
 Basis Dimension        Dim             ....  176
 Nuclear Repulsion      ENuc            ....    120.6932885046 Eh

Convergence Acceleration:
 AO-DIIS                CNVDIIS         .... on
   Start iteration      DIISMaxIt       ....    12
   Startup error        DIISStart       ....  0.200000
   # of expansion vecs  DIISMaxEq       ....     5
   Bias factor          DIISBfac        ....   1.050
   Max. coefficient     DIISMaxC        ....  10.000
 MO-DIIS                CNVKDIIS        .... off
 Trust-Rad. Augm. Hess. CNVTRAH         .... auto
   Auto Start mean grad. ratio tolernc. ....  1.125000
   Auto Start start iteration           ....    50
   Auto Start num. interpolation iter.  ....    10
   Max. Number of Micro iterations      ....    24
   Max. Number of Macro iterations      .... Maxiter - #DIIS iter
   Number of Davidson start vectors     ....     2
   Converg. threshold    (grad. norm)   ....   1.000e-05
   Grad. Scal. Fac. for Micro threshold ....   0.100
   Minimum threshold for Micro iter.    ....   1.000e-02
   NR start threshold (gradient norm)   ....   1.000e-04
   Initial trust radius                 ....   0.400
   Minimum AH scaling param. (alpha)    ....   1.000
   Maximum AH scaling param. (alpha)    .... 1000.000
   Quad. conv. algorithm                .... NR
   White noise on init. David. guess    .... on
   Maximum white noise                  ....   0.010
   Pseudo random numbers                .... off
   Inactive MOs                         .... canonical
   Orbital update algorithm             .... Taylor
   Preconditioner                       .... Diag
   Full preconditioner red. dimension   ....   250
 SOSCF                 CNVSOSCF           .... on
   Start iteration     SOSCFMaxIt         ....   150
   Startup grad/error  SOSCFStart         ....  0.003300
   Hessian update      SOSCFHessUp        .... L-BFGS
   Autom. constraints  SOSCFAutoConstrain .... off
 Level Shifting         CNVShift        .... on
   Level shift para.    LevelShift      ....    0.2500
   Turn off err/grad.   ShiftErr        ....    0.0010
 Zerner damping         CNVZerner       .... off
 Static damping         CNVDamp         .... on
   Fraction old density DampFac         ....    0.7000
   Max. Damping (<1)    DampMax         ....    0.9800
   Min. Damping (>=0)   DampMin         ....    0.0000
   Turn off err/grad.   DampErr         ....    0.1000

SCF Procedure:
 Maximum # iterations   MaxIter         ....   125
 SCF integral mode      SCFMode         .... Direct
   Integral package                     .... SHARK and LIBINT hybrid scheme
 Reset frequency        DirectResetFreq ....    20
 Integral Threshold     Thresh          ....  2.500e-11 Eh
 Primitive CutOff       TCut            ....  2.500e-12 Eh

Convergence Tolerance:
 Convergence Check Mode ConvCheckMode   .... Total+1el-Energy
 Convergence forced     ConvForced      .... 0
 Energy Change          TolE            ....  1.000e-08 Eh
 1-El. energy change                    ....  1.000e-05 Eh
 Orbital Gradient       TolG            ....  1.000e-05
 Orbital Rotation angle TolX            ....  1.000e-05
 DIIS Error             TolErr          ....  5.000e-07

------------------------------
INITIAL GUESS: MODEL POTENTIAL
------------------------------
Loading Hartree-Fock densities                     ... done
Calculating cut-offs                               ... done
Initializing the effective Hamiltonian             ... done
Setting up the integral package (SHARK)            ... done
Starting the Coulomb interaction                   ... done (   0.0 sec)
Making the grid                                    ... done (   0.0 sec)
Mapping shells                                     ... done
Starting the XC term evaluation                    ... done (   0.0 sec)
  promolecular density results
     # of electrons  =     31.997224895
     EX              =      0.000000000
     EC              =     -1.705860962
     EX+EC           =     -1.705860962
Transforming the Hamiltonian                       ... done (   0.0 sec)
Diagonalizing the Hamiltonian                      ... done (   0.0 sec)
Back transforming the eigenvectors                 ... done (   0.0 sec)
Now organizing SCF variables                       ... done
                      ------------------
                      INITIAL GUESS DONE (   0.1 sec)
                      ------------------
             **** ENERGY FILE WAS UPDATED (/cluster/projects/nn14654k/ylvaos/basis_set_n_funcs/functionals/gga_c_N12/CH3COOH/inp/CH3COOH_gga_c_N12_ccpvtz.en.tmp) ****
Finished Guess after   0.1 sec
Maximum memory used throughout the entire GUESS-calculation: 10.1 MB


           ************************************************************
           *        Program running with 8 parallel MPI-processes     *
           *              working on a common directory               *
           ************************************************************

-------------------------------------------------------------------------------------------
                                      ORCA LEAN-SCF
                              memory conserving SCF solver
-------------------------------------------------------------------------------------------

----------------------------------------D-I-I-S--------------------------------------------
Iteration    Energy (Eh)           Delta-E    RMSDP     MaxDP     DIISErr   Damp  Time(sec)
-------------------------------------------------------------------------------------------
               ***  Starting incremental Fock matrix formation  ***
    1    -199.8162712410164090     0.00e+00  3.04e-01  1.05e+01  8.54e-01  0.700   0.4
Warning: op=0 Small HOMO/LUMO gap (  -0.247) - skipping pre-diagonalization
         LevelShift set to 0.347 Eh
         Will do a full diagonalization
    2    -201.0191912747927745    -1.20e+00  2.14e-01  7.42e+00  1.84e-01  0.700   0.3
                               ***Turning on AO-DIIS***
    3    -201.4258661946610687    -4.07e-01  1.49e-01  5.15e+00  1.55e-01  0.700   0.3
    4    -201.6727361175603619    -2.47e-01  1.03e-01  3.55e+00  1.63e-01  0.700   0.3
    5    -201.8535100520084029    -1.81e-01  7.08e-02  2.43e+00  1.52e-01  0.700   0.3
    6    -201.9893259211658005    -1.36e-01  4.84e-02  1.65e+00  1.34e-01  0.700   0.4
    7    -202.0909805156196057    -1.02e-01  3.31e-02  1.11e+00  1.06e-01  0.700   0.3
    8    -202.1657335287140995    -7.48e-02  2.27e-02  7.42e-01  7.03e-02  0.700   0.3
    9    -202.2176215898085729    -5.19e-02  5.24e-02  1.70e+00  4.84e-02  0.000   0.4
   10    -202.3323277892114334    -1.15e-01  1.36e-03  1.67e-02  1.17e-02  0.000   0.3
   11    -202.3327102989346145    -3.83e-04  7.35e-04  9.66e-03  5.72e-03  0.000   0.3
                              *** Initializing SOSCF ***
---------------------------------------S-O-S-C-F--------------------------------------
Iteration    Energy (Eh)           Delta-E    RMSDP     MaxDP     MaxGrad    Time(sec)
--------------------------------------------------------------------------------------
   12    -202.3327826164034491    -7.23e-05  4.24e-04  6.32e-03  9.45e-04     0.3
               *** Restarting incremental Fock matrix formation ***
   13    -202.3327946544484917    -1.20e-05  8.66e-04  1.44e-02  7.39e-04     0.3
   14    -202.3327902366730768     4.42e-06  5.69e-04  8.68e-03  1.29e-03     0.3
   15    -202.3327983635684291    -8.13e-06  5.44e-04  7.80e-03  6.65e-04     0.3
   16    -202.3328013738646973    -3.01e-06  8.49e-05  9.91e-04  3.95e-04     0.5
   17    -202.3328027157142515    -1.34e-06  2.32e-04  3.90e-03  1.90e-04     0.3
   18    -202.3328033950216991    -6.79e-07  9.29e-05  1.32e-03  1.23e-04     0.3
   19    -202.3328034990619813    -1.04e-07  7.37e-05  8.49e-04  1.14e-04     0.3
   20    -202.3328036745487566    -1.75e-07  4.11e-05  6.64e-04  3.85e-05     0.3
   21    -202.3328037025436856    -2.80e-08  1.38e-05  1.53e-04  2.73e-05     0.3
   22    -202.3328037115979328    -9.05e-09  1.30e-05  1.46e-04  2.04e-05     0.2
                 **** Energy Check signals convergence ****

               *****************************************************
               *                     SUCCESS                       *
               *           SCF CONVERGED AFTER  22 CYCLES          *
               *****************************************************

             **** ENERGY FILE WAS UPDATED (/cluster/projects/nn14654k/ylvaos/basis_set_n_funcs/functionals/gga_c_N12/CH3COOH/inp/CH3COOH_gga_c_N12_ccpvtz.en.tmp) ****

----------------
TOTAL SCF ENERGY
----------------

Total Energy       :       -202.33280371914230 Eh           -5505.75550 eV

Components:
Nuclear Repulsion  :        120.69328850461517 Eh            3284.23135 eV
Electronic Energy  :       -323.02609222375747 Eh           -8789.98684 eV
One Electron Energy:       -539.29187145970320 Eh          -14674.87788 eV
Two Electron Energy:        216.26577923594573 Eh            5884.89104 eV

Virial components:
Potential Energy   :       -409.05659031635344 Eh          -11130.99571 eV
Kinetic Energy     :        206.72378659721116 Eh            5625.24021 eV
Virial Ratio       :          1.97875917933612

DFT components:
N(Alpha)           :       15.999990837607 electrons
N(Beta)            :       15.999990837607 electrons
N(Total)           :       31.999981675213 electrons
E(X)               :        0.000000000000 Eh       
E(C)               :       -1.671673513317 Eh       
E(XC)              :       -1.671673513317 Eh       

---------------
SCF CONVERGENCE
---------------

  Last Energy change         ...    9.0542e-09  Tolerance :   1.0000e-08
  Last MAX-Density change    ...    1.4608e-04  Tolerance :   1.0000e-07
  Last RMS-Density change    ...    1.3017e-05  Tolerance :   5.0000e-09
  Last DIIS Error            ...    9.4533e-04  Tolerance :   5.0000e-07
  Last Orbital Gradient      ...    2.0401e-05  Tolerance :   1.0000e-05
  Last Orbital Rotation      ...    6.9305e-05  Tolerance :   1.0000e-05


----------------
ORBITAL ENERGIES
----------------

  NO   OCC          E(Eh)            E(eV) 
   0   2.0000     -16.767477      -456.2663 
   1   2.0000     -16.730344      -455.2558 
   2   2.0000      -8.410396      -228.8585 
   3   2.0000      -8.351390      -227.2529 
   4   2.0000      -0.666945       -18.1485 
   5   2.0000      -0.572764       -15.5857 
   6   2.0000      -0.389577       -10.6009 
   7   2.0000      -0.242638        -6.6025 
   8   2.0000      -0.167967        -4.5706 
   9   2.0000      -0.152513        -4.1501 
  10   2.0000      -0.123293        -3.3550 
  11   2.0000      -0.084611        -2.3024 
  12   2.0000      -0.072906        -1.9839 
  13   2.0000      -0.046171        -1.2564 
  14   2.0000       0.006097         0.1659 
  15   2.0000       0.051102         1.3906 
  16   0.0000       0.150537         4.0963 
  17   0.0000       0.187148         5.0926 
  18   0.0000       0.201744         5.4897 
  19   0.0000       0.222552         6.0560 
  20   0.0000       0.257995         7.0204 
  21   0.0000       0.289947         7.8899 
  22   0.0000       0.336468         9.1558 
  23   0.0000       0.379023        10.3137 
  24   0.0000       0.381157        10.3718 
  25   0.0000       0.402647        10.9566 
  26   0.0000       0.433003        11.7826 
*Only the first 10 virtual orbitals were printed.

                    ********************************
                    * MULLIKEN POPULATION ANALYSIS *
                    ********************************

-----------------------
MULLIKEN ATOMIC CHARGES
-----------------------
   0 C :   -0.220357
   1 C :   -0.675723
   2 O :    0.153384
   3 O :    0.084460
   4 H :    0.089593
   5 H :    0.161042
   6 H :    0.203800
   7 H :    0.203800
Sum of atomic charges:    0.0000000

--------------------------------
MULLIKEN REDUCED ORBITAL CHARGES
--------------------------------
  0 C s       :     3.038123  s :     3.038123
      pz      :     0.993090  p :     3.042054
      px      :     0.994088
      py      :     1.054877
      dz2     :     0.021240  d :     0.124965
      dxz     :     0.023975
      dyz     :     0.038934
      dx2y2   :     0.024267
      dxy     :     0.016549
      f0      :     0.002239  f :     0.015214
      f+1     :     0.001135
      f-1     :     0.001541
      f+2     :     0.000376
      f-2     :     0.000630
      f+3     :     0.005543
      f-3     :     0.003751

  1 C s       :     3.250589  s :     3.250589
      pz      :     1.162403  p :     3.388627
      px      :     1.092857
      py      :     1.133367
      dz2     :     0.008771  d :     0.033772
      dxz     :    -0.000415
      dyz     :     0.012609
      dx2y2   :     0.005560
      dxy     :     0.007248
      f0      :     0.000148  f :     0.002735
      f+1     :     0.000249
      f-1     :     0.000562
      f+2     :     0.000091
      f-2     :     0.000221
      f+3     :     0.000454
      f-3     :     0.001010

  2 O s       :     3.360272  s :     3.360272
      pz      :     1.308186  p :     4.447725
      px      :     1.617057
      py      :     1.522482
      dz2     :     0.004520  d :     0.036806
      dxz     :     0.000416
      dyz     :     0.010151
      dx2y2   :     0.013514
      dxy     :     0.008204
      f0      :     0.000142  f :     0.001813
      f+1     :     0.000026
      f-1     :     0.000193
      f+2     :     0.000368
      f-2     :     0.000035
      f+3     :     0.000508
      f-3     :     0.000541

  3 O s       :     3.447808  s :     3.447808
      pz      :     1.621777  p :     4.439697
      px      :     1.188608
      py      :     1.629312
      dz2     :     0.004881  d :     0.026681
      dxz     :     0.002854
      dyz     :     0.002699
      dx2y2   :     0.006071
      dxy     :     0.010177
      f0      :     0.000193  f :     0.001353
      f+1     :     0.000335
      f-1     :     0.000163
      f+2     :     0.000070
      f-2     :     0.000070
      f+3     :     0.000235
      f-3     :     0.000287

  4 H s       :     0.859818  s :     0.859818
      pz      :     0.029838  p :     0.047083
      px      :     0.005623
      py      :     0.011622
      dz2     :     0.000554  d :     0.003506
      dxz     :     0.000496
      dyz     :     0.000919
      dx2y2   :     0.000554
      dxy     :     0.000983

  5 H s       :     0.824558  s :     0.824558
      pz      :     0.005938  p :     0.012193
      px      :    -0.000488
      py      :     0.006744
      dz2     :     0.000281  d :     0.002207
      dxz     :     0.000394
      dyz     :     0.000065
      dx2y2   :     0.000512
      dxy     :     0.000956

  6 H s       :     0.771313  s :     0.771313
      pz      :     0.006609  p :     0.022467
      px      :     0.008949
      py      :     0.006908
      dz2     :     0.000654  d :     0.002420
      dxz     :     0.000434
      dyz     :     0.000810
      dx2y2   :     0.000233
      dxy     :     0.000289

  7 H s       :     0.771313  s :     0.771313
      pz      :     0.006609  p :     0.022467
      px      :     0.008949
      py      :     0.006908
      dz2     :     0.000654  d :     0.002420
      dxz     :     0.000434
      dyz     :     0.000810
      dx2y2   :     0.000233
      dxy     :     0.000289



                     *******************************
                     * LOEWDIN POPULATION ANALYSIS *
                     *******************************

----------------------
LOEWDIN ATOMIC CHARGES
----------------------
   0 C :   -0.768271
   1 C :    0.121231
   2 O :    0.437026
   3 O :    0.694492
   4 H :   -0.330843
   5 H :   -0.061932
   6 H :   -0.045852
   7 H :   -0.045852

-------------------------------
LOEWDIN REDUCED ORBITAL CHARGES
-------------------------------
  0 C s       :     2.743828  s :     2.743828
      pz      :     0.873069  p :     2.936094
      px      :     0.952083
      py      :     1.110942
      dz2     :     0.054362  d :     0.962519
      dxz     :     0.128009
      dyz     :     0.177775
      dx2y2   :     0.254026
      dxy     :     0.348347
      f0      :     0.004399  f :     0.125830
      f+1     :     0.005298
      f-1     :     0.009116
      f+2     :     0.020375
      f-2     :     0.009231
      f+3     :     0.051256
      f-3     :     0.026155

  1 C s       :     2.627587  s :     2.627587
      pz      :     1.004074  p :     3.002010
      px      :     0.995926
      py      :     1.002010
      dz2     :     0.034425  d :     0.227932
      dxz     :     0.019479
      dyz     :     0.058983
      dx2y2   :     0.058703
      dxy     :     0.056343
      f0      :     0.001574  f :     0.021240
      f+1     :     0.002966
      f-1     :     0.003040
      f+2     :     0.002118
      f-2     :     0.002528
      f+3     :     0.004182
      f-3     :     0.004833

  2 O s       :     3.285619  s :     3.285619
      pz      :     1.233862  p :     4.208951
      px      :     1.477084
      py      :     1.498005
      dz2     :     0.007189  d :     0.063825
      dxz     :     0.000669
      dyz     :     0.014098
      dx2y2   :     0.020952
      dxy     :     0.020918
      f0      :     0.000353  f :     0.004579
      f+1     :     0.000136
      f-1     :     0.000543
      f+2     :     0.000573
      f-2     :     0.000113
      f+3     :     0.001636
      f-3     :     0.001224

  3 O s       :     3.119821  s :     3.119821
      pz      :     1.447548  p :     4.115355
      px      :     1.188779
      py      :     1.479028
      dz2     :     0.007572  d :     0.066105
      dxz     :     0.009325
      dyz     :     0.003228
      dx2y2   :     0.017672
      dxy     :     0.028309
      f0      :     0.000379  f :     0.004227
      f+1     :     0.000390
      f-1     :     0.000163
      f+2     :     0.000155
      f-2     :     0.000431
      f+3     :     0.001405
      f-3     :     0.001304

  4 H s       :     0.876277  s :     0.876277
      pz      :     0.107142  p :     0.372782
      px      :     0.110079
      py      :     0.155561
      dz2     :     0.007001  d :     0.081783
      dxz     :     0.011266
      dyz     :     0.014950
      dx2y2   :     0.026140
      dxy     :     0.022426

  5 H s       :     0.873273  s :     0.873273
      pz      :     0.050049  p :     0.163059
      px      :     0.065193
      py      :     0.047818
      dz2     :     0.002111  d :     0.025599
      dxz     :     0.006144
      dyz     :     0.001986
      dx2y2   :     0.008242
      dxy     :     0.007116

  6 H s       :     0.851720  s :     0.851720
      pz      :     0.056684  p :     0.168683
      px      :     0.050215
      py      :     0.061784
      dz2     :     0.007793  d :     0.025449
      dxz     :     0.005037
      dyz     :     0.006633
      dx2y2   :     0.002622
      dxy     :     0.003364

  7 H s       :     0.851720  s :     0.851720
      pz      :     0.056684  p :     0.168683
      px      :     0.050215
      py      :     0.061784
      dz2     :     0.007793  d :     0.025449
      dxz     :     0.005037
      dyz     :     0.006633
      dx2y2   :     0.002622
      dxy     :     0.003364



                      *****************************
                      * MAYER POPULATION ANALYSIS *
                      *****************************

  NA   - Mulliken gross atomic population
  ZA   - Total nuclear charge
  QA   - Mulliken gross atomic charge
  VA   - Mayer's total valence
  BVA  - Mayer's bonded valence
  FA   - Mayer's free valence

  ATOM       NA         ZA         QA         VA         BVA        FA
  0 C      6.2204     6.0000    -0.2204     5.0974     5.0974     0.0000
  1 C      6.6757     6.0000    -0.6757     3.6655     3.6655     0.0000
  2 O      7.8466     8.0000     0.1534     2.8722     2.8722    -0.0000
  3 O      7.9155     8.0000     0.0845     2.4837     2.4837    -0.0000
  4 H      0.9104     1.0000     0.0896     1.1714     1.1714    -0.0000
  5 H      0.8390     1.0000     0.1610     1.0075     1.0075     0.0000
  6 H      0.7962     1.0000     0.2038     0.9742     0.9742     0.0000
  7 H      0.7962     1.0000     0.2038     0.9742     0.9742     0.0000

  Mayer bond orders larger than 0.100000
B(  0-C ,  1-C ) :   0.9296 B(  0-C ,  2-O ) :   2.6108 B(  0-C ,  3-O ) :   1.5543 
B(  1-C ,  2-O ) :  -0.1039 B(  1-C ,  5-H ) :   0.9460 B(  1-C ,  6-H ) :   0.9317 
B(  1-C ,  7-H ) :   0.9317 B(  2-O ,  4-H ) :   0.1735 B(  3-O ,  4-H ) :   0.8811 


-------
TIMINGS
-------

Total SCF time: 0 days 0 hours 0 min 7 sec 

Total time                  ....       7.354 sec
Sum of individual times     ....       7.103 sec  ( 96.6%)

SCF preparation             ....       0.073 sec  (  1.0%)
Fock matrix formation       ....       6.382 sec  ( 86.8%)
  Startup                   ....       0.015 sec  (  0.2% of F)
  Coulomb formation         ....       5.031 sec  ( 78.8% of F)
  XC integration            ....       1.040 sec  ( 16.3% of F)
    XC Preparation          ....       0.000 sec  (  0.0% of XC)
    Basis function eval.    ....       0.174 sec  ( 16.8% of XC)
    Density eval.           ....       0.114 sec  ( 11.0% of XC)
    XC-Functional eval.     ....       0.057 sec  (  5.5% of XC)
    XC-Potential eval.      ....       0.228 sec  ( 21.9% of XC)
Diagonalization             ....       0.000 sec  (  0.0%)
Density matrix formation    ....       0.104 sec  (  1.4%)
Total Energy calculation    ....       0.029 sec  (  0.4%)
Population analysis         ....       0.011 sec  (  0.1%)
Orbital Transformation      ....       0.028 sec  (  0.4%)
Orbital Orthonormalization  ....       0.000 sec  (  0.0%)
DIIS solution               ....       0.376 sec  (  5.1%)
SOSCF solution              ....       0.100 sec  (  1.4%)
Finished LeanSCF after   7.4 sec

Maximum memory used throughout the entire LEANSCF-calculation: 14.3 MB


           ************************************************************
           *        Program running with 8 parallel MPI-processes     *
           *              working on a common directory               *
           ************************************************************

------------------------------------------------------------------------------
                         ORCA PROPERTY INTEGRAL CALCULATIONS
------------------------------------------------------------------------------

GBWName                                   ... /cluster/projects/nn14654k/ylvaos/basis_set_n_funcs/functionals/gga_c_N12/CH3COOH/inp/CH3COOH_gga_c_N12_ccpvtz.gbw
Number of atoms                           ...      8
Number of basis functions                 ...    200
Max core memory                           ...   4096 MB

Dipole integrals                          ... YES
Quadrupole integrals                      ... YES
Linear momentum integrals                 ...  NO
Angular momentum integrals                ...  NO
Higher moments length integrals           ...  NO
Higher moments velocity integrals         ...  NO
Kinetic energy integrals                  ...  NO
GIAO right hand sides                     ...  NO
GIAO dipole derivative integrals          ...  NO
SOC integrals                             ...  NO
EPR diamagnetic integrals (GIAO)          ...  NO
EPR gauge integrals                       ...  NO
Field gradient integrals                  ...  NO (   0 nuclei)
Spin-dipole/Fermi contact integrals       ...  NO (   0 nuclei)
Contact density integrals                 ...  NO (   0 nuclei)
Nucleus-orbit integrals                   ...  NO (   0 nuclei)
Geometric perturbations                   ...  NO (   8 nuclei)

Choice of electric origin   ... Center of mass
Position of electric origin ... ( -0.0657,  0.0975,  0.0000) 
Choice of magnetic origin   ... GIAO
Position of magnetic origin ... (  0.0000,  0.0000,  0.0000) 

Calculating integrals                     ... Electric Dipole (Length)     done (  0.0 sec)
Calculating integrals                     ... Electric Quadrupole (Length) done (  0.0 sec)

Property integrals calculated in   0.0 sec

Maximum memory used throughout the entire PROPINT-calculation: 10.8 MB
------------------------------------------------------------------------------
                           ORCA ORBITAL LOCALIZATION
------------------------------------------------------------------------------

Input orbitals are from                  ... /cluster/projects/nn14654k/ylvaos/basis_set_n_funcs/functionals/gga_c_N12/CH3COOH/inp/CH3COOH_gga_c_N12_ccpvtz.gbw
Output orbitals are to                   ... /cluster/projects/nn14654k/ylvaos/basis_set_n_funcs/functionals/gga_c_N12/CH3COOH/inp/CH3COOH_gga_c_N12_ccpvtz.loc
Max. number of iterations                ... 128
Localizations seeded randomly            ... on
Convergence tolerance                    ... 1.000e-06
Threshold for strong local MOs           ... 9.500e-01
Threshold for bond MOs                   ... 8.500e-01
Operator                                 ... 0
Orbital range for localization           ... 4 to 15
Localization criterion                   ... NEW-BOYS
Doing the dipole integrals               ... o.k.
Initial value of the localization sum :    46.703423
ITERATION   0 : L=   75.7370436264 DL=  2.90e+01 (AVERGE_DL)=    0.6632521014 
ITERATION   1 : L=   82.2390375883 DL=  6.50e+00 (AVERGE_DL)=    0.3138710882 
ITERATION   2 : L=   82.9563125395 DL=  7.17e-01 (AVERGE_DL)=    0.1042487520 
ITERATION   3 : L=   83.0092226268 DL=  5.29e-02 (AVERGE_DL)=    0.0283137420 
ITERATION   4 : L=   83.0315882186 DL=  2.24e-02 (AVERGE_DL)=    0.0184084927 
ITERATION   5 : L=   83.0421923607 DL=  1.06e-02 (AVERGE_DL)=    0.0126755205 
ITERATION   6 : L=   83.0470340338 DL=  4.84e-03 (AVERGE_DL)=    0.0085649683 
ITERATION   7 : L=   83.0491684907 DL=  2.13e-03 (AVERGE_DL)=    0.0056868495 
ITERATION   8 : L=   83.0500918328 DL=  9.23e-04 (AVERGE_DL)=    0.0037403250 
ITERATION   9 : L=   83.0504868655 DL=  3.95e-04 (AVERGE_DL)=    0.0024464962 
ITERATION  10 : L=   83.0506547696 DL=  1.68e-04 (AVERGE_DL)=    0.0015949927 
ITERATION  11 : L=   83.0507258471 DL=  7.11e-05 (AVERGE_DL)=    0.0010377528 
ITERATION  12 : L=   83.0507558610 DL=  3.00e-05 (AVERGE_DL)=    0.0006743562 
ITERATION  13 : L=   83.0507685140 DL=  1.27e-05 (AVERGE_DL)=    0.0004378507 
ITERATION  14 : L=   83.0507738433 DL=  5.33e-06 (AVERGE_DL)=    0.0002841600 
ITERATION  15 : L=   83.0507760862 DL=  2.24e-06 (AVERGE_DL)=    0.0001843450 
ITERATION  16 : L=   83.0507770298 DL=  9.44e-07 (AVERGE_DL)=    0.0001195693 
LOCALIZATION SUM CONVERGED


--------------------------------------------------------------------------------
                    LOCALIZED MOLECULAR ORBITAL COMPOSITIONS
--------------------------------------------------------------------------------

The Mulliken populations for each LMO on each atom are computed
The LMO`s will be ordered according to atom index and type
  (A) Strongly localized MO`s have populations of >=0.950 on one atom
  (B) Two center bond orbitals have populations of >=0.850 on two atoms
  (C) Other MO`s are considered to be `delocalized`

FOUND  -   0 strongly local MO`s
       -  12 two center bond MO`s
       -   0 significantly delocalized MO`s

Bond-like localized orbitals:
MO  15:   7H  -   0.412619  and   1C  -   0.600007
MO  14:   6H  -   0.412620  and   1C  -   0.600006
MO  13:   5H  -   0.427453  and   1C  -   0.618945
MO  12:   4H  -   0.381326  and   3O  -   0.644997
MO  11:   3O  -   0.756315  and   0C  -   0.286948
MO  10:   3O  -   0.756513  and   0C  -   0.286581
MO   9:   3O  -   0.873814  and   0C  -   0.118810
MO   8:   2O  -   0.671927  and   0C  -   0.360007
MO   7:   2O  -   0.814379  and   0C  -   0.197776
MO   6:   2O  -   0.806445  and   0C  -   0.162031
MO   5:   2O  -   0.671930  and   0C  -   0.360008
MO   4:   1C  -   0.686456  and   0C  -   0.391492
Localized MO's were stored in: /cluster/projects/nn14654k/ylvaos/basis_set_n_funcs/functionals/gga_c_N12/CH3COOH/inp/CH3COOH_gga_c_N12_ccpvtz.loc

-------------------------   --------------------
FINAL SINGLE POINT ENERGY      -202.332803719142
-------------------------   --------------------



           ************************************************************
           *        Program running with 8 parallel MPI-processes     *
           *              working on a common directory               *
           ************************************************************

------------------------------------------------------------------------------
                              ORCA PROPERTY CALCULATIONS
------------------------------------------------------------------------------

GBWName                                 ... /cluster/projects/nn14654k/ylvaos/basis_set_n_funcs/functionals/gga_c_N12/CH3COOH/inp/CH3COOH_gga_c_N12_ccpvtz.gbw
Number of atoms                         ...      8
Number of basis functions               ...    200
Max core memory                         ...   4096 MB

Electric properties:
Dipole moment                           ... YES
Quadrupole moment                       ... YES
Static polarizability (Dipole/Dipole)   ...  NO
Static polarizability (Dipole/Quad.)    ...  NO
Static polarizability (Quad./Quad.)     ...  NO
Static polarizability (Velocity)        ...  NO
Static hyperpolarizability              ...  NO

Atomic electric properties:
Dipole moment                           ...  NO
Quadrupole moment                       ...  NO
Static polarizability                   ...  NO

Choice of electric origin               ... Center of mass
Position of electric origin             ...    -0.065707     0.097461     0.000000

General magnetic properties:
Magnetizability                         ...  NO

EPR properties:
g-Tensor (aka g-matrix)                 ...  NO
Zero-Field splitting spin-orbit         ...  NO
Zero-field splitting spin-spin          ...  NO
Hyperfine couplings                     ...  NO (   0 nuclei)
Quadrupole couplings                    ...  NO (   0 nuclei)
Contact density                         ...  NO (   0 nuclei)

NMR properties:
Chemical shifts                         ...  NO (   0 nuclei)
Spin-rotation constants                 ...  NO (   0 nuclei)
Spin-spin couplings                     ...  NO (   0 nuclei,    0 pairs)

Choice of magnetic origin               ... GIAO
Position of magnetic origin             ...     0.000000     0.000000     0.000000

Properties with geometric perturbations:
SCF Hessian                             ...  NO
IR spectrum                             ...  NO
VCD spectrum                            ...  NO
X-ray spectroscopy properties:
SCF XES/XAS/RIXS spectra                ...  NO

SCF SOC stabilization energy            ...  NO
Diagonal Born-Oppenheimer correction    ...  NO

-------------
DIPOLE MOMENT
-------------

Method             : SCF
Type of density    : Electron Density
Multiplicity       :   1
Irrep              :   0
Energy             :  -202.3328037191423050 Eh
Basis              : AO
                                X                 Y                 Z
Electronic contribution:     -2.329045260       2.804533129       0.000000005
Nuclear contribution   :      2.102617427      -3.118765285       0.000000000
                        -----------------------------------------
Total Dipole Moment    :     -0.226427834      -0.314232156       0.000000005
                        -----------------------------------------
Magnitude (a.u.)       :      0.387313067
Magnitude (Debye)      :      0.984471579



--------------------
Rotational spectrum 
--------------------
 
Rotational constants in cm-1:             0.373252             0.316126             0.176788 
Rotational constants in MHz :         11189.819630          9477.229268          5299.974115 

Dipole components along the rotational axes: 
x,y,z [a.u.] :    -0.031963    -0.385992     0.000000 
x,y,z [Debye]:    -0.081243    -0.981114     0.000000 

 

Dipole moment calculation done in   0.0 sec 

-----------------
QUADRUPOLE MOMENT
-----------------

Method             : SCF
Type of density    : Electron Density
Multiplicity       :   1
Irrep              :   0
Energy             :  -202.3328037191423050 Eh
Basis              : AO

                XX              YY              ZZ              XY              XZ              YZ
  NUC      103.447904006    93.335807526     5.552847104   -15.402641721     0.000000000     0.000000000
  EL      -127.657083930  -120.599989286   -29.567921777    14.397477717    -0.000000004     0.000000025
  TOT      -24.209179924   -27.264181759   -24.015074672    -1.005164004    -0.000000004     0.000000025 (a.u.)
           -32.562174952   -36.671256901   -32.301096750    -1.351979962    -0.000000006     0.000000033 (Buckingham)

diagonalized tensor:
           -27.565235935   -24.015074672   -23.908125749 (a.u.)
           -37.076185063   -32.301096750   -32.157246790 (Buckingham)
            -9.694026587     4.631238353     5.062788233 (traceless form in Buckingham)

            -0.286915034     0.000000102    -0.957956034
            -0.957956034    -0.000000024     0.286915034
             0.000000006     1.000000000     0.000000105
        
Isotropic quadrupole :   -25.162812119

Quadrupole moment calculation done in   0.0 sec (  0.0 sec for integrals)

Maximum memory used throughout the entire PROP-calculation: 7.4 MB

--------------------------------
SUGGESTED CITATIONS FOR THIS RUN
--------------------------------

Below you find a list of papers that are relevant to this ORCA run
We neither can nor want to force you to cite these papers, but we appreciate if you do
You receive ORCA, which is the product of decades of hard work by many enthusiastic individuals, for free
The only thing we kindly ask in return is that you cite our papers,
We deeply appreciate it, if you show your appreciation for ORCA by not just citing the generic ORCA reference.

Please note that relegating all ORCA citations to the supporting information does *not* help us.
SI sections are not indexed - citations you put there will not count into any citation statistics
But we need these citations in order to attract the funding resources that allow us to do what we are doing

Therefore, if you are a happy ORCA user, please consider citing a few of the papers listed below in the main body of your paper

In addition to the list printed below, the program has created the file /cluster/projects/nn14654k/ylvaos/basis_set_n_funcs/functionals/gga_c_N12/CH3COOH/inp/CH3COOH_gga_c_N12_ccpvtz.bibtex that contains the list in bibtex format
You can import this file easily into all common literature databanks and citation aid programs

It goes without saying that in many instances, there are alternative algorithms to achieve similar
results as the ones you have gotten from ORCA. It is, of course, also the case that in some instances
ORCA just re-implements algorithms worked out by others. We are fully aware of that and we are also
fully appreciative of our colleagues work. Hence this citation list should not be read as indicating
that the listed papers, which are focused on our own work, are the only ones worth citing. It simply
meant to make it easier for users to cite ORCA specific papers. It is not a substitute for doing your
own literature research and citing the relevant literature in a scientifically appropriate manner.

List of essential papers. We consider these as the minimum necessary citations

  1. Neese, F.
     Software update: the ORCA program system, version 6.0
     WIRES Comput. Molec. Sci. 2025 15(1), e70019
     doi.org/10.1002/wcms.70019

List of papers to cite with high priority. The work reported in these papers was absolutely
necessary for this run to complete.
Our perspective: the developers of density functionals and basis sets usually get cited in chemistry papers
Good! But without the algorithms to do something with them, the functionals or basis sets would not do anything.
Hence, in our opinion, the algorithm design and method developments papers are equally worthy of getting cited

  1. Lehtola, S.; Steigemann, C.; Oliveira, M.; Marques, M.
     Recent developments in Libxc - A comprehensive library of functionals for density functional theory
     Software X 2018 7 , 
     doi.org/10.1016/j.softx.2017.11.002
  2. Neese, F.
     The SHARK Integral Generation and Digestion System
     J. Comp. Chem. 2022 44(3), 381
     doi.org/10.1002/jcc.26942

List of suggested additional citations. These are papers that are important in the 'surrounding' of 
of this run, or papers that preceded the highly important papers. If you like your results we are grateful for a citation.

  1. Neese, F.
     The ORCA program system
     WIRES Comput. Molec. Sci. 2012 2(1), 73-78
     doi.org/10.1002/wcms.81
  2. Neese, F.
     Software update: the ORCA program system, version 4.0
     WIRES Comput. Molec. Sci. 2018 8(1), 1-6
     doi.org/10.1002/wcms.1327
  3. Neese, F.; Wennmohs, F.; Becker, U.; Riplinger, C.
     The ORCA quantum chemistry program package
     J. Chem. Phys. 2020 152(22), 224108
     doi.org/10.1063/5.0004608
  4. Neese, F.
     Software update: The ORCA program system—Version 5.0
     WIRES Comput. Molec. Sci. 2022 12(1), e1606
     doi.org/10.1002/wcms.1606

List of optional additional citations

  1. Neese, F.
     Approximate second-order SCF convergence for spin unrestricted wavefunctions
     Chem. Phys. Lett. 2000 325(1-3), 93-98
     doi.org/10.1016/s0009-2614(00)00662-x

Timings for individual modules:

Sum of individual times          ...        9.172 sec (=   0.153 min)
Startup calculation              ...        0.766 sec (=   0.013 min)   8.3 %
SCF iterations                   ...        7.914 sec (=   0.132 min)  86.3 %
Property integrals               ...        0.249 sec (=   0.004 min)   2.7 %
Property calculations            ...        0.238 sec (=   0.004 min)   2.6 %
Orbital localization             ...        0.005 sec (=   0.000 min)   0.0 %
                             ****ORCA TERMINATED NORMALLY****
TOTAL RUN TIME: 0 days 0 hours 0 minutes 9 seconds 917 msec
