
                                 *****************
                                 * O   R   C   A *
                                 *****************

                                            #,                                       
                                            ###                                      
                                            ####                                     
                                            #####                                    
                                            ######                                   
                                           ########,                                 
                                     ,,################,,,,,                         
                               ,,#################################,,                 
                          ,,##########################################,,             
                       ,#########################################, ''#####,          
                    ,#############################################,,   '####,        
                  ,##################################################,,,,####,       
                ,###########''''           ''''###############################       
              ,#####''   ,,,,##########,,,,          '''####'''          '####       
            ,##' ,,,,###########################,,,                        '##       
           ' ,,###''''                  '''############,,,                           
         ,,##''                                '''############,,,,        ,,,,,,###''
      ,#''                                            '''#######################'''  
     '                                                          ''''####''''         
             ,#######,   #######,   ,#######,      ##                                
            ,#'     '#,  ##    ##  ,#'     '#,    #''#        ,####,    ,#,          
            ##       ##  ##   ,#'  ##            #'  '#       #'       ,# #          
            ##       ##  #######   ##           ,######,      #####,      #          
            '#,     ,#'  ##    ##  '#,     ,#' ,#      #,     #,   #      #          
             '#######'   ##     ##  '#######'  #'      '#     '####' #    #          



                #########################################################
                #                        -***-                          #
                #          Department of theory and spectroscopy        #
                #                                                       #
                #                      Frank Neese                      #
                #                                                       #
                #     Directorship, Architecture, Infrastructure        #
                #                    SHARK, DRIVERS                     #
                #        Core code/Algorithms in most modules           #
                #                                                       #
                #        Max Planck Institute fuer Kohlenforschung      #
                #                Kaiser Wilhelm Platz 1                 #
                #                 D-45470 Muelheim/Ruhr                 #
                #                      Germany                          #
                #                                                       #
                #                  All rights reserved                  #
                #                        -***-                          #
                #########################################################


                         Program Version 6.1.1  -  RELEASE   -
                                (GIT: $487d211c$)
                          ($2025-11-21 10:33:24 +0100$)


 With contributions from (in alphabetic order):
[Max-Planck-Institut fuer Kohlenforschung]                               
  Daniel Aravena         : Magnetic Suceptibility                        
  Michael Atanasov       : Ab Initio Ligand Field Theory (pilot matlab implementation)
  Alexander A. Auer      : GIAO ZORA, VPT2 properties, NMR spectrum      
  Ute Becker             : All parallelization in ORCA, NUMFREQ, NUMCALC 
  Giovanni Bistoni       : ED, misc. LED, open-shell LED, HFLD           
  Dmytro Bykov           : pre 5.0 version of the SCF Hessian            
  Marcos Casanova-Páez   : Triplet and SCS-CIS(D). UHF-(DLPNO)-IP/EA/STEOM-CCSD. UHF-CVS-IP/STEOM-CCSD   
  Vijay G. Chilkuri      : MRCI spin determinant printing, contributions to CSF-ICE 
  Pauline Colinet        : FMM embedding                                 
  Dipayan Datta          : RHF DLPNO-CCSD density                        
  Achintya Kumar Dutta   : EOM-CC, STEOM-CC                              
  Nicolas Foglia         : Exact transition moments, OPA infrastructure, MCD improvements    
  Dmitry Ganyushin       : Spin-Orbit,Spin-Spin,Magnetic field MRCI      
  Miquel Garcia-Rates    : C-PCM and meta-GGA Hessian, CCSD/C-PCM, Gaussian charge scheme 
  Tiago L. C. Gouveia    : GS-ROHF, GS-ROCIS                             
  Yang Guo               : DLPNO-NEVPT2, F12-NEVPT2, CIM, IAO-localization        
  Andreas Hansen         : Spin unrestricted coupled pair/coupled cluster methods 
  Ingolf Harden          : AUTO-CI MPn and infrastructure                
  Benjamin Helmich-Paris : MC-RPA, TRAH-(SCF,CASSCF), AVAS, COSX integrals, SCF dyn. polar., MC-PDFT, srDFT 
  Lee Huntington         : MR-EOM, pCC                                   
  Robert Izsak           : Overlap fitted RIJCOSX, COSX-SCS-MP3, EOM     
  Riya Kayal             : Wick's Theorem for AUTO-CI, AUTO-CI UHF-CCSDT 
  Emily Kempfer          : AUTO-CI RHF CISDT and CCSDT, approximate NEVPT4
  Christian Kollmar      : KDIIS, OOCD, Brueckner-CCSD(T), CCSD density, CASPT2, CASPT2-K, improved NEVPT2 
  Axel Koslowski         : Symmetry handling                             
  Simone Kossmann        : meta-GGA functionals, TD-DFT gradient, OOMP2, (MP2 Hessian; deprecated post 5.0) 
  Lucas Lang             : DCDCAS, Hyperfine gauge corrections, ICE-SOC+SSC
  Marvin Lechner         : AUTO-CI (C++ implementation), FIC-MRCC        
  Spencer Leger          : CASSCF response                               
  Dagmar Lenk            : GEPOL surface, SMD, ORCA-2-JSON               
  Dimitrios Liakos       : Extrapolation schemes; Compound Job, Property file
  Dimitrios Manganas     : Further ROCIS development; embedding schemes. LFT, Crystal Embedding 
  Dimitrios Pantazis     : SARC Basis sets                               
  Anastasios Papadopoulos: AUTO-CI, single reference methods and gradients 
  Taras Petrenko         : pre 6.0 DFT Hessian and TD-DFT gradient,  ECA, NRVS 
  Petra Pikulova         : Analytic Raman intensities                    
  Peter Pinski           : DLPNO-MP2, DLPNO-MP2 Gradient                 
  Shashank Vittal Rao    : ES-AILFT, MagRelax                            
  Christoph Reimann      : Effective Core Potentials                     
  Marius Retegan         : Local ZFS, SOC                                
  Christoph Riplinger    : Optimizer, TS searches, QM/MM, DLPNO-CCSD(T), (RO)-DLPNO pert. Triples 
  Michael Roemelt        : Original ROCIS implementation, recursive CI coupling coefficients
  Masaaki Saitow         : Open-shell DLPNO-CCSD energy and density      
  Barbara Sandhoefer     : DKH picture change effects                    
  Yorick L. A. Schmerwitz: GMF and freeze-and-release deltaSCF, NEB S-IDPP initial path                    
  Kantharuban Sivalingam : CASSCF convergence/infrastructure, NEVPT2, NEVPT3, NEVPT4(SD), FIC-MRCI and CEPA variants
  Bernardo de Souza      : ESD, SOC TD-DFT                               
  Georgi L. Stoychev     : AutoAux, RI-MP2 NMR, DLPNO-MP2 response, X2C  
  Van Anh Tran           : RI-MP2 g-tensors                              
  Willem Van den Heuvel  : Paramagnetic NMR                              
  Zikuan Wang            : NOTCH, Electric field optimization            
  Frank Wennmohs         : Technical directorship and infrastructure     
  Hang Xu                : AUTO-CI-Response properties                   
                                                                         
[FACCTs GmbH]                                                            
  Markus Bursch, Nicolas Foglia, Miquel Garcia-Rates, Ingolf Harden, Hagen Neugebauer, Anastasios Papadopoulos, 
  Christoph Riplinger, Bernardo de Souza, Georgi L. Stoychev                                                    
                                                                 
  APM, various basis sets, CI-OPT, improved COSX, DLPNO-Multilevel,           
  DOCKER, DRACO, updates on ESD, Fragmentator, GOAT, IRC, LR-CPCM, L-BFGS, MBIS, meta-GGA TD-DFT gradient, ML-optimized integration grids, 
  MM, NACMEs, nearIR, NEB, NEB-TS, NL-DFT gradient (VV10), 2- and 3-layer-ONIOM, interface openCOSMO-RS, QMMM,   
  Crystal-QMMM, RESP, rigid body optimization, SF, symmetry and pop. for TD-DFT, various functionals, SOLVATOR                                   
                                                                         
[Other institutions]                                                     
  V. Asgeirsson          : NEB                                           
  Christoph Bannwarth    : sTDA-DFT, sTD-DFT, PBEh-3c, B97-3c, D3        
  Giovanni Bistoni       : ETS/NOCV, ADLD/ADEX, COVALED                  
  Martin Brehm           : Molecular dynamics                            
  Ronald Cardenas        : ETS/NOCV                                      
  Martina Colucci        : COVALED                                       
  Sebastian Ehlert       : rSCAN, r2SCAN, r2SCAN-3c, D4, dhf basis sets  
  Marvin Friede          : D4 for Fr, Ra, Ac-Lr                          
  Lars Goerigk           : TD-DFT with DH, B97 family of functionals     
  Stefan Grimme          : VdW corrections, initial TS optimization, DFT functionals, gCP, sTDA/sTD-DF 
  Waldemar Hujo          : DFT-NL                                        
  H. Jonsson             : NEB                                           
  Holger Kruse           : gCP                                           
  Marcel Mueller         : wB97X-3c, vDZP basis set                      
  Hagen Neugebauer       : wr2SCAN, Native XTB                           
  Gianluca Regni         : ADLD/ADEX                                     
  Tobias Risthaus        : pre 6.0 range-separated hybrid DFT and stability analysis
  Lukas Wittmann         : regularized MP2, r2SCAN double-hybrids, wr2SCAN        
                                                                         
We gratefully acknowledge several colleagues who have allowed us to      
interface, adapt or use parts of their codes:                            
  Ed Valeev, F. Pavosevic, A. Kumar             : LibInt (2-el integral package), F12 methods 
  Garnet Chan, S. Sharma, J. Yang, R. Olivares  : DMRG                   
  Ulf Ekstrom                                   : XCFun DFT Library      
  Mihaly Kallay                                 : mrcc  (arbitrary order and MRCC methods)
  Frank Weinhold                                : gennbo (NPA and NBO analysis)           
  Simon Mueller                                 : openCOSMO-RS                            
  Christopher J. Cramer and Donald G. Truhlar   : smd solvation model                     
  S Lehtola, MJT Oliveira, MAL Marques          : LibXC Library                           
  Liviu Ungur et al                             : ANISO software                          


 Your calculation uses the libint2 library for the computation of 2-el integrals
 For citations please refer to: http://libint.valeyev.net

 Your ORCA version has been built with support for libXC version: 7.0.0
 For citations please refer to: https://libxc.gitlab.io

 This ORCA versions uses:
   CBLAS   interface :  Fast vector & matrix operations
   LAPACKE interface :  Fast linear algebra routines
   SCALAPACK package :  Parallel linear algebra routines
   Shared memory     :  Shared parallel matrices
   BLAS/LAPACK       :  OpenBLAS 0.3.29  USE64BITINT DYNAMIC_ARCH NO_AFFINITY Cooperlake SINGLE_THREADED
        Core in use  :  Cooperlake
   Copyright (c) 2011-2014, The OpenBLAS Project


  ***********************************
  * Starting time: Wed May 20 12:33:45 2026
  * Host name:     c1-48
  * Process ID:    1329262
  * Working dir.:  /cluster/projects/nn14654k/ylvaos/basis_set_n_funcs/functionals/pbe/CH3COOH/out
  ***********************************

================================================================================

----- Orbital basis set information -----
Your calculation utilizes the basis: cc-pVDZ 
       H, B-Ne : Obtained from the ccRepo (grant-hill.group.shef.ac.uk/ccrepo) Feb. 2017
                 T. H. Dunning, Jr., J. Chem. Phys. 90, 1007 (1989)
            He : Obtained from the ccRepo (grant-hill.group.shef.ac.uk/ccrepo) Feb. 2017
                 D. E. Woon, T. H. Dunning, Jr., J. Chem. Phys. 100, 2975 (1994)
  Li-Be, Na-Mg : Obtained from the ccRepo (grant-hill.group.shef.ac.uk/ccrepo) Feb. 2017
                 B. P. Prascher, D. E. Woon, K. A. Peterson, T. H. Dunning, Jr., A. K. Wilson, Theor. Chem. Acc. 128, 69 (2011)
         Al-Ar : Obtained from the ccRepo (grant-hill.group.shef.ac.uk/ccrepo) Feb. 2017
                 D. E. Woon, T. H. Dunning, Jr., J. Chem. Phys. 98, 1358 (1993)
            Ca : Obtained from the Peterson Research Group Website (tyr0.chem.wsu.edu/~kipeters) Feb. 2017
                 J. Koput, K. A. Peterson, J. Phys. Chem. 106, 9595 (2002)
         Sc-Zn : Obtained from the ccRepo (grant-hill.group.shef.ac.uk/ccrepo) Feb. 2017
                 N. B. Balabanov, K. A. Peterson, J. Chem. Phys. 123, 064107 (2005)
                 N. B. Balabanov, K. A. Peterson, J. Chem. Phys. 125, 074110 (2006)
         Ga-Kr : Obtained from the ccRepo (grant-hill.group.shef.ac.uk/ccrepo) Feb. 2017
                 A. K. Wilson, D. E. Woon, K. A. Peterson, T. H. Dunning, Jr., J. Chem. Phys. 110, 7667 (1999)

================================================================================
                                        WARNINGS
                       Please study these warnings very carefully!
================================================================================


================================================================================
                                       INPUT FILE
================================================================================
NAME = /cluster/projects/nn14654k/ylvaos/basis_set_n_funcs/functionals/pbe/CH3COOH/inp/CH3COOH_pbe_ccpvdz.inp
|  1> ! dft cc-pVDZ TightSCF
|  2> %pal nprocs 8 end
|  3> 
|  4> %loc
|  5>   LocMet NewBoys
|  6>   Occ true
|  7> end
|  8> 
|  9> %method
| 10>   
| 11>   functional pbe
| 12> end
| 13> 
| 14> %elprop
| 15>   Dipole true
| 16>   Quadrupole true
| 17> end
| 18> 
| 19> * xyz 0 1
| 20> C    0.000000000000   0.154560000000   0.000000000000
| 21> C    1.073776000000  -0.892748000000   0.000000000000
| 22> O    0.166384000000   1.360084000000   0.000000000000
| 23> O   -1.236449000000  -0.415036000000   0.000000000000
| 24> H   -1.867646000000   0.333582000000   0.000000000000
| 25> H    2.048189000000  -0.408135000000   0.000000000000
| 26> H    0.968661000000  -1.528353000000   0.881747000000
| 27> H    0.968661000000  -1.528353000000  -0.881747000000
| 28> *
| 29> 
| 30> 
| 31>                          ****END OF INPUT****
================================================================================

                       ****************************
                       * Single Point Calculation *
                       ****************************

---------------------------------
CARTESIAN COORDINATES (ANGSTROEM)
---------------------------------
  C      0.000000    0.154560    0.000000
  C      1.073776   -0.892748    0.000000
  O      0.166384    1.360084    0.000000
  O     -1.236449   -0.415036    0.000000
  H     -1.867646    0.333582    0.000000
  H      2.048189   -0.408135    0.000000
  H      0.968661   -1.528353    0.881747
  H      0.968661   -1.528353   -0.881747

----------------------------
CARTESIAN COORDINATES (A.U.)
----------------------------
  NO LB      ZA    FRAG     MASS         X           Y           Z
   0 C     6.0000    0    12.011    0.000000    0.292076    0.000000
   1 C     6.0000    0    12.011    2.029143   -1.687049    0.000000
   2 O     8.0000    0    15.999    0.314420    2.570186    0.000000
   3 O     8.0000    0    15.999   -2.336550   -0.784304    0.000000
   4 H     1.0000    0     1.008   -3.529339    0.630379    0.000000
   5 H     1.0000    0     1.008    3.870516   -0.771263    0.000000
   6 H     1.0000    0     1.008    1.830504   -2.888169    1.666260
   7 H     1.0000    0     1.008    1.830504   -2.888169   -1.666260

--------------------------------
INTERNAL COORDINATES (ANGSTROEM)
--------------------------------
 C      0   0   0     0.000000000000     0.00000000     0.00000000
 C      1   0   0     1.499949647502     0.00000000     0.00000000
 O      1   2   0     1.216951827326   126.42686784     0.00000000
 O      1   2   3     1.361339683113   110.98078396   180.00000000
 H      4   1   2     0.979203024267   105.40175469   180.00000085
 H      2   1   3     1.088269476893   109.27200725     0.00000000
 H      2   1   3     1.092025938913   109.72406365   120.93315147
 H      2   1   3     1.092025938913   109.72406365   239.06684853

---------------------------
INTERNAL COORDINATES (A.U.)
---------------------------
 C      0   0   0     0.000000000000     0.00000000     0.00000000
 C      1   0   0     2.834494048450     0.00000000     0.00000000
 O      1   2   0     2.299705671821   126.42686784     0.00000000
 O      1   2   3     2.572559176322   110.98078396   180.00000000
 H      4   1   2     1.850425545371   105.40175469   180.00000085
 H      2   1   3     2.056531271234   109.27200725     0.00000000
 H      2   1   3     2.063629955684   109.72406365   120.93315147
 H      2   1   3     2.063629955684   109.72406365   239.06684853

---------------------
BASIS SET INFORMATION
---------------------
There are 3 groups of distinct atoms

 Group   1 Type C   : 17s4p1d contracted to 3s2p1d pattern {881/31/1}
 Group   2 Type O   : 17s4p1d contracted to 3s2p1d pattern {881/31/1}
 Group   3 Type H   : 4s1p contracted to 2s1p pattern {31/1}

Atom   0C    basis set group =>   1
Atom   1C    basis set group =>   1
Atom   2O    basis set group =>   2
Atom   3O    basis set group =>   2
Atom   4H    basis set group =>   3
Atom   5H    basis set group =>   3
Atom   6H    basis set group =>   3
Atom   7H    basis set group =>   3


           ************************************************************
           *        Program running with 8 parallel MPI-processes     *
           *              working on a common directory               *
           ************************************************************
------------------------------------------------------------------------------
                             ORCA STARTUP CALCULATIONS
------------------------------------------------------------------------------
------------------------------------------------------------------------------
                   ___                                                        
                  /   \      - P O W E R E D   B Y -                         
                 /     \                                                     
                 |  |  |   _    _      __       _____    __    __             
                 |  |  |  | |  | |    /  \     |  _  \  |  |  /  |          
                  \  \/   | |  | |   /    \    | | | |  |  | /  /          
                 / \  \   | |__| |  /  /\  \   | |_| |  |  |/  /          
                |  |  |   |  __  | /  /__\  \  |    /   |      \           
                |  |  |   | |  | | |   __   |  |    \   |  |\   \          
                \     /   | |  | | |  |  |  |  | |\  \  |  | \   \       
                 \___/    |_|  |_| |__|  |__|  |_| \__\ |__|  \__/        
                                                                              
                      - O R C A' S   B I G   F R I E N D -                    
                                      &                                       
                       - I N T E G R A L  F E E D E R -                       
                                                                              
 v1 FN, 2020, v2 2021, v3 2022-2024                                           
------------------------------------------------------------------------------


----------------------
SHARK INTEGRAL PACKAGE
----------------------

Number of atoms                             ...      8
Number of basis functions                   ...    100
Number of shells                            ...     60
Maximum angular momentum                    ...      2
Integral batch strategy                     ... SHARK/LIBINT Hybrid
RI-J (if used) integral strategy            ... SPLIT-RIJ (Revised 2003 algorithm where possible)
Printlevel                                  ...      1
Contraction scheme used                     ... PARTIAL GENERAL contraction
Prescreening option                         ... SCHWARTZ
   Thresh                                   ... 2.500e-11
   Tcut                                     ... 2.500e-12
   Tpresel                                  ... 2.500e-12 
Coulomb Range Separation                    ... NOT USED
Exchange Range Separation                   ... NOT USED
Multipole approximations                    ... NOT USED
Finite Nucleus Model                        ... NOT USED
CABS basis                                  ... NOT available
Auxiliary Coulomb fitting basis             ... NOT available
Auxiliary J/K fitting basis                 ... NOT available
Auxiliary Correlation fitting basis         ... NOT available
Auxiliary 'external' fitting basis          ... NOT available

Checking pre-screening integrals            ... done (  0.0 sec) Dimension = 60
Save PGC pre-screening integrals            ... done (  0.0 sec) Dimension = 60
Calculate PGC overlap integrals             ... done (  0.0 sec) Dimension = 36
Calculating pre-screening integrals (ORCA)  ... done (  0.0 sec) Dimension = 36
Shell pair information
Shell pair cut-off parameter TPreSel        ...   2.5e-12
Total number of shell pairs                 ...      1830
Shell pairs after pre-screening             ...      1562
Total number of primitive shell pairs       ...      2950
Primitive shell pairs kept                  ...      2321
          la=0 lb=0:    730 shell pairs
          la=1 lb=0:    520 shell pairs
          la=1 lb=1:     78 shell pairs
          la=2 lb=0:    176 shell pairs
          la=2 lb=1:     48 shell pairs
          la=2 lb=2:     10 shell pairs

Checking whether 4 symmetric matrices of dimension 100 fit in memory
:Max Core in MB      =   4096.00
 MB in use           =      2.91
 MB left             =   4093.09
 MB needed           =      0.15
 Data fit in memory  = YES
Calculating Nuclear repulsion               ... done (  0.0 sec) ENN=    120.693288504615 Eh

Diagonalization of the overlap matrix:
Smallest eigenvalue                        ... 4.946e-03
Time for diagonalization                   ...    0.001 sec
Threshold for overlap eigenvalues          ... 1.000e-07
Number of eigenvalues below threshold      ... 0
Time for construction of square roots      ...    0.001 sec
Total time needed                          ...    0.004 sec

-------------------
DFT GRID GENERATION
-------------------

General Integration Accuracy     IntAcc      ... 4.388
Radial Grid Type                 RadialGrid  ... OptM3 with GC (2021)
Angular Grid (max. ang.)         AngularGrid ... 4 (Lebedev-302)
Angular grid pruning method      GridPruning ... 4 (adaptive)
Weight generation scheme         WeightScheme... mBecke (2022)
Basis function cutoff            BFCut       ... 1.0000e-11
Integration weight cutoff        WCut        ... 1.0000e-14
Partially contracted basis set               ... off
Rotationally invariant grid construction     ... off
Angular grids for H and He will be reduced by one unit

Total number of grid points                  ...    37392
Total number of batches                      ...      588
Average number of points per batch           ...       63
Average number of grid points per atom       ...     4674

---------------------
SHARK GRID GENERATION
---------------------

General Integration Accuracy     IntAcc      ... 4.388
Radial Grid Type                 RadialGrid  ... OptM3 with GC (2021)
Angular Grid (max. ang.)         AngularGrid ... 4 (Lebedev-302)
Angular grid pruning method      GridPruning ... 4 (adaptive)
Weight generation scheme         WeightScheme... mBecke (2022)
Basis function cutoff            BFCut       ... 1.0000e-11
Integration weight cutoff        WCut        ... 1.0000e-14
Partially contracted basis set               ... off
Rotationally invariant grid construction     ... off
Angular grids for H and He will be reduced by one unit
Steep s-basis detected: some atoms will have their radial
                        grid points doubled.

Total number of grid points                  ...    62114
Total number of batches                      ...      975
Average number of points per batch           ...       63
Average number of grid points per atom       ...     7764
Grids setup in   0.4 sec
Initializing property integral containers    ... done (  0.0 sec)

SHARK setup successfully completed in   0.5 seconds

Maximum memory used throughout the entire STARTUP-calculation: 15.7 MB


           ************************************************************
           *        Program running with 8 parallel MPI-processes     *
           *              working on a common directory               *
           ************************************************************
-------------------------------------------------------------------------------
                                 ORCA GUESS
                   Start orbitals & Density for SCF / CASSCF
-------------------------------------------------------------------------------

------------
SCF SETTINGS
------------
Hamiltonian:
 Density Functional     Method          .... DFT(GTOs)
 Exchange Functional    Exchange        .... PBE
   PBE kappa parameter   XKappa         ....  0.804000
   PBE mue parameter    XMuePBE         ....  0.219520
 Correlation Functional Correlation     .... PBE
   PBE beta parameter  CBetaPBE         ....  0.066725
 LDA part of GGA corr.  LDAOpt          .... PW91-LDA
 Gradients option       PostSCFGGA      .... off
   NL short-range parameter             ....  6.400000


General Settings:
 Integral files         IntName         .... /cluster/projects/nn14654k/ylvaos/basis_set_n_funcs/functionals/pbe/CH3COOH/inp/CH3COOH_pbe_ccpvdz
 Hartree-Fock type      HFTyp           .... RHF
 Total Charge           Charge          ....    0
 Multiplicity           Mult            ....    1
 Number of Electrons    NEL             ....   32
 Basis Dimension        Dim             ....   76
 Nuclear Repulsion      ENuc            ....    120.6932885046 Eh

Convergence Acceleration:
 AO-DIIS                CNVDIIS         .... on
   Start iteration      DIISMaxIt       ....    12
   Startup error        DIISStart       ....  0.200000
   # of expansion vecs  DIISMaxEq       ....     5
   Bias factor          DIISBfac        ....   1.050
   Max. coefficient     DIISMaxC        ....  10.000
 MO-DIIS                CNVKDIIS        .... off
 Trust-Rad. Augm. Hess. CNVTRAH         .... auto
   Auto Start mean grad. ratio tolernc. ....  1.125000
   Auto Start start iteration           ....    50
   Auto Start num. interpolation iter.  ....    10
   Max. Number of Micro iterations      ....    24
   Max. Number of Macro iterations      .... Maxiter - #DIIS iter
   Number of Davidson start vectors     ....     2
   Converg. threshold    (grad. norm)   ....   1.000e-05
   Grad. Scal. Fac. for Micro threshold ....   0.100
   Minimum threshold for Micro iter.    ....   1.000e-02
   NR start threshold (gradient norm)   ....   1.000e-04
   Initial trust radius                 ....   0.400
   Minimum AH scaling param. (alpha)    ....   1.000
   Maximum AH scaling param. (alpha)    .... 1000.000
   Quad. conv. algorithm                .... NR
   White noise on init. David. guess    .... on
   Maximum white noise                  ....   0.010
   Pseudo random numbers                .... off
   Inactive MOs                         .... canonical
   Orbital update algorithm             .... Taylor
   Preconditioner                       .... Diag
   Full preconditioner red. dimension   ....   250
 SOSCF                 CNVSOSCF           .... on
   Start iteration     SOSCFMaxIt         ....   150
   Startup grad/error  SOSCFStart         ....  0.003300
   Hessian update      SOSCFHessUp        .... L-BFGS
   Autom. constraints  SOSCFAutoConstrain .... off
 Level Shifting         CNVShift        .... on
   Level shift para.    LevelShift      ....    0.2500
   Turn off err/grad.   ShiftErr        ....    0.0010
 Zerner damping         CNVZerner       .... off
 Static damping         CNVDamp         .... on
   Fraction old density DampFac         ....    0.7000
   Max. Damping (<1)    DampMax         ....    0.9800
   Min. Damping (>=0)   DampMin         ....    0.0000
   Turn off err/grad.   DampErr         ....    0.1000

SCF Procedure:
 Maximum # iterations   MaxIter         ....   125
 SCF integral mode      SCFMode         .... Direct
   Integral package                     .... SHARK and LIBINT hybrid scheme
 Reset frequency        DirectResetFreq ....    20
 Integral Threshold     Thresh          ....  2.500e-11 Eh
 Primitive CutOff       TCut            ....  2.500e-12 Eh

Convergence Tolerance:
 Convergence Check Mode ConvCheckMode   .... Total+1el-Energy
 Convergence forced     ConvForced      .... 0
 Energy Change          TolE            ....  1.000e-08 Eh
 1-El. energy change                    ....  1.000e-05 Eh
 Orbital Gradient       TolG            ....  1.000e-05
 Orbital Rotation angle TolX            ....  1.000e-05
 DIIS Error             TolErr          ....  5.000e-07

------------------------------
INITIAL GUESS: MODEL POTENTIAL
------------------------------
Loading Hartree-Fock densities                     ... done
Calculating cut-offs                               ... done
Initializing the effective Hamiltonian             ... done
Setting up the integral package (SHARK)            ... done
Starting the Coulomb interaction                   ... done (   0.0 sec)
Making the grid                                    ... done (   0.0 sec)
Mapping shells                                     ... done
Starting the XC term evaluation                    ... done (   0.0 sec)
  promolecular density results
     # of electrons  =     31.997224895
     EX              =    -27.693456188
     EC              =     -1.055035606
     EX+EC           =    -28.748491794
Transforming the Hamiltonian                       ... done (   0.0 sec)
Diagonalizing the Hamiltonian                      ... done (   0.0 sec)
Back transforming the eigenvectors                 ... done (   0.0 sec)
Now organizing SCF variables                       ... done
                      ------------------
                      INITIAL GUESS DONE (   0.1 sec)
                      ------------------
             **** ENERGY FILE WAS UPDATED (/cluster/projects/nn14654k/ylvaos/basis_set_n_funcs/functionals/pbe/CH3COOH/inp/CH3COOH_pbe_ccpvdz.en.tmp) ****
Finished Guess after   0.1 sec
Maximum memory used throughout the entire GUESS-calculation: 5.2 MB


           ************************************************************
           *        Program running with 8 parallel MPI-processes     *
           *              working on a common directory               *
           ************************************************************

-------------------------------------------------------------------------------------------
                                      ORCA LEAN-SCF
                              memory conserving SCF solver
-------------------------------------------------------------------------------------------

----------------------------------------D-I-I-S--------------------------------------------
Iteration    Energy (Eh)           Delta-E    RMSDP     MaxDP     DIISErr   Damp  Time(sec)
-------------------------------------------------------------------------------------------
               ***  Starting incremental Fock matrix formation  ***
    1    -228.6790469200316238     0.00e+00  1.72e-02  1.08e-01  2.57e-01  0.700   0.1
    2    -228.7630341289449802    -8.40e-02  1.00e-02  5.69e-02  7.95e-02  0.700   0.1
                               ***Turning on AO-DIIS***
    3    -228.7861050642850387    -2.31e-02  3.52e-03  1.41e-02  2.88e-02  0.700   0.1
    4    -228.8024842860475587    -1.64e-02  4.72e-03  1.86e-02  2.07e-02  0.000   0.1
    5    -228.8409623633864385    -3.85e-02  1.68e-03  6.14e-03  1.19e-02  0.000   0.1
                              *** Initializing SOSCF ***
---------------------------------------S-O-S-C-F--------------------------------------
Iteration    Energy (Eh)           Delta-E    RMSDP     MaxDP     MaxGrad    Time(sec)
--------------------------------------------------------------------------------------
    6    -228.8414284427623784    -4.66e-04  6.14e-04  2.36e-03  3.21e-03     0.1
               *** Restarting incremental Fock matrix formation ***
    7    -228.8414632661460359    -3.48e-05  5.89e-04  2.54e-03  6.31e-04     0.1
    8    -228.8414465454175684     1.67e-05  3.45e-04  2.15e-03  1.96e-03     0.1
    9    -228.8414687671087222    -2.22e-05  2.53e-04  1.29e-03  3.60e-04     0.3
   10    -228.8414648758858334     3.89e-06  1.57e-04  9.34e-04  6.68e-04     0.1
   11    -228.8414702000373495    -5.32e-06  6.04e-05  2.88e-04  1.05e-04     0.1
   12    -228.8414700596616740     1.40e-07  3.66e-05  1.68e-04  1.55e-04     0.1
   13    -228.8414702901227997    -2.30e-07  3.79e-06  1.81e-05  4.31e-06     0.1
   14    -228.8414702898717223     2.51e-10  2.13e-06  9.60e-06  5.72e-06     0.1
                 **** Energy Check signals convergence ****

               *****************************************************
               *                     SUCCESS                       *
               *           SCF CONVERGED AFTER  14 CYCLES          *
               *****************************************************

             **** ENERGY FILE WAS UPDATED (/cluster/projects/nn14654k/ylvaos/basis_set_n_funcs/functionals/pbe/CH3COOH/inp/CH3COOH_pbe_ccpvdz.en.tmp) ****

----------------
TOTAL SCF ENERGY
----------------

Total Energy       :       -228.84147029063098 Eh           -6227.09299 eV

Components:
Nuclear Repulsion  :        120.69328850461517 Eh            3284.23135 eV
Electronic Energy  :       -349.53475879524615 Eh           -9511.32433 eV
One Electron Energy:       -551.32089425419611 Eh          -15002.20423 eV
Two Electron Energy:        201.78613545894996 Eh            5490.87990 eV

Virial components:
Potential Energy   :       -456.42328939720880 Eh          -12419.90912 eV
Kinetic Energy     :        227.58181910657785 Eh            6192.81613 eV
Virial Ratio       :          2.00553493767208

DFT components:
N(Alpha)           :       15.999989177331 electrons
N(Beta)            :       15.999989177331 electrons
N(Total)           :       31.999978354662 electrons
E(X)               :      -28.189933725023 Eh       
E(C)               :       -1.072828848691 Eh       
E(XC)              :      -29.262762573714 Eh       

---------------
SCF CONVERGENCE
---------------

  Last Energy change         ...   -2.5108e-10  Tolerance :   1.0000e-08
  Last MAX-Density change    ...    9.6021e-06  Tolerance :   1.0000e-07
  Last RMS-Density change    ...    2.1311e-06  Tolerance :   5.0000e-09
  Last DIIS Error            ...    3.2086e-03  Tolerance :   5.0000e-07
  Last Orbital Gradient      ...    5.7152e-06  Tolerance :   1.0000e-05
  Last Orbital Rotation      ...    4.8103e-06  Tolerance :   1.0000e-05


----------------
ORBITAL ENERGIES
----------------

  NO   OCC          E(Eh)            E(eV) 
   0   2.0000     -18.805612      -511.7267 
   1   2.0000     -18.748230      -510.1653 
   2   2.0000     -10.015784      -272.5433 
   3   2.0000      -9.906924      -269.5811 
   4   2.0000      -1.007227       -27.4080 
   5   2.0000      -0.919723       -25.0269 
   6   2.0000      -0.687271       -18.7016 
   7   2.0000      -0.546203       -14.8629 
   8   2.0000      -0.430036       -11.7019 
   9   2.0000      -0.414862       -11.2890 
  10   2.0000      -0.413651       -11.2560 
  11   2.0000      -0.361119        -9.8266 
  12   2.0000      -0.340418        -9.2633 
  13   2.0000      -0.336377        -9.1533 
  14   2.0000      -0.269081        -7.3221 
  15   2.0000      -0.220770        -6.0074 
  16   0.0000      -0.023885        -0.6499 
  17   0.0000       0.031188         0.8487 
  18   0.0000       0.062563         1.7024 
  19   0.0000       0.105625         2.8742 
  20   0.0000       0.114556         3.1172 
  21   0.0000       0.172012         4.6807 
  22   0.0000       0.240560         6.5460 
  23   0.0000       0.271987         7.4011 
  24   0.0000       0.402705        10.9582 
  25   0.0000       0.422804        11.5051 
  26   0.0000       0.462081        12.5739 
*Only the first 10 virtual orbitals were printed.

                    ********************************
                    * MULLIKEN POPULATION ANALYSIS *
                    ********************************

-----------------------
MULLIKEN ATOMIC CHARGES
-----------------------
   0 C :    0.051131
   1 C :   -0.012520
   2 O :   -0.214818
   3 O :   -0.146655
   4 H :    0.144272
   5 H :    0.051952
   6 H :    0.063319
   7 H :    0.063319
Sum of atomic charges:   -0.0000000

--------------------------------
MULLIKEN REDUCED ORBITAL CHARGES
--------------------------------
  0 C s       :     3.085467  s :     3.085467
      pz      :     0.846228  p :     2.637597
      px      :     0.867690
      py      :     0.923679
      dz2     :     0.009821  d :     0.225805
      dxz     :     0.024089
      dyz     :     0.041905
      dx2y2   :     0.060065
      dxy     :     0.089925

  1 C s       :     3.014545  s :     3.014545
      pz      :     1.008306  p :     2.964039
      px      :     0.976436
      py      :     0.979297
      dz2     :     0.005684  d :     0.033936
      dxz     :     0.002900
      dyz     :     0.008843
      dx2y2   :     0.005819
      dxy     :     0.010691

  2 O s       :     3.742480  s :     3.742480
      pz      :     1.371550  p :     4.454718
      px      :     1.735289
      py      :     1.347879
      dz2     :     0.002025  d :     0.017619
      dxz     :     0.000137
      dyz     :     0.005197
      dx2y2   :     0.006130
      dxy     :     0.004131

  3 O s       :     3.702657  s :     3.702657
      pz      :     1.739626  p :     4.430794
      px      :     1.183736
      py      :     1.507432
      dz2     :     0.001981  d :     0.013204
      dxz     :     0.001270
      dyz     :     0.001500
      dx2y2   :     0.002404
      dxy     :     0.006050

  4 H s       :     0.779022  s :     0.779022
      pz      :     0.018841  p :     0.076705
      px      :     0.026101
      py      :     0.031763

  5 H s       :     0.918783  s :     0.918783
      pz      :     0.006524  p :     0.029265
      px      :     0.014719
      py      :     0.008023

  6 H s       :     0.906090  s :     0.906090
      pz      :     0.013866  p :     0.030590
      px      :     0.006304
      py      :     0.010420

  7 H s       :     0.906090  s :     0.906090
      pz      :     0.013866  p :     0.030590
      px      :     0.006304
      py      :     0.010420



                     *******************************
                     * LOEWDIN POPULATION ANALYSIS *
                     *******************************

----------------------
LOEWDIN ATOMIC CHARGES
----------------------
   0 C :   -0.174139
   1 C :   -0.084005
   2 O :   -0.032284
   3 O :    0.085178
   4 H :    0.057875
   5 H :    0.044591
   6 H :    0.051392
   7 H :    0.051392

-------------------------------
LOEWDIN REDUCED ORBITAL CHARGES
-------------------------------
  0 C s       :     2.846875  s :     2.846875
      pz      :     0.819339  p :     2.789701
      px      :     0.928466
      py      :     1.041896
      dz2     :     0.031171  d :     0.537564
      dxz     :     0.053439
      dyz     :     0.086402
      dx2y2   :     0.142000
      dxy     :     0.224551

  1 C s       :     2.806582  s :     2.806582
      pz      :     1.062289  p :     3.148341
      px      :     1.042699
      py      :     1.043353
      dz2     :     0.025136  d :     0.129081
      dxz     :     0.006673
      dyz     :     0.036252
      dx2y2   :     0.021130
      dxy     :     0.039890

  2 O s       :     3.500708  s :     3.500708
      pz      :     1.350761  p :     4.500517
      px      :     1.689947
      py      :     1.459809
      dz2     :     0.004486  d :     0.031059
      dxz     :     0.000164
      dyz     :     0.006309
      dx2y2   :     0.013082
      dxy     :     0.007018

  3 O s       :     3.396405  s :     3.396405
      pz      :     1.681941  p :     4.491450
      px      :     1.256015
      py      :     1.553494
      dz2     :     0.004452  d :     0.026967
      dxz     :     0.002283
      dyz     :     0.001076
      dx2y2   :     0.005232
      dxy     :     0.013923

  4 H s       :     0.750123  s :     0.750123
      pz      :     0.049263  p :     0.192002
      px      :     0.059186
      py      :     0.083553

  5 H s       :     0.874076  s :     0.874076
      pz      :     0.016681  p :     0.081333
      px      :     0.042129
      py      :     0.022523

  6 H s       :     0.866315  s :     0.866315
      pz      :     0.036860  p :     0.082293
      px      :     0.017242
      py      :     0.028190

  7 H s       :     0.866315  s :     0.866315
      pz      :     0.036860  p :     0.082293
      px      :     0.017242
      py      :     0.028190



                      *****************************
                      * MAYER POPULATION ANALYSIS *
                      *****************************

  NA   - Mulliken gross atomic population
  ZA   - Total nuclear charge
  QA   - Mulliken gross atomic charge
  VA   - Mayer's total valence
  BVA  - Mayer's bonded valence
  FA   - Mayer's free valence

  ATOM       NA         ZA         QA         VA         BVA        FA
  0 C      5.9489     6.0000     0.0511     4.5280     4.5280    -0.0000
  1 C      6.0125     6.0000    -0.0125     3.9136     3.9136     0.0000
  2 O      8.2148     8.0000    -0.2148     2.3695     2.3695     0.0000
  3 O      8.1467     8.0000    -0.1467     2.3450     2.3450    -0.0000
  4 H      0.8557     1.0000     0.1443     1.0708     1.0708    -0.0000
  5 H      0.9480     1.0000     0.0520     0.9950     0.9950    -0.0000
  6 H      0.9367     1.0000     0.0633     0.9864     0.9864    -0.0000
  7 H      0.9367     1.0000     0.0633     0.9864     0.9864    -0.0000

  Mayer bond orders larger than 0.100000
B(  0-C ,  1-C ) :   1.0392 B(  0-C ,  2-O ) :   2.1558 B(  0-C ,  3-O ) :   1.2507 
B(  1-C ,  5-H ) :   0.9604 B(  1-C ,  6-H ) :   0.9456 B(  1-C ,  7-H ) :   0.9456 
B(  2-O ,  3-O ) :   0.1071 B(  3-O ,  4-H ) :   0.9762 

-------
TIMINGS
-------

Total SCF time: 0 days 0 hours 0 min 1 sec 

Total time                  ....       1.461 sec
Sum of individual times     ....       1.370 sec  ( 93.8%)

SCF preparation             ....       0.059 sec  (  4.0%)
Fock matrix formation       ....       0.835 sec  ( 57.2%)
  Startup                   ....       0.008 sec  (  1.0% of F)
  Coulomb formation         ....       0.319 sec  ( 38.2% of F)
  XC integration            ....       0.409 sec  ( 48.9% of F)
    XC Preparation          ....       0.000 sec  (  0.0% of XC)
    Basis function eval.    ....       0.067 sec  ( 16.3% of XC)
    Density eval.           ....       0.022 sec  (  5.4% of XC)
    XC-Functional eval.     ....       0.019 sec  (  4.6% of XC)
    XC-Potential eval.      ....       0.037 sec  (  9.0% of XC)
Diagonalization             ....       0.000 sec  (  0.0%)
Density matrix formation    ....       0.059 sec  (  4.0%)
Total Energy calculation    ....       0.013 sec  (  0.9%)
Population analysis         ....       0.015 sec  (  1.1%)
Orbital Transformation      ....       0.010 sec  (  0.7%)
Orbital Orthonormalization  ....       0.000 sec  (  0.0%)
DIIS solution               ....       0.035 sec  (  2.4%)
SOSCF solution              ....       0.345 sec  ( 23.6%)
Finished LeanSCF after   1.5 sec

Maximum memory used throughout the entire LEANSCF-calculation: 7.2 MB


           ************************************************************
           *        Program running with 8 parallel MPI-processes     *
           *              working on a common directory               *
           ************************************************************

------------------------------------------------------------------------------
                         ORCA PROPERTY INTEGRAL CALCULATIONS
------------------------------------------------------------------------------

GBWName                                   ... /cluster/projects/nn14654k/ylvaos/basis_set_n_funcs/functionals/pbe/CH3COOH/inp/CH3COOH_pbe_ccpvdz.gbw
Number of atoms                           ...      8
Number of basis functions                 ...    100
Max core memory                           ...   4096 MB

Dipole integrals                          ... YES
Quadrupole integrals                      ... YES
Linear momentum integrals                 ...  NO
Angular momentum integrals                ...  NO
Higher moments length integrals           ...  NO
Higher moments velocity integrals         ...  NO
Kinetic energy integrals                  ...  NO
GIAO right hand sides                     ...  NO
GIAO dipole derivative integrals          ...  NO
SOC integrals                             ...  NO
EPR diamagnetic integrals (GIAO)          ...  NO
EPR gauge integrals                       ...  NO
Field gradient integrals                  ...  NO (   0 nuclei)
Spin-dipole/Fermi contact integrals       ...  NO (   0 nuclei)
Contact density integrals                 ...  NO (   0 nuclei)
Nucleus-orbit integrals                   ...  NO (   0 nuclei)
Geometric perturbations                   ...  NO (   8 nuclei)

Choice of electric origin   ... Center of mass
Position of electric origin ... ( -0.0657,  0.0975,  0.0000) 
Choice of magnetic origin   ... GIAO
Position of magnetic origin ... (  0.0000,  0.0000,  0.0000) 

Calculating integrals                     ... Electric Dipole (Length)     done (  0.0 sec)
Calculating integrals                     ... Electric Quadrupole (Length) done (  0.0 sec)

Property integrals calculated in   0.0 sec

Maximum memory used throughout the entire PROPINT-calculation: 5.5 MB
------------------------------------------------------------------------------
                           ORCA ORBITAL LOCALIZATION
------------------------------------------------------------------------------

Input orbitals are from                  ... /cluster/projects/nn14654k/ylvaos/basis_set_n_funcs/functionals/pbe/CH3COOH/inp/CH3COOH_pbe_ccpvdz.gbw
Output orbitals are to                   ... /cluster/projects/nn14654k/ylvaos/basis_set_n_funcs/functionals/pbe/CH3COOH/inp/CH3COOH_pbe_ccpvdz.loc
Max. number of iterations                ... 128
Localizations seeded randomly            ... on
Convergence tolerance                    ... 1.000e-06
Threshold for strong local MOs           ... 9.500e-01
Threshold for bond MOs                   ... 8.500e-01
Operator                                 ... 0
Orbital range for localization           ... 4 to 15
Localization criterion                   ... NEW-BOYS
Doing the dipole integrals               ... o.k.
Initial value of the localization sum :    67.787092
ITERATION   0 : L=   79.0276201864 DL=  1.12e+01 (AVERGE_DL)=    0.4126875735 
ITERATION   1 : L=   80.6744445942 DL=  1.65e+00 (AVERGE_DL)=    0.1579616566 
ITERATION   2 : L=   80.7634876326 DL=  8.90e-02 (AVERGE_DL)=    0.0367305996 
ITERATION   3 : L=   80.7739668823 DL=  1.05e-02 (AVERGE_DL)=    0.0126006551 
ITERATION   4 : L=   80.7768878238 DL=  2.92e-03 (AVERGE_DL)=    0.0066525702 
ITERATION   5 : L=   80.7778538018 DL=  9.66e-04 (AVERGE_DL)=    0.0038257065 
ITERATION   6 : L=   80.7783028651 DL=  4.49e-04 (AVERGE_DL)=    0.0026084458 
ITERATION   7 : L=   80.7785637776 DL=  2.61e-04 (AVERGE_DL)=    0.0019882706 
ITERATION   8 : L=   80.7787332642 DL=  1.69e-04 (AVERGE_DL)=    0.0016024911 
ITERATION   9 : L=   80.7788486250 DL=  1.15e-04 (AVERGE_DL)=    0.0013220786 
ITERATION  10 : L=   80.7789288518 DL=  8.02e-05 (AVERGE_DL)=    0.0011025231 
ITERATION  11 : L=   80.7789853411 DL=  5.65e-05 (AVERGE_DL)=    0.0009251480 
ITERATION  12 : L=   80.7790254731 DL=  4.01e-05 (AVERGE_DL)=    0.0007797823 
ITERATION  13 : L=   80.7790541936 DL=  2.87e-05 (AVERGE_DL)=    0.0006596657 
ITERATION  14 : L=   80.7790748779 DL=  2.07e-05 (AVERGE_DL)=    0.0005598206 
ITERATION  15 : L=   80.7790898548 DL=  1.50e-05 (AVERGE_DL)=    0.0004763630 
ITERATION  16 : L=   80.7791007511 DL=  1.09e-05 (AVERGE_DL)=    0.0004063205 
ITERATION  17 : L=   80.7791087113 DL=  7.96e-06 (AVERGE_DL)=    0.0003472879 
ITERATION  18 : L=   80.7791145483 DL=  5.84e-06 (AVERGE_DL)=    0.0002973884 
ITERATION  19 : L=   80.7791188415 DL=  4.29e-06 (AVERGE_DL)=    0.0002550456 
ITERATION  20 : L=   80.7791220077 DL=  3.17e-06 (AVERGE_DL)=    0.0002190261 
ITERATION  21 : L=   80.7791243486 DL=  2.34e-06 (AVERGE_DL)=    0.0001883294 
ITERATION  22 : L=   80.7791260827 DL=  1.73e-06 (AVERGE_DL)=    0.0001620916 
ITERATION  23 : L=   80.7791273700 DL=  1.29e-06 (AVERGE_DL)=    0.0001396602 
ITERATION  24 : L=   80.7791283266 DL=  9.57e-07 (AVERGE_DL)=    0.0001203893 
LOCALIZATION SUM CONVERGED


--------------------------------------------------------------------------------
                    LOCALIZED MOLECULAR ORBITAL COMPOSITIONS
--------------------------------------------------------------------------------

The Mulliken populations for each LMO on each atom are computed
The LMO`s will be ordered according to atom index and type
  (A) Strongly localized MO`s have populations of >=0.950 on one atom
  (B) Two center bond orbitals have populations of >=0.850 on two atoms
  (C) Other MO`s are considered to be `delocalized`

FOUND  -   1 strongly local MO`s
       -  11 two center bond MO`s
       -   0 significantly delocalized MO`s

Rather strongly localized orbitals:
MO   4:   3O  -   0.962543
Bond-like localized orbitals:
MO  15:   7H  -   0.480878  and   1C  -   0.507210
MO  14:   6H  -   0.480897  and   1C  -   0.507206
MO  13:   5H  -   0.484793  and   1C  -   0.514358
MO  12:   4H  -   0.409293  and   3O  -   0.592168
MO  11:   3O  -   0.694056  and   0C  -   0.322139
MO  10:   3O  -   0.841982  and   0C  -   0.154614
MO   9:   2O  -   0.927073  and   0C  -   0.074341
MO   8:   2O  -   0.637919  and   0C  -   0.368948
MO   7:   2O  -   0.637392  and   0C  -   0.369747
MO   6:   2O  -   0.909378  and   0C  -   0.082630
MO   5:   1C  -   0.509927  and   0C  -   0.518730
Localized MO's were stored in: /cluster/projects/nn14654k/ylvaos/basis_set_n_funcs/functionals/pbe/CH3COOH/inp/CH3COOH_pbe_ccpvdz.loc

-------------------------   --------------------
FINAL SINGLE POINT ENERGY      -228.841470290631
-------------------------   --------------------



           ************************************************************
           *        Program running with 8 parallel MPI-processes     *
           *              working on a common directory               *
           ************************************************************

------------------------------------------------------------------------------
                              ORCA PROPERTY CALCULATIONS
------------------------------------------------------------------------------

GBWName                                 ... /cluster/projects/nn14654k/ylvaos/basis_set_n_funcs/functionals/pbe/CH3COOH/inp/CH3COOH_pbe_ccpvdz.gbw
Number of atoms                         ...      8
Number of basis functions               ...    100
Max core memory                         ...   4096 MB

Electric properties:
Dipole moment                           ... YES
Quadrupole moment                       ... YES
Static polarizability (Dipole/Dipole)   ...  NO
Static polarizability (Dipole/Quad.)    ...  NO
Static polarizability (Quad./Quad.)     ...  NO
Static polarizability (Velocity)        ...  NO
Static hyperpolarizability              ...  NO

Atomic electric properties:
Dipole moment                           ...  NO
Quadrupole moment                       ...  NO
Static polarizability                   ...  NO

Choice of electric origin               ... Center of mass
Position of electric origin             ...    -0.065707     0.097461     0.000000

General magnetic properties:
Magnetizability                         ...  NO

EPR properties:
g-Tensor (aka g-matrix)                 ...  NO
Zero-Field splitting spin-orbit         ...  NO
Zero-field splitting spin-spin          ...  NO
Hyperfine couplings                     ...  NO (   0 nuclei)
Quadrupole couplings                    ...  NO (   0 nuclei)
Contact density                         ...  NO (   0 nuclei)

NMR properties:
Chemical shifts                         ...  NO (   0 nuclei)
Spin-rotation constants                 ...  NO (   0 nuclei)
Spin-spin couplings                     ...  NO (   0 nuclei,    0 pairs)

Choice of magnetic origin               ... GIAO
Position of magnetic origin             ...     0.000000     0.000000     0.000000

Properties with geometric perturbations:
SCF Hessian                             ...  NO
IR spectrum                             ...  NO
VCD spectrum                            ...  NO
X-ray spectroscopy properties:
SCF XES/XAS/RIXS spectra                ...  NO

SCF SOC stabilization energy            ...  NO
Diagonal Born-Oppenheimer correction    ...  NO

-------------
DIPOLE MOMENT
-------------

Method             : SCF
Type of density    : Electron Density
Multiplicity       :   1
Irrep              :   0
Energy             :  -228.8414702906309799 Eh
Basis              : AO
                                X                 Y                 Z
Electronic contribution:     -2.273487345       2.529572552      -0.000000001
Nuclear contribution   :      2.102617427      -3.118765285       0.000000000
                        -----------------------------------------
Total Dipole Moment    :     -0.170869919      -0.589192733      -0.000000001
                        -----------------------------------------
Magnitude (a.u.)       :      0.613469319
Magnitude (Debye)      :      1.559315088



--------------------
Rotational spectrum 
--------------------
 
Rotational constants in cm-1:             0.373252             0.316126             0.176788 
Rotational constants in MHz :         11189.819630          9477.229268          5299.974115 

Dipole components along the rotational axes: 
x,y,z [a.u.] :    -0.252810    -0.558956    -0.000000 
x,y,z [Debye]:    -0.642591    -1.420753    -0.000000 

 

Dipole moment calculation done in   0.0 sec 

-----------------
QUADRUPOLE MOMENT
-----------------

Method             : SCF
Type of density    : Electron Density
Multiplicity       :   1
Irrep              :   0
Energy             :  -228.8414702906309799 Eh
Basis              : AO

                XX              YY              ZZ              XY              XZ              YZ
  NUC      103.447904006    93.335807526     5.552847104   -15.402641721     0.000000000     0.000000000
  EL      -118.224701643  -112.908482117   -22.458382457    13.010323761    -0.000000002     0.000000004
  TOT      -14.776797637   -19.572674591   -16.905535353    -2.392317960    -0.000000002     0.000000004 (a.u.)
           -19.875298188   -26.325916710   -22.738523219    -3.217749473    -0.000000003     0.000000005 (Buckingham)

diagonalized tensor:
           -20.561961255   -16.905535353   -13.787510972 (a.u.)
           -27.656541107   -22.738523219   -18.544673790 (Buckingham)
           -14.029885206     0.724168461    13.305716745 (traceless form in Buckingham)

            -0.382141362     0.000000001    -0.924103879
            -0.924103879     0.000000000     0.382141362
             0.000000001     1.000000000     0.000000001
        
Isotropic quadrupole :   -17.085002527

Quadrupole moment calculation done in   0.0 sec (  0.0 sec for integrals)

Maximum memory used throughout the entire PROP-calculation: 3.2 MB

--------------------------------
SUGGESTED CITATIONS FOR THIS RUN
--------------------------------

Below you find a list of papers that are relevant to this ORCA run
We neither can nor want to force you to cite these papers, but we appreciate if you do
You receive ORCA, which is the product of decades of hard work by many enthusiastic individuals, for free
The only thing we kindly ask in return is that you cite our papers,
We deeply appreciate it, if you show your appreciation for ORCA by not just citing the generic ORCA reference.

Please note that relegating all ORCA citations to the supporting information does *not* help us.
SI sections are not indexed - citations you put there will not count into any citation statistics
But we need these citations in order to attract the funding resources that allow us to do what we are doing

Therefore, if you are a happy ORCA user, please consider citing a few of the papers listed below in the main body of your paper

In addition to the list printed below, the program has created the file /cluster/projects/nn14654k/ylvaos/basis_set_n_funcs/functionals/pbe/CH3COOH/inp/CH3COOH_pbe_ccpvdz.bibtex that contains the list in bibtex format
You can import this file easily into all common literature databanks and citation aid programs

It goes without saying that in many instances, there are alternative algorithms to achieve similar
results as the ones you have gotten from ORCA. It is, of course, also the case that in some instances
ORCA just re-implements algorithms worked out by others. We are fully aware of that and we are also
fully appreciative of our colleagues work. Hence this citation list should not be read as indicating
that the listed papers, which are focused on our own work, are the only ones worth citing. It simply
meant to make it easier for users to cite ORCA specific papers. It is not a substitute for doing your
own literature research and citing the relevant literature in a scientifically appropriate manner.

List of essential papers. We consider these as the minimum necessary citations

  1. Neese, F.
     Software update: the ORCA program system, version 6.0
     WIRES Comput. Molec. Sci. 2025 15(1), e70019
     doi.org/10.1002/wcms.70019

List of papers to cite with high priority. The work reported in these papers was absolutely
necessary for this run to complete.
Our perspective: the developers of density functionals and basis sets usually get cited in chemistry papers
Good! But without the algorithms to do something with them, the functionals or basis sets would not do anything.
Hence, in our opinion, the algorithm design and method developments papers are equally worthy of getting cited

  1. Neese, F.
     The SHARK Integral Generation and Digestion System
     J. Comp. Chem. 2022 44(3), 381
     doi.org/10.1002/jcc.26942

List of suggested additional citations. These are papers that are important in the 'surrounding' of 
of this run, or papers that preceded the highly important papers. If you like your results we are grateful for a citation.

  1. Neese, F.
     The ORCA program system
     WIRES Comput. Molec. Sci. 2012 2(1), 73-78
     doi.org/10.1002/wcms.81
  2. Neese, F.
     Software update: the ORCA program system, version 4.0
     WIRES Comput. Molec. Sci. 2018 8(1), 1-6
     doi.org/10.1002/wcms.1327
  3. Neese, F.; Wennmohs, F.; Becker, U.; Riplinger, C.
     The ORCA quantum chemistry program package
     J. Chem. Phys. 2020 152(22), 224108
     doi.org/10.1063/5.0004608
  4. Neese, F.
     Software update: The ORCA program system—Version 5.0
     WIRES Comput. Molec. Sci. 2022 12(1), e1606
     doi.org/10.1002/wcms.1606

List of optional additional citations

  1. Neese, F.
     Approximate second-order SCF convergence for spin unrestricted wavefunctions
     Chem. Phys. Lett. 2000 325(1-3), 93-98
     doi.org/10.1016/s0009-2614(00)00662-x

Timings for individual modules:

Sum of individual times          ...        3.260 sec (=   0.054 min)
Startup calculation              ...        0.737 sec (=   0.012 min)  22.6 %
SCF iterations                   ...        2.016 sec (=   0.034 min)  61.9 %
Property integrals               ...        0.231 sec (=   0.004 min)   7.1 %
Property calculations            ...        0.271 sec (=   0.005 min)   8.3 %
Orbital localization             ...        0.004 sec (=   0.000 min)   0.1 %
                             ****ORCA TERMINATED NORMALLY****
TOTAL RUN TIME: 0 days 0 hours 0 minutes 3 seconds 971 msec
