
                                 *****************
                                 * O   R   C   A *
                                 *****************

                                            #,                                       
                                            ###                                      
                                            ####                                     
                                            #####                                    
                                            ######                                   
                                           ########,                                 
                                     ,,################,,,,,                         
                               ,,#################################,,                 
                          ,,##########################################,,             
                       ,#########################################, ''#####,          
                    ,#############################################,,   '####,        
                  ,##################################################,,,,####,       
                ,###########''''           ''''###############################       
              ,#####''   ,,,,##########,,,,          '''####'''          '####       
            ,##' ,,,,###########################,,,                        '##       
           ' ,,###''''                  '''############,,,                           
         ,,##''                                '''############,,,,        ,,,,,,###''
      ,#''                                            '''#######################'''  
     '                                                          ''''####''''         
             ,#######,   #######,   ,#######,      ##                                
            ,#'     '#,  ##    ##  ,#'     '#,    #''#        ,####,    ,#,          
            ##       ##  ##   ,#'  ##            #'  '#       #'       ,# #          
            ##       ##  #######   ##           ,######,      #####,      #          
            '#,     ,#'  ##    ##  '#,     ,#' ,#      #,     #,   #      #          
             '#######'   ##     ##  '#######'  #'      '#     '####' #    #          



                #########################################################
                #                        -***-                          #
                #          Department of theory and spectroscopy        #
                #                                                       #
                #                      Frank Neese                      #
                #                                                       #
                #     Directorship, Architecture, Infrastructure        #
                #                    SHARK, DRIVERS                     #
                #        Core code/Algorithms in most modules           #
                #                                                       #
                #        Max Planck Institute fuer Kohlenforschung      #
                #                Kaiser Wilhelm Platz 1                 #
                #                 D-45470 Muelheim/Ruhr                 #
                #                      Germany                          #
                #                                                       #
                #                  All rights reserved                  #
                #                        -***-                          #
                #########################################################


                         Program Version 6.1.1  -  RELEASE   -
                                (GIT: $487d211c$)
                          ($2025-11-21 10:33:24 +0100$)


 With contributions from (in alphabetic order):
[Max-Planck-Institut fuer Kohlenforschung]                               
  Daniel Aravena         : Magnetic Suceptibility                        
  Michael Atanasov       : Ab Initio Ligand Field Theory (pilot matlab implementation)
  Alexander A. Auer      : GIAO ZORA, VPT2 properties, NMR spectrum      
  Ute Becker             : All parallelization in ORCA, NUMFREQ, NUMCALC 
  Giovanni Bistoni       : ED, misc. LED, open-shell LED, HFLD           
  Dmytro Bykov           : pre 5.0 version of the SCF Hessian            
  Marcos Casanova-Páez   : Triplet and SCS-CIS(D). UHF-(DLPNO)-IP/EA/STEOM-CCSD. UHF-CVS-IP/STEOM-CCSD   
  Vijay G. Chilkuri      : MRCI spin determinant printing, contributions to CSF-ICE 
  Pauline Colinet        : FMM embedding                                 
  Dipayan Datta          : RHF DLPNO-CCSD density                        
  Achintya Kumar Dutta   : EOM-CC, STEOM-CC                              
  Nicolas Foglia         : Exact transition moments, OPA infrastructure, MCD improvements    
  Dmitry Ganyushin       : Spin-Orbit,Spin-Spin,Magnetic field MRCI      
  Miquel Garcia-Rates    : C-PCM and meta-GGA Hessian, CCSD/C-PCM, Gaussian charge scheme 
  Tiago L. C. Gouveia    : GS-ROHF, GS-ROCIS                             
  Yang Guo               : DLPNO-NEVPT2, F12-NEVPT2, CIM, IAO-localization        
  Andreas Hansen         : Spin unrestricted coupled pair/coupled cluster methods 
  Ingolf Harden          : AUTO-CI MPn and infrastructure                
  Benjamin Helmich-Paris : MC-RPA, TRAH-(SCF,CASSCF), AVAS, COSX integrals, SCF dyn. polar., MC-PDFT, srDFT 
  Lee Huntington         : MR-EOM, pCC                                   
  Robert Izsak           : Overlap fitted RIJCOSX, COSX-SCS-MP3, EOM     
  Riya Kayal             : Wick's Theorem for AUTO-CI, AUTO-CI UHF-CCSDT 
  Emily Kempfer          : AUTO-CI RHF CISDT and CCSDT, approximate NEVPT4
  Christian Kollmar      : KDIIS, OOCD, Brueckner-CCSD(T), CCSD density, CASPT2, CASPT2-K, improved NEVPT2 
  Axel Koslowski         : Symmetry handling                             
  Simone Kossmann        : meta-GGA functionals, TD-DFT gradient, OOMP2, (MP2 Hessian; deprecated post 5.0) 
  Lucas Lang             : DCDCAS, Hyperfine gauge corrections, ICE-SOC+SSC
  Marvin Lechner         : AUTO-CI (C++ implementation), FIC-MRCC        
  Spencer Leger          : CASSCF response                               
  Dagmar Lenk            : GEPOL surface, SMD, ORCA-2-JSON               
  Dimitrios Liakos       : Extrapolation schemes; Compound Job, Property file
  Dimitrios Manganas     : Further ROCIS development; embedding schemes. LFT, Crystal Embedding 
  Dimitrios Pantazis     : SARC Basis sets                               
  Anastasios Papadopoulos: AUTO-CI, single reference methods and gradients 
  Taras Petrenko         : pre 6.0 DFT Hessian and TD-DFT gradient,  ECA, NRVS 
  Petra Pikulova         : Analytic Raman intensities                    
  Peter Pinski           : DLPNO-MP2, DLPNO-MP2 Gradient                 
  Shashank Vittal Rao    : ES-AILFT, MagRelax                            
  Christoph Reimann      : Effective Core Potentials                     
  Marius Retegan         : Local ZFS, SOC                                
  Christoph Riplinger    : Optimizer, TS searches, QM/MM, DLPNO-CCSD(T), (RO)-DLPNO pert. Triples 
  Michael Roemelt        : Original ROCIS implementation, recursive CI coupling coefficients
  Masaaki Saitow         : Open-shell DLPNO-CCSD energy and density      
  Barbara Sandhoefer     : DKH picture change effects                    
  Yorick L. A. Schmerwitz: GMF and freeze-and-release deltaSCF, NEB S-IDPP initial path                    
  Kantharuban Sivalingam : CASSCF convergence/infrastructure, NEVPT2, NEVPT3, NEVPT4(SD), FIC-MRCI and CEPA variants
  Bernardo de Souza      : ESD, SOC TD-DFT                               
  Georgi L. Stoychev     : AutoAux, RI-MP2 NMR, DLPNO-MP2 response, X2C  
  Van Anh Tran           : RI-MP2 g-tensors                              
  Willem Van den Heuvel  : Paramagnetic NMR                              
  Zikuan Wang            : NOTCH, Electric field optimization            
  Frank Wennmohs         : Technical directorship and infrastructure     
  Hang Xu                : AUTO-CI-Response properties                   
                                                                         
[FACCTs GmbH]                                                            
  Markus Bursch, Nicolas Foglia, Miquel Garcia-Rates, Ingolf Harden, Hagen Neugebauer, Anastasios Papadopoulos, 
  Christoph Riplinger, Bernardo de Souza, Georgi L. Stoychev                                                    
                                                                 
  APM, various basis sets, CI-OPT, improved COSX, DLPNO-Multilevel,           
  DOCKER, DRACO, updates on ESD, Fragmentator, GOAT, IRC, LR-CPCM, L-BFGS, MBIS, meta-GGA TD-DFT gradient, ML-optimized integration grids, 
  MM, NACMEs, nearIR, NEB, NEB-TS, NL-DFT gradient (VV10), 2- and 3-layer-ONIOM, interface openCOSMO-RS, QMMM,   
  Crystal-QMMM, RESP, rigid body optimization, SF, symmetry and pop. for TD-DFT, various functionals, SOLVATOR                                   
                                                                         
[Other institutions]                                                     
  V. Asgeirsson          : NEB                                           
  Christoph Bannwarth    : sTDA-DFT, sTD-DFT, PBEh-3c, B97-3c, D3        
  Giovanni Bistoni       : ETS/NOCV, ADLD/ADEX, COVALED                  
  Martin Brehm           : Molecular dynamics                            
  Ronald Cardenas        : ETS/NOCV                                      
  Martina Colucci        : COVALED                                       
  Sebastian Ehlert       : rSCAN, r2SCAN, r2SCAN-3c, D4, dhf basis sets  
  Marvin Friede          : D4 for Fr, Ra, Ac-Lr                          
  Lars Goerigk           : TD-DFT with DH, B97 family of functionals     
  Stefan Grimme          : VdW corrections, initial TS optimization, DFT functionals, gCP, sTDA/sTD-DF 
  Waldemar Hujo          : DFT-NL                                        
  H. Jonsson             : NEB                                           
  Holger Kruse           : gCP                                           
  Marcel Mueller         : wB97X-3c, vDZP basis set                      
  Hagen Neugebauer       : wr2SCAN, Native XTB                           
  Gianluca Regni         : ADLD/ADEX                                     
  Tobias Risthaus        : pre 6.0 range-separated hybrid DFT and stability analysis
  Lukas Wittmann         : regularized MP2, r2SCAN double-hybrids, wr2SCAN        
                                                                         
We gratefully acknowledge several colleagues who have allowed us to      
interface, adapt or use parts of their codes:                            
  Ed Valeev, F. Pavosevic, A. Kumar             : LibInt (2-el integral package), F12 methods 
  Garnet Chan, S. Sharma, J. Yang, R. Olivares  : DMRG                   
  Ulf Ekstrom                                   : XCFun DFT Library      
  Mihaly Kallay                                 : mrcc  (arbitrary order and MRCC methods)
  Frank Weinhold                                : gennbo (NPA and NBO analysis)           
  Simon Mueller                                 : openCOSMO-RS                            
  Christopher J. Cramer and Donald G. Truhlar   : smd solvation model                     
  S Lehtola, MJT Oliveira, MAL Marques          : LibXC Library                           
  Liviu Ungur et al                             : ANISO software                          


 Your calculation uses the libint2 library for the computation of 2-el integrals
 For citations please refer to: http://libint.valeyev.net

 Your ORCA version has been built with support for libXC version: 7.0.0
 For citations please refer to: https://libxc.gitlab.io

 This ORCA versions uses:
   CBLAS   interface :  Fast vector & matrix operations
   LAPACKE interface :  Fast linear algebra routines
   SCALAPACK package :  Parallel linear algebra routines
   Shared memory     :  Shared parallel matrices
   BLAS/LAPACK       :  OpenBLAS 0.3.29  USE64BITINT DYNAMIC_ARCH NO_AFFINITY Cooperlake SINGLE_THREADED
        Core in use  :  Cooperlake
   Copyright (c) 2011-2014, The OpenBLAS Project


  ***********************************
  * Starting time: Wed May 20 12:33:45 2026
  * Host name:     c1-14
  * Process ID:    979542
  * Working dir.:  /cluster/projects/nn14654k/ylvaos/basis_set_n_funcs/functionals/pbe/CH3COOH/out
  ***********************************

================================================================================

----- Orbital basis set information -----
Your calculation utilizes the basis: def2-QZVP
   F. Weigend and R. Ahlrichs, Phys. Chem. Chem. Phys. 7, 3297 (2005).

================================================================================
                                        WARNINGS
                       Please study these warnings very carefully!
================================================================================


================================================================================
                                       INPUT FILE
================================================================================
NAME = /cluster/projects/nn14654k/ylvaos/basis_set_n_funcs/functionals/pbe/CH3COOH/inp/CH3COOH_pbe_def2qzvp.inp
|  1> ! dft def2-QZVP TightSCF
|  2> %pal nprocs 8 end
|  3> 
|  4> %loc
|  5>   LocMet NewBoys
|  6>   Occ true
|  7> end
|  8> 
|  9> %method
| 10>   
| 11>   functional pbe
| 12> end
| 13> 
| 14> %elprop
| 15>   Dipole true
| 16>   Quadrupole true
| 17> end
| 18> 
| 19> * xyz 0 1
| 20> C    0.000000000000   0.154560000000   0.000000000000
| 21> C    1.073776000000  -0.892748000000   0.000000000000
| 22> O    0.166384000000   1.360084000000   0.000000000000
| 23> O   -1.236449000000  -0.415036000000   0.000000000000
| 24> H   -1.867646000000   0.333582000000   0.000000000000
| 25> H    2.048189000000  -0.408135000000   0.000000000000
| 26> H    0.968661000000  -1.528353000000   0.881747000000
| 27> H    0.968661000000  -1.528353000000  -0.881747000000
| 28> *
| 29> 
| 30> 
| 31>                          ****END OF INPUT****
================================================================================

                       ****************************
                       * Single Point Calculation *
                       ****************************

---------------------------------
CARTESIAN COORDINATES (ANGSTROEM)
---------------------------------
  C      0.000000    0.154560    0.000000
  C      1.073776   -0.892748    0.000000
  O      0.166384    1.360084    0.000000
  O     -1.236449   -0.415036    0.000000
  H     -1.867646    0.333582    0.000000
  H      2.048189   -0.408135    0.000000
  H      0.968661   -1.528353    0.881747
  H      0.968661   -1.528353   -0.881747

----------------------------
CARTESIAN COORDINATES (A.U.)
----------------------------
  NO LB      ZA    FRAG     MASS         X           Y           Z
   0 C     6.0000    0    12.011    0.000000    0.292076    0.000000
   1 C     6.0000    0    12.011    2.029143   -1.687049    0.000000
   2 O     8.0000    0    15.999    0.314420    2.570186    0.000000
   3 O     8.0000    0    15.999   -2.336550   -0.784304    0.000000
   4 H     1.0000    0     1.008   -3.529339    0.630379    0.000000
   5 H     1.0000    0     1.008    3.870516   -0.771263    0.000000
   6 H     1.0000    0     1.008    1.830504   -2.888169    1.666260
   7 H     1.0000    0     1.008    1.830504   -2.888169   -1.666260

--------------------------------
INTERNAL COORDINATES (ANGSTROEM)
--------------------------------
 C      0   0   0     0.000000000000     0.00000000     0.00000000
 C      1   0   0     1.499949647502     0.00000000     0.00000000
 O      1   2   0     1.216951827326   126.42686784     0.00000000
 O      1   2   3     1.361339683113   110.98078396   180.00000000
 H      4   1   2     0.979203024267   105.40175469   180.00000085
 H      2   1   3     1.088269476893   109.27200725     0.00000000
 H      2   1   3     1.092025938913   109.72406365   120.93315147
 H      2   1   3     1.092025938913   109.72406365   239.06684853

---------------------------
INTERNAL COORDINATES (A.U.)
---------------------------
 C      0   0   0     0.000000000000     0.00000000     0.00000000
 C      1   0   0     2.834494048450     0.00000000     0.00000000
 O      1   2   0     2.299705671821   126.42686784     0.00000000
 O      1   2   3     2.572559176322   110.98078396   180.00000000
 H      4   1   2     1.850425545371   105.40175469   180.00000085
 H      2   1   3     2.056531271234   109.27200725     0.00000000
 H      2   1   3     2.063629955684   109.72406365   120.93315147
 H      2   1   3     2.063629955684   109.72406365   239.06684853

---------------------
BASIS SET INFORMATION
---------------------
There are 3 groups of distinct atoms

 Group   1 Type C   : 15s8p3d2f1g contracted to 7s4p3d2f1g pattern {8211111/5111/111/11/1}
 Group   2 Type O   : 15s8p3d2f1g contracted to 7s4p3d2f1g pattern {8211111/5111/111/11/1}
 Group   3 Type H   : 7s3p2d1f contracted to 4s3p2d1f pattern {4111/111/11/1}

Atom   0C    basis set group =>   1
Atom   1C    basis set group =>   1
Atom   2O    basis set group =>   2
Atom   3O    basis set group =>   2
Atom   4H    basis set group =>   3
Atom   5H    basis set group =>   3
Atom   6H    basis set group =>   3
Atom   7H    basis set group =>   3


           ************************************************************
           *        Program running with 8 parallel MPI-processes     *
           *              working on a common directory               *
           ************************************************************
------------------------------------------------------------------------------
                             ORCA STARTUP CALCULATIONS
------------------------------------------------------------------------------
------------------------------------------------------------------------------
                   ___                                                        
                  /   \      - P O W E R E D   B Y -                         
                 /     \                                                     
                 |  |  |   _    _      __       _____    __    __             
                 |  |  |  | |  | |    /  \     |  _  \  |  |  /  |          
                  \  \/   | |  | |   /    \    | | | |  |  | /  /          
                 / \  \   | |__| |  /  /\  \   | |_| |  |  |/  /          
                |  |  |   |  __  | /  /__\  \  |    /   |      \           
                |  |  |   | |  | | |   __   |  |    \   |  |\   \          
                \     /   | |  | | |  |  |  |  | |\  \  |  | \   \       
                 \___/    |_|  |_| |__|  |__|  |_| \__\ |__|  \__/        
                                                                              
                      - O R C A' S   B I G   F R I E N D -                    
                                      &                                       
                       - I N T E G R A L  F E E D E R -                       
                                                                              
 v1 FN, 2020, v2 2021, v3 2022-2024                                           
------------------------------------------------------------------------------


----------------------
SHARK INTEGRAL PACKAGE
----------------------

Number of atoms                             ...      8
Number of basis functions                   ...    348
Number of shells                            ...    108
Maximum angular momentum                    ...      4
Integral batch strategy                     ... SHARK/LIBINT Hybrid
RI-J (if used) integral strategy            ... SPLIT-RIJ (Revised 2003 algorithm where possible)
Printlevel                                  ...      1
Contraction scheme used                     ... SEGMENTED contraction
Prescreening option                         ... SCHWARTZ
   Thresh                                   ... 2.500e-11
   Tcut                                     ... 2.500e-12
   Tpresel                                  ... 2.500e-12 
Coulomb Range Separation                    ... NOT USED
Exchange Range Separation                   ... NOT USED
Multipole approximations                    ... NOT USED
Finite Nucleus Model                        ... NOT USED
CABS basis                                  ... NOT available
Auxiliary Coulomb fitting basis             ... NOT available
Auxiliary J/K fitting basis                 ... NOT available
Auxiliary Correlation fitting basis         ... NOT available
Auxiliary 'external' fitting basis          ... NOT available

Checking pre-screening integrals            ... done (  0.0 sec) Dimension = 108
   => SHARK Basis and OBASIS are compatible. Storing Pre-screening
Shell pair information
Shell pair cut-off parameter TPreSel        ...   2.5e-12
Total number of shell pairs                 ...      5886
Shell pairs after pre-screening             ...      5532
Total number of primitive shell pairs       ...     14376
Primitive shell pairs kept                  ...     11125
          la=0 lb=0:    878 shell pairs
          la=1 lb=0:   1160 shell pairs
          la=1 lb=1:    398 shell pairs
          la=2 lb=0:    815 shell pairs
          la=2 lb=1:    542 shell pairs
          la=2 lb=2:    202 shell pairs
          la=3 lb=0:    486 shell pairs
          la=3 lb=1:    327 shell pairs
          la=3 lb=2:    228 shell pairs
          la=3 lb=3:     77 shell pairs
          la=4 lb=0:    173 shell pairs
          la=4 lb=1:    109 shell pairs
          la=4 lb=2:     79 shell pairs
          la=4 lb=3:     48 shell pairs
          la=4 lb=4:     10 shell pairs

Checking whether 4 symmetric matrices of dimension 348 fit in memory
:Max Core in MB      =   4096.00
 MB in use           =     10.31
 MB left             =   4085.69
 MB needed           =      1.85
 Data fit in memory  = YES
Calculating Nuclear repulsion               ... done (  0.0 sec) ENN=    120.693288504615 Eh

Diagonalization of the overlap matrix:
Smallest eigenvalue                        ... 8.147e-05
Time for diagonalization                   ...    0.008 sec
Threshold for overlap eigenvalues          ... 1.000e-07
Number of eigenvalues below threshold      ... 0
Time for construction of square roots      ...    0.015 sec
Total time needed                          ...    0.025 sec

-------------------
DFT GRID GENERATION
-------------------

General Integration Accuracy     IntAcc      ... 4.388
Radial Grid Type                 RadialGrid  ... OptM3 with GC (2021)
Angular Grid (max. ang.)         AngularGrid ... 4 (Lebedev-302)
Angular grid pruning method      GridPruning ... 4 (adaptive)
Weight generation scheme         WeightScheme... mBecke (2022)
Basis function cutoff            BFCut       ... 1.0000e-11
Integration weight cutoff        WCut        ... 1.0000e-14
Partially contracted basis set               ... off
Rotationally invariant grid construction     ... off
Angular grids for H and He will be reduced by one unit
Diffuse basis detected: some atoms will have their outermost
                        angular grid increased by 1.

Total number of grid points                  ...    38610
Total number of batches                      ...      606
Average number of points per batch           ...       63
Average number of grid points per atom       ...     4826
Grids setup in   0.1 sec
Initializing property integral containers    ... done (  0.0 sec)

SHARK setup successfully completed in   0.4 seconds

Maximum memory used throughout the entire STARTUP-calculation: 26.1 MB


           ************************************************************
           *        Program running with 8 parallel MPI-processes     *
           *              working on a common directory               *
           ************************************************************
-------------------------------------------------------------------------------
                                 ORCA GUESS
                   Start orbitals & Density for SCF / CASSCF
-------------------------------------------------------------------------------

------------
SCF SETTINGS
------------
Hamiltonian:
 Density Functional     Method          .... DFT(GTOs)
 Exchange Functional    Exchange        .... PBE
   PBE kappa parameter   XKappa         ....  0.804000
   PBE mue parameter    XMuePBE         ....  0.219520
 Correlation Functional Correlation     .... PBE
   PBE beta parameter  CBetaPBE         ....  0.066725
 LDA part of GGA corr.  LDAOpt          .... PW91-LDA
 Gradients option       PostSCFGGA      .... off
   NL short-range parameter             ....  6.400000


General Settings:
 Integral files         IntName         .... /cluster/projects/nn14654k/ylvaos/basis_set_n_funcs/functionals/pbe/CH3COOH/inp/CH3COOH_pbe_def2qzvp
 Hartree-Fock type      HFTyp           .... RHF
 Total Charge           Charge          ....    0
 Multiplicity           Mult            ....    1
 Number of Electrons    NEL             ....   32
 Basis Dimension        Dim             ....  348
 Nuclear Repulsion      ENuc            ....    120.6932885046 Eh

Convergence Acceleration:
 AO-DIIS                CNVDIIS         .... on
   Start iteration      DIISMaxIt       ....    12
   Startup error        DIISStart       ....  0.200000
   # of expansion vecs  DIISMaxEq       ....     5
   Bias factor          DIISBfac        ....   1.050
   Max. coefficient     DIISMaxC        ....  10.000
 MO-DIIS                CNVKDIIS        .... off
 Trust-Rad. Augm. Hess. CNVTRAH         .... auto
   Auto Start mean grad. ratio tolernc. ....  1.125000
   Auto Start start iteration           ....    50
   Auto Start num. interpolation iter.  ....    10
   Max. Number of Micro iterations      ....    24
   Max. Number of Macro iterations      .... Maxiter - #DIIS iter
   Number of Davidson start vectors     ....     2
   Converg. threshold    (grad. norm)   ....   1.000e-05
   Grad. Scal. Fac. for Micro threshold ....   0.100
   Minimum threshold for Micro iter.    ....   1.000e-02
   NR start threshold (gradient norm)   ....   1.000e-04
   Initial trust radius                 ....   0.400
   Minimum AH scaling param. (alpha)    ....   1.000
   Maximum AH scaling param. (alpha)    .... 1000.000
   Quad. conv. algorithm                .... NR
   White noise on init. David. guess    .... on
   Maximum white noise                  ....   0.010
   Pseudo random numbers                .... off
   Inactive MOs                         .... canonical
   Orbital update algorithm             .... Taylor
   Preconditioner                       .... Diag
   Full preconditioner red. dimension   ....   250
 SOSCF                 CNVSOSCF           .... on
   Start iteration     SOSCFMaxIt         ....   150
   Startup grad/error  SOSCFStart         ....  0.003300
   Hessian update      SOSCFHessUp        .... L-BFGS
   Autom. constraints  SOSCFAutoConstrain .... off
 Level Shifting         CNVShift        .... on
   Level shift para.    LevelShift      ....    0.2500
   Turn off err/grad.   ShiftErr        ....    0.0010
 Zerner damping         CNVZerner       .... off
 Static damping         CNVDamp         .... on
   Fraction old density DampFac         ....    0.7000
   Max. Damping (<1)    DampMax         ....    0.9800
   Min. Damping (>=0)   DampMin         ....    0.0000
   Turn off err/grad.   DampErr         ....    0.1000

SCF Procedure:
 Maximum # iterations   MaxIter         ....   125
 SCF integral mode      SCFMode         .... Direct
   Integral package                     .... SHARK and LIBINT hybrid scheme
 Reset frequency        DirectResetFreq ....    20
 Integral Threshold     Thresh          ....  2.500e-11 Eh
 Primitive CutOff       TCut            ....  2.500e-12 Eh

Convergence Tolerance:
 Convergence Check Mode ConvCheckMode   .... Total+1el-Energy
 Convergence forced     ConvForced      .... 0
 Energy Change          TolE            ....  1.000e-08 Eh
 1-El. energy change                    ....  1.000e-05 Eh
 Orbital Gradient       TolG            ....  1.000e-05
 Orbital Rotation angle TolX            ....  1.000e-05
 DIIS Error             TolErr          ....  5.000e-07

------------------------------
INITIAL GUESS: MODEL POTENTIAL
------------------------------
Loading Hartree-Fock densities                     ... done
Calculating cut-offs                               ... done
Initializing the effective Hamiltonian             ... done
Setting up the integral package (SHARK)            ... done
Starting the Coulomb interaction                   ... done (   0.0 sec)
Making the grid                                    ... done (   0.0 sec)
Mapping shells                                     ... done
Starting the XC term evaluation                    ... done (   0.0 sec)
  promolecular density results
     # of electrons  =     31.997023257
     EX              =    -27.693448290
     EC              =     -1.055036448
     EX+EC           =    -28.748484738
Transforming the Hamiltonian                       ... done (   0.0 sec)
Diagonalizing the Hamiltonian                      ... done (   0.0 sec)
Back transforming the eigenvectors                 ... done (   0.0 sec)
Now organizing SCF variables                       ... done
                      ------------------
                      INITIAL GUESS DONE (   0.1 sec)
                      ------------------
             **** ENERGY FILE WAS UPDATED (/cluster/projects/nn14654k/ylvaos/basis_set_n_funcs/functionals/pbe/CH3COOH/inp/CH3COOH_pbe_def2qzvp.en.tmp) ****
Finished Guess after   0.2 sec
Maximum memory used throughout the entire GUESS-calculation: 19.9 MB


           ************************************************************
           *        Program running with 8 parallel MPI-processes     *
           *              working on a common directory               *
           ************************************************************

-------------------------------------------------------------------------------------------
                                      ORCA LEAN-SCF
                              memory conserving SCF solver
-------------------------------------------------------------------------------------------

----------------------------------------D-I-I-S--------------------------------------------
Iteration    Energy (Eh)           Delta-E    RMSDP     MaxDP     DIISErr   Damp  Time(sec)
-------------------------------------------------------------------------------------------
               ***  Starting incremental Fock matrix formation  ***
    1    -228.7695185007121950     0.00e+00  2.59e-03  3.61e-02  2.96e-01  0.700   3.0
    2    -228.8606889109075837    -9.12e-02  1.76e-03  3.31e-02  9.07e-02  0.700   2.9
                               ***Turning on AO-DIIS***
    3    -228.8848372729275980    -2.41e-02  6.73e-04  1.30e-02  2.98e-02  0.700   2.8
    4    -228.9023646824259117    -1.75e-02  8.41e-04  1.53e-02  2.13e-02  0.000   2.7
    5    -228.9440041721049397    -4.16e-02  4.38e-04  1.01e-02  1.29e-02  0.000   2.7
    6    -228.9444935802995360    -4.89e-04  1.76e-04  3.68e-03  3.84e-03  0.000   2.6
                              *** Initializing SOSCF ***
---------------------------------------S-O-S-C-F--------------------------------------
Iteration    Energy (Eh)           Delta-E    RMSDP     MaxDP     MaxGrad    Time(sec)
--------------------------------------------------------------------------------------
    7    -228.9445282311473306    -3.47e-05  8.00e-05  1.69e-03  2.13e-03     2.6
               *** Restarting incremental Fock matrix formation ***
    8    -228.9445372612943288    -9.03e-06  5.16e-05  7.71e-04  1.85e-04     2.9
    9    -228.9445354508804371     1.81e-06  2.38e-05  4.48e-04  5.63e-04     2.4
   10    -228.9445381250044989    -2.67e-06  2.14e-05  4.16e-04  1.44e-04     2.3
   11    -228.9445378118316512     3.13e-07  6.49e-06  1.02e-04  1.72e-04     2.2
   12    -228.9445382698907565    -4.58e-07  6.10e-06  1.22e-04  1.95e-05     2.1
   13    -228.9445382660536552     3.84e-09  2.45e-06  4.82e-05  1.68e-05     2.2
                 **** Energy Check signals convergence ****

               *****************************************************
               *                     SUCCESS                       *
               *           SCF CONVERGED AFTER  13 CYCLES          *
               *****************************************************

             **** ENERGY FILE WAS UPDATED (/cluster/projects/nn14654k/ylvaos/basis_set_n_funcs/functionals/pbe/CH3COOH/inp/CH3COOH_pbe_def2qzvp.en.tmp) ****

----------------
TOTAL SCF ENERGY
----------------

Total Energy       :       -228.94453827835224 Eh           -6229.89761 eV

Components:
Nuclear Repulsion  :        120.69328850461517 Eh            3284.23135 eV
Electronic Energy  :       -349.63782678296741 Eh           -9514.12896 eV
One Electron Energy:       -551.22308926108462 Eh          -14999.54282 eV
Two Electron Energy:        201.58526247811722 Eh            5485.41387 eV

Virial components:
Potential Energy   :       -456.98236718314433 Eh          -12435.12240 eV
Kinetic Energy     :        228.03782890479206 Eh            6205.22479 eV
Virial Ratio       :          2.00397613579253

DFT components:
N(Alpha)           :       15.999982922465 electrons
N(Beta)            :       15.999982922465 electrons
N(Total)           :       31.999965844929 electrons
E(X)               :      -28.175409417649 Eh       
E(C)               :       -1.061674519517 Eh       
E(XC)              :      -29.237083937166 Eh       

---------------
SCF CONVERGENCE
---------------

  Last Energy change         ...   -3.8371e-09  Tolerance :   1.0000e-08
  Last MAX-Density change    ...    4.8215e-05  Tolerance :   1.0000e-07
  Last RMS-Density change    ...    2.4528e-06  Tolerance :   5.0000e-09
  Last DIIS Error            ...    2.1322e-03  Tolerance :   5.0000e-07
  Last Orbital Gradient      ...    1.6767e-05  Tolerance :   1.0000e-05
  Last Orbital Rotation      ...    2.4573e-05  Tolerance :   1.0000e-05


----------------
ORBITAL ENERGIES
----------------

  NO   OCC          E(Eh)            E(eV) 
   0   2.0000     -18.805037      -511.7111 
   1   2.0000     -18.746329      -510.1136 
   2   2.0000     -10.018464      -272.6163 
   3   2.0000      -9.902089      -269.4496 
   4   2.0000      -1.019620       -27.7453 
   5   2.0000      -0.932496       -25.3745 
   6   2.0000      -0.696224       -18.9452 
   7   2.0000      -0.558116       -15.1871 
   8   2.0000      -0.443127       -12.0581 
   9   2.0000      -0.429657       -11.6916 
  10   2.0000      -0.427368       -11.6293 
  11   2.0000      -0.370992       -10.0952 
  12   2.0000      -0.353353        -9.6152 
  13   2.0000      -0.353181        -9.6105 
  14   2.0000      -0.288013        -7.8372 
  15   2.0000      -0.239409        -6.5146 
  16   0.0000      -0.043064        -1.1718 
  17   0.0000      -0.007534        -0.2050 
  18   0.0000       0.020368         0.5543 
  19   0.0000       0.063876         1.7382 
  20   0.0000       0.067957         1.8492 
  21   0.0000       0.076063         2.0698 
  22   0.0000       0.109070         2.9679 
  23   0.0000       0.117814         3.2059 
  24   0.0000       0.134495         3.6598 
  25   0.0000       0.141577         3.8525 
  26   0.0000       0.147118         4.0033 
*Only the first 10 virtual orbitals were printed.

                    ********************************
                    * MULLIKEN POPULATION ANALYSIS *
                    ********************************

-----------------------
MULLIKEN ATOMIC CHARGES
-----------------------
   0 C :    0.328081
   1 C :   -0.115749
   2 O :   -0.370160
   3 O :   -0.277630
   4 H :    0.211407
   5 H :    0.084291
   6 H :    0.069879
   7 H :    0.069880
Sum of atomic charges:    0.0000000

--------------------------------
MULLIKEN REDUCED ORBITAL CHARGES
--------------------------------
  0 C s       :     3.116889  s :     3.116889
      pz      :     0.762693  p :     2.306879
      px      :     0.760782
      py      :     0.783403
      dz2     :     0.013176  d :     0.213840
      dxz     :     0.034205
      dyz     :     0.053236
      dx2y2   :     0.047401
      dxy     :     0.065822
      f0      :     0.002688  f :     0.030500
      f+1     :     0.001052
      f-1     :     0.000994
      f+2     :     0.004797
      f-2     :     0.003225
      f+3     :     0.012155
      f-3     :     0.005589
      g0      :     0.000118  g :     0.003811
      g+1     :     0.000291
      g-1     :     0.000503
      g+2     :     0.000261
      g-2     :     0.000271
      g+3     :     0.000103
      g-3     :     0.000480
      g+4     :     0.000796
      g-4     :     0.000986

  1 C s       :     3.341803  s :     3.341803
      pz      :     0.930386  p :     2.737260
      px      :     0.906807
      py      :     0.900067
      dz2     :     0.003084  d :     0.030610
      dxz     :     0.008409
      dyz     :     0.007161
      dx2y2   :     0.008070
      dxy     :     0.003887
      f0      :     0.000629  f :     0.005963
      f+1     :     0.000324
      f-1     :     0.001608
      f+2     :    -0.000378
      f-2     :     0.001149
      f+3     :     0.000996
      f-3     :     0.001635
      g0      :    -0.000014  g :     0.000113
      g+1     :     0.000032
      g-1     :    -0.000059
      g+2     :     0.000074
      g-2     :    -0.000011
      g+3     :     0.000008
      g-3     :     0.000006
      g+4     :     0.000070
      g-4     :     0.000006

  2 O s       :     3.801261  s :     3.801261
      pz      :     1.392166  p :     4.526055
      px      :     1.788675
      py      :     1.345214
      dz2     :     0.003341  d :     0.038909
      dxz     :     0.000573
      dyz     :     0.013666
      dx2y2   :     0.009649
      dxy     :     0.011679
      f0      :     0.000458  f :     0.003745
      f+1     :     0.000075
      f-1     :     0.000303
      f+2     :     0.000867
      f-2     :     0.000112
      f+3     :     0.001140
      f-3     :     0.000792
      g0      :     0.000010  g :     0.000189
      g+1     :     0.000001
      g-1     :     0.000039
      g+2     :     0.000020
      g-2     :     0.000009
      g+3     :     0.000005
      g-3     :     0.000025
      g+4     :     0.000038
      g-4     :     0.000044

  3 O s       :     3.762726  s :     3.762726
      pz      :     1.723723  p :     4.481617
      px      :     1.229442
      py      :     1.528452
      dz2     :     0.004222  d :     0.030471
      dxz     :     0.004985
      dyz     :     0.003523
      dx2y2   :     0.006918
      dxy     :     0.010824
      f0      :     0.000447  f :     0.002701
      f+1     :     0.000475
      f-1     :     0.000231
      f+2     :     0.000195
      f-2     :     0.000304
      f+3     :     0.000502
      f-3     :     0.000547
      g0      :     0.000008  g :     0.000115
      g+1     :     0.000013
      g-1     :     0.000005
      g+2     :     0.000009
      g-2     :     0.000010
      g+3     :     0.000001
      g-3     :     0.000012
      g+4     :     0.000027
      g-4     :     0.000030

  4 H s       :     0.693329  s :     0.693329
      pz      :     0.034635  p :     0.080559
      px      :     0.019200
      py      :     0.026725
      dz2     :     0.000379  d :     0.013204
      dxz     :     0.002676
      dyz     :     0.003901
      dx2y2   :     0.004035
      dxy     :     0.002214
      f0      :     0.000248  f :     0.001501
      f+1     :     0.000062
      f-1     :     0.000066
      f+2     :     0.000009
      f-2     :     0.000429
      f+3     :     0.000226
      f-3     :     0.000461

  5 H s       :     0.876668  s :     0.876668
      pz      :     0.015674  p :     0.033242
      px      :     0.005247
      py      :     0.012321
      dz2     :     0.000124  d :     0.005463
      dxz     :     0.002123
      dyz     :     0.000661
      dx2y2   :     0.001563
      dxy     :     0.000992
      f0      :     0.000068  f :     0.000335
      f+1     :     0.000002
      f-1     :     0.000002
      f+2     :     0.000041
      f-2     :     0.000081
      f+3     :     0.000142
      f-3     :    -0.000001

  6 H s       :     0.886810  s :     0.886810
      pz      :     0.009684  p :     0.037039
      px      :     0.015006
      py      :     0.012349
      dz2     :     0.001949  d :     0.005919
      dxz     :     0.001477
      dyz     :     0.000734
      dx2y2   :     0.000667
      dxy     :     0.001092
      f0      :     0.000131  f :     0.000352
      f+1     :     0.000039
      f-1     :     0.000011
      f+2     :     0.000035
      f-2     :     0.000095
      f+3     :     0.000024
      f-3     :     0.000017

  7 H s       :     0.886810  s :     0.886810
      pz      :     0.009684  p :     0.037039
      px      :     0.015006
      py      :     0.012349
      dz2     :     0.001949  d :     0.005919
      dxz     :     0.001477
      dyz     :     0.000734
      dx2y2   :     0.000667
      dxy     :     0.001092
      f0      :     0.000131  f :     0.000352
      f+1     :     0.000039
      f-1     :     0.000011
      f+2     :     0.000035
      f-2     :     0.000095
      f+3     :     0.000024
      f-3     :     0.000017



                     *******************************
                     * LOEWDIN POPULATION ANALYSIS *
                     *******************************

----------------------
LOEWDIN ATOMIC CHARGES
----------------------
   0 C :   -0.776796
   1 C :    0.223846
   2 O :    0.322340
   3 O :    0.687900
   4 H :   -0.311151
   5 H :   -0.050415
   6 H :   -0.047862
   7 H :   -0.047862

-------------------------------
LOEWDIN REDUCED ORBITAL CHARGES
-------------------------------
  0 C s       :     2.643306  s :     2.643306
      pz      :     0.701815  p :     2.625713
      px      :     0.878845
      py      :     1.045053
      dz2     :     0.084148  d :     1.124880
      dxz     :     0.125792
      dyz     :     0.194524
      dx2y2   :     0.316457
      dxy     :     0.403959
      f0      :     0.017530  f :     0.336911
      f+1     :     0.015453
      f-1     :     0.022111
      f+2     :     0.048920
      f-2     :     0.029528
      f+3     :     0.129387
      f-3     :     0.073983
      g0      :     0.001415  g :     0.045987
      g+1     :     0.003842
      g-1     :     0.007937
      g+2     :     0.004119
      g-2     :     0.005005
      g+3     :     0.000701
      g-3     :     0.003609
      g+4     :     0.009121
      g-4     :     0.010237

  1 C s       :     2.560848  s :     2.560848
      pz      :     0.940303  p :     2.800817
      px      :     0.928566
      py      :     0.931948
      dz2     :     0.061142  d :     0.338724
      dxz     :     0.021686
      dyz     :     0.088292
      dx2y2   :     0.075299
      dxy     :     0.092305
      f0      :     0.004946  f :     0.071685
      f+1     :     0.008728
      f-1     :     0.011888
      f+2     :     0.007482
      f-2     :     0.008288
      f+3     :     0.013939
      f-3     :     0.016414
      g0      :     0.000182  g :     0.004080
      g+1     :     0.000344
      g-1     :     0.000384
      g+2     :     0.000545
      g-2     :     0.000302
      g+3     :     0.000297
      g-3     :     0.000329
      g+4     :     0.000536
      g-4     :     0.001160

  2 O s       :     3.273545  s :     3.273545
      pz      :     1.262669  p :     4.285604
      px      :     1.532052
      py      :     1.490884
      dz2     :     0.010790  d :     0.095998
      dxz     :     0.001233
      dyz     :     0.019756
      dx2y2   :     0.032590
      dxy     :     0.031629
      f0      :     0.001886  f :     0.021298
      f+1     :     0.000594
      f-1     :     0.002501
      f+2     :     0.002927
      f-2     :     0.000568
      f+3     :     0.007523
      f-3     :     0.005299
      g0      :     0.000056  g :     0.001215
      g+1     :     0.000004
      g-1     :     0.000165
      g+2     :     0.000117
      g-2     :     0.000084
      g+3     :     0.000026
      g-3     :     0.000101
      g+4     :     0.000270
      g-4     :     0.000392

  3 O s       :     3.056948  s :     3.056948
      pz      :     1.445722  p :     4.115729
      px      :     1.227043
      py      :     1.442964
      dz2     :     0.014758  d :     0.117833
      dxz     :     0.014817
      dyz     :     0.005461
      dx2y2   :     0.033032
      dxy     :     0.049765
      f0      :     0.001563  f :     0.020874
      f+1     :     0.002060
      f-1     :     0.000907
      f+2     :     0.000709
      f-2     :     0.002339
      f+3     :     0.007871
      f-3     :     0.005425
      g0      :     0.000042  g :     0.000715
      g+1     :     0.000096
      g-1     :     0.000053
      g+2     :     0.000090
      g-2     :     0.000097
      g+3     :     0.000037
      g-3     :     0.000077
      g+4     :     0.000198
      g-4     :     0.000023

  4 H s       :     0.677376  s :     0.677376
      pz      :     0.109120  p :     0.407639
      px      :     0.118163
      py      :     0.180355
      dz2     :     0.015395  d :     0.188152
      dxz     :     0.026762
      dyz     :     0.037769
      dx2y2   :     0.064170
      dxy     :     0.044054
      f0      :     0.005550  f :     0.037985
      f+1     :     0.001953
      f-1     :     0.002259
      f+2     :     0.000235
      f-2     :     0.009285
      f+3     :     0.008443
      f-3     :     0.010260

  5 H s       :     0.780696  s :     0.780696
      pz      :     0.054302  p :     0.192405
      px      :     0.080876
      py      :     0.057226
      dz2     :     0.004508  d :     0.067759
      dxz     :     0.018285
      dyz     :     0.006881
      dx2y2   :     0.020564
      dxy     :     0.017521
      f0      :     0.001228  f :     0.009555
      f+1     :     0.001010
      f-1     :     0.000319
      f+2     :     0.000542
      f-2     :     0.001570
      f+3     :     0.002978
      f-3     :     0.001908

  6 H s       :     0.773218  s :     0.773218
      pz      :     0.077077  p :     0.197514
      px      :     0.052290
      py      :     0.068147
      dz2     :     0.022299  d :     0.067711
      dxz     :     0.013595
      dyz     :     0.014973
      dx2y2   :     0.006453
      dxy     :     0.010391
      f0      :     0.002580  f :     0.009419
      f+1     :     0.000743
      f-1     :     0.001945
      f+2     :     0.001438
      f-2     :     0.001938
      f+3     :     0.000487
      f-3     :     0.000287

  7 H s       :     0.773218  s :     0.773218
      pz      :     0.077077  p :     0.197514
      px      :     0.052290
      py      :     0.068147
      dz2     :     0.022299  d :     0.067711
      dxz     :     0.013595
      dyz     :     0.014973
      dx2y2   :     0.006453
      dxy     :     0.010391
      f0      :     0.002580  f :     0.009419
      f+1     :     0.000743
      f-1     :     0.001945
      f+2     :     0.001438
      f-2     :     0.001938
      f+3     :     0.000487
      f-3     :     0.000287



                      *****************************
                      * MAYER POPULATION ANALYSIS *
                      *****************************

  NA   - Mulliken gross atomic population
  ZA   - Total nuclear charge
  QA   - Mulliken gross atomic charge
  VA   - Mayer's total valence
  BVA  - Mayer's bonded valence
  FA   - Mayer's free valence

  ATOM       NA         ZA         QA         VA         BVA        FA
  0 C      5.6719     6.0000     0.3281     4.2079     4.2079     0.0000
  1 C      6.1157     6.0000    -0.1157     3.7708     3.7708     0.0000
  2 O      8.3702     8.0000    -0.3702     2.1607     2.1607     0.0000
  3 O      8.2776     8.0000    -0.2776     2.2336     2.2336     0.0000
  4 H      0.7886     1.0000     0.2114     1.0502     1.0502    -0.0000
  5 H      0.9157     1.0000     0.0843     1.0114     1.0114    -0.0000
  6 H      0.9301     1.0000     0.0699     1.0067     1.0067     0.0000
  7 H      0.9301     1.0000     0.0699     1.0067     1.0067     0.0000

  Mayer bond orders larger than 0.100000
B(  0-C ,  1-C ) :   0.9270 B(  0-C ,  2-O ) :   2.0112 B(  0-C ,  3-O ) :   1.1994 
B(  1-C ,  5-H ) :   0.9571 B(  1-C ,  6-H ) :   0.9320 B(  1-C ,  7-H ) :   0.9320 
B(  3-O ,  4-H ) :   0.9656 

-------
TIMINGS
-------

Total SCF time: 0 days 0 hours 0 min 35 sec 

Total time                  ....      35.557 sec
Sum of individual times     ....      33.660 sec  ( 94.7%)

SCF preparation             ....       0.119 sec  (  0.3%)
Fock matrix formation       ....      32.826 sec  ( 92.3%)
  Startup                   ....       0.023 sec  (  0.1% of F)
  Coulomb formation         ....      32.935 sec  (100.3% of F)
  XC integration            ....       1.186 sec  (  3.6% of F)
    XC Preparation          ....       0.000 sec  (  0.0% of XC)
    Basis function eval.    ....       0.165 sec  ( 13.9% of XC)
    Density eval.           ....       0.188 sec  ( 15.8% of XC)
    XC-Functional eval.     ....       0.018 sec  (  1.5% of XC)
    XC-Potential eval.      ....       0.485 sec  ( 40.9% of XC)
Diagonalization             ....       0.000 sec  (  0.0%)
Density matrix formation    ....       0.097 sec  (  0.3%)
Total Energy calculation    ....       0.027 sec  (  0.1%)
Population analysis         ....       0.022 sec  (  0.1%)
Orbital Transformation      ....       0.052 sec  (  0.1%)
Orbital Orthonormalization  ....       0.000 sec  (  0.0%)
DIIS solution               ....       0.392 sec  (  1.1%)
SOSCF solution              ....       0.124 sec  (  0.3%)
Finished LeanSCF after  35.6 sec

Maximum memory used throughout the entire LEANSCF-calculation: 35.0 MB


           ************************************************************
           *        Program running with 8 parallel MPI-processes     *
           *              working on a common directory               *
           ************************************************************

------------------------------------------------------------------------------
                         ORCA PROPERTY INTEGRAL CALCULATIONS
------------------------------------------------------------------------------

GBWName                                   ... /cluster/projects/nn14654k/ylvaos/basis_set_n_funcs/functionals/pbe/CH3COOH/inp/CH3COOH_pbe_def2qzvp.gbw
Number of atoms                           ...      8
Number of basis functions                 ...    348
Max core memory                           ...   4096 MB

Dipole integrals                          ... YES
Quadrupole integrals                      ... YES
Linear momentum integrals                 ...  NO
Angular momentum integrals                ...  NO
Higher moments length integrals           ...  NO
Higher moments velocity integrals         ...  NO
Kinetic energy integrals                  ...  NO
GIAO right hand sides                     ...  NO
GIAO dipole derivative integrals          ...  NO
SOC integrals                             ...  NO
EPR diamagnetic integrals (GIAO)          ...  NO
EPR gauge integrals                       ...  NO
Field gradient integrals                  ...  NO (   0 nuclei)
Spin-dipole/Fermi contact integrals       ...  NO (   0 nuclei)
Contact density integrals                 ...  NO (   0 nuclei)
Nucleus-orbit integrals                   ...  NO (   0 nuclei)
Geometric perturbations                   ...  NO (   8 nuclei)

Choice of electric origin   ... Center of mass
Position of electric origin ... ( -0.0657,  0.0975,  0.0000) 
Choice of magnetic origin   ... GIAO
Position of magnetic origin ... (  0.0000,  0.0000,  0.0000) 

Calculating integrals                     ... Electric Dipole (Length)     done (  0.0 sec)
Calculating integrals                     ... Electric Quadrupole (Length) done (  0.0 sec)

Property integrals calculated in   0.0 sec

Maximum memory used throughout the entire PROPINT-calculation: 22.2 MB
------------------------------------------------------------------------------
                           ORCA ORBITAL LOCALIZATION
------------------------------------------------------------------------------

Input orbitals are from                  ... /cluster/projects/nn14654k/ylvaos/basis_set_n_funcs/functionals/pbe/CH3COOH/inp/CH3COOH_pbe_def2qzvp.gbw
Output orbitals are to                   ... /cluster/projects/nn14654k/ylvaos/basis_set_n_funcs/functionals/pbe/CH3COOH/inp/CH3COOH_pbe_def2qzvp.loc
Max. number of iterations                ... 128
Localizations seeded randomly            ... on
Convergence tolerance                    ... 1.000e-06
Threshold for strong local MOs           ... 9.500e-01
Threshold for bond MOs                   ... 8.500e-01
Operator                                 ... 0
Orbital range for localization           ... 4 to 15
Localization criterion                   ... NEW-BOYS
Doing the dipole integrals               ... o.k.
Initial value of the localization sum :    58.208512
ITERATION   0 : L=   79.1611375891 DL=  2.10e+01 (AVERGE_DL)=    0.5634394539 
ITERATION   1 : L=   80.8839775543 DL=  1.72e+00 (AVERGE_DL)=    0.1615661964 
ITERATION   2 : L=   80.9010962269 DL=  1.71e-02 (AVERGE_DL)=    0.0161050870 
ITERATION   3 : L=   80.9035463694 DL=  2.45e-03 (AVERGE_DL)=    0.0060928952 
ITERATION   4 : L=   80.9056010708 DL=  2.05e-03 (AVERGE_DL)=    0.0055795914 
ITERATION   5 : L=   80.9074884940 DL=  1.89e-03 (AVERGE_DL)=    0.0053476462 
ITERATION   6 : L=   80.9091093941 DL=  1.62e-03 (AVERGE_DL)=    0.0049557132 
ITERATION   7 : L=   80.9103758939 DL=  1.27e-03 (AVERGE_DL)=    0.0043805696 
ITERATION   8 : L=   80.9112951742 DL=  9.19e-04 (AVERGE_DL)=    0.0037320893 
ITERATION   9 : L=   80.9119272414 DL=  6.32e-04 (AVERGE_DL)=    0.0030946364 
ITERATION  10 : L=   80.9123459278 DL=  4.19e-04 (AVERGE_DL)=    0.0025186771 
ITERATION  11 : L=   80.9126164966 DL=  2.71e-04 (AVERGE_DL)=    0.0020247288 
ITERATION  12 : L=   80.9127885814 DL=  1.72e-04 (AVERGE_DL)=    0.0016147278 
ITERATION  13 : L=   80.9128969355 DL=  1.08e-04 (AVERGE_DL)=    0.0012812995 
ITERATION  14 : L=   80.9129647360 DL=  6.78e-05 (AVERGE_DL)=    0.0010135480 
ITERATION  15 : L=   80.9130070004 DL=  4.23e-05 (AVERGE_DL)=    0.0008002316 
ITERATION  16 : L=   80.9130332858 DL=  2.63e-05 (AVERGE_DL)=    0.0006310813 
ITERATION  17 : L=   80.9130496116 DL=  1.63e-05 (AVERGE_DL)=    0.0004973533 
ITERATION  18 : L=   80.9130597437 DL=  1.01e-05 (AVERGE_DL)=    0.0003918128 
ITERATION  19 : L=   80.9130660292 DL=  6.29e-06 (AVERGE_DL)=    0.0003085998 
ITERATION  20 : L=   80.9130699273 DL=  3.90e-06 (AVERGE_DL)=    0.0002430291 
ITERATION  21 : L=   80.9130723449 DL=  2.42e-06 (AVERGE_DL)=    0.0001913897 
ITERATION  22 : L=   80.9130738438 DL=  1.50e-06 (AVERGE_DL)=    0.0001506975 
ITERATION  23 : L=   80.9130747733 DL=  9.30e-07 (AVERGE_DL)=    0.0001186779 
LOCALIZATION SUM CONVERGED


--------------------------------------------------------------------------------
                    LOCALIZED MOLECULAR ORBITAL COMPOSITIONS
--------------------------------------------------------------------------------

The Mulliken populations for each LMO on each atom are computed
The LMO`s will be ordered according to atom index and type
  (A) Strongly localized MO`s have populations of >=0.950 on one atom
  (B) Two center bond orbitals have populations of >=0.850 on two atoms
  (C) Other MO`s are considered to be `delocalized`

FOUND  -   1 strongly local MO`s
       -  11 two center bond MO`s
       -   0 significantly delocalized MO`s

Rather strongly localized orbitals:
MO   4:   3O  -   0.960779
Bond-like localized orbitals:
MO  15:   7H  -   0.485409  and   1C  -   0.519548
MO  14:   6H  -   0.485401  and   1C  -   0.519529
MO  13:   5H  -   0.474255  and   1C  -   0.550770
MO  12:   4H  -   0.382087  and   3O  -   0.627198
MO  11:   3O  -   0.714725  and   0C  -   0.317039
MO  10:   3O  -   0.872730  and   0C  -   0.118044
MO   9:   2O  -   0.658765  and   0C  -   0.352031
MO   8:   2O  -   0.658258  and   0C  -   0.352806
MO   7:   2O  -   0.942482  and   0C  -   0.054391
MO   6:   2O  -   0.944670  and   0C  -   0.061166
MO   5:   1C  -   0.499674  and   0C  -   0.548187
Localized MO's were stored in: /cluster/projects/nn14654k/ylvaos/basis_set_n_funcs/functionals/pbe/CH3COOH/inp/CH3COOH_pbe_def2qzvp.loc

-------------------------   --------------------
FINAL SINGLE POINT ENERGY      -228.944538278352
-------------------------   --------------------



           ************************************************************
           *        Program running with 8 parallel MPI-processes     *
           *              working on a common directory               *
           ************************************************************

------------------------------------------------------------------------------
                              ORCA PROPERTY CALCULATIONS
------------------------------------------------------------------------------

GBWName                                 ... /cluster/projects/nn14654k/ylvaos/basis_set_n_funcs/functionals/pbe/CH3COOH/inp/CH3COOH_pbe_def2qzvp.gbw
Number of atoms                         ...      8
Number of basis functions               ...    348
Max core memory                         ...   4096 MB

Electric properties:
Dipole moment                           ... YES
Quadrupole moment                       ... YES
Static polarizability (Dipole/Dipole)   ...  NO
Static polarizability (Dipole/Quad.)    ...  NO
Static polarizability (Quad./Quad.)     ...  NO
Static polarizability (Velocity)        ...  NO
Static hyperpolarizability              ...  NO

Atomic electric properties:
Dipole moment                           ...  NO
Quadrupole moment                       ...  NO
Static polarizability                   ...  NO

Choice of electric origin               ... Center of mass
Position of electric origin             ...    -0.065707     0.097461     0.000000

General magnetic properties:
Magnetizability                         ...  NO

EPR properties:
g-Tensor (aka g-matrix)                 ...  NO
Zero-Field splitting spin-orbit         ...  NO
Zero-field splitting spin-spin          ...  NO
Hyperfine couplings                     ...  NO (   0 nuclei)
Quadrupole couplings                    ...  NO (   0 nuclei)
Contact density                         ...  NO (   0 nuclei)

NMR properties:
Chemical shifts                         ...  NO (   0 nuclei)
Spin-rotation constants                 ...  NO (   0 nuclei)
Spin-spin couplings                     ...  NO (   0 nuclei,    0 pairs)

Choice of magnetic origin               ... GIAO
Position of magnetic origin             ...     0.000000     0.000000     0.000000

Properties with geometric perturbations:
SCF Hessian                             ...  NO
IR spectrum                             ...  NO
VCD spectrum                            ...  NO
X-ray spectroscopy properties:
SCF XES/XAS/RIXS spectra                ...  NO

SCF SOC stabilization energy            ...  NO
Diagonal Born-Oppenheimer correction    ...  NO

-------------
DIPOLE MOMENT
-------------

Method             : SCF
Type of density    : Electron Density
Multiplicity       :   1
Irrep              :   0
Energy             :  -228.9445382783522405 Eh
Basis              : AO
                                X                 Y                 Z
Electronic contribution:     -2.213770132       2.439037151      -0.000000003
Nuclear contribution   :      2.102617427      -3.118765285       0.000000000
                        -----------------------------------------
Total Dipole Moment    :     -0.111152705      -0.679728133      -0.000000003
                        -----------------------------------------
Magnitude (a.u.)       :      0.688756313
Magnitude (Debye)      :      1.750679420



--------------------
Rotational spectrum 
--------------------
 
Rotational constants in cm-1:             0.373252             0.316126             0.176788 
Rotational constants in MHz :         11189.819630          9477.229268          5299.974115 

Dipole components along the rotational axes: 
x,y,z [a.u.] :    -0.357022    -0.589000    -0.000000 
x,y,z [Debye]:    -0.907478    -1.497118    -0.000000 

 

Dipole moment calculation done in   0.0 sec 

-----------------
QUADRUPOLE MOMENT
-----------------

Method             : SCF
Type of density    : Electron Density
Multiplicity       :   1
Irrep              :   0
Energy             :  -228.9445382783522405 Eh
Basis              : AO

                XX              YY              ZZ              XY              XZ              YZ
  NUC      103.447904006    93.335807526     5.552847104   -15.402641721     0.000000000     0.000000000
  EL      -118.588747509  -113.728352765   -22.930802360    12.777337352    -0.000000001    -0.000000001
  TOT      -15.140843503   -20.392545239   -17.377955256    -2.625304368    -0.000000001    -0.000000001 (a.u.)
           -20.364952328   -27.428670772   -23.373944145    -3.531124161    -0.000000002    -0.000000001 (Buckingham)

diagonalized tensor:
           -21.479821868   -17.377955256   -14.053566874 (a.u.)
           -28.891095022   -23.373944145   -18.902528077 (Buckingham)
           -15.505717822     1.045734810    14.459983012 (traceless form in Buckingham)

             0.382635357    -0.000000000     0.923899445
             0.923899445     0.000000000    -0.382635357
             0.000000000    -1.000000000    -0.000000000
        
Isotropic quadrupole :   -17.637114666

Quadrupole moment calculation done in   0.0 sec (  0.0 sec for integrals)

Maximum memory used throughout the entire PROP-calculation: 18.2 MB

--------------------------------
SUGGESTED CITATIONS FOR THIS RUN
--------------------------------

Below you find a list of papers that are relevant to this ORCA run
We neither can nor want to force you to cite these papers, but we appreciate if you do
You receive ORCA, which is the product of decades of hard work by many enthusiastic individuals, for free
The only thing we kindly ask in return is that you cite our papers,
We deeply appreciate it, if you show your appreciation for ORCA by not just citing the generic ORCA reference.

Please note that relegating all ORCA citations to the supporting information does *not* help us.
SI sections are not indexed - citations you put there will not count into any citation statistics
But we need these citations in order to attract the funding resources that allow us to do what we are doing

Therefore, if you are a happy ORCA user, please consider citing a few of the papers listed below in the main body of your paper

In addition to the list printed below, the program has created the file /cluster/projects/nn14654k/ylvaos/basis_set_n_funcs/functionals/pbe/CH3COOH/inp/CH3COOH_pbe_def2qzvp.bibtex that contains the list in bibtex format
You can import this file easily into all common literature databanks and citation aid programs

It goes without saying that in many instances, there are alternative algorithms to achieve similar
results as the ones you have gotten from ORCA. It is, of course, also the case that in some instances
ORCA just re-implements algorithms worked out by others. We are fully aware of that and we are also
fully appreciative of our colleagues work. Hence this citation list should not be read as indicating
that the listed papers, which are focused on our own work, are the only ones worth citing. It simply
meant to make it easier for users to cite ORCA specific papers. It is not a substitute for doing your
own literature research and citing the relevant literature in a scientifically appropriate manner.

List of essential papers. We consider these as the minimum necessary citations

  1. Neese, F.
     Software update: the ORCA program system, version 6.0
     WIRES Comput. Molec. Sci. 2025 15(1), e70019
     doi.org/10.1002/wcms.70019

List of papers to cite with high priority. The work reported in these papers was absolutely
necessary for this run to complete.
Our perspective: the developers of density functionals and basis sets usually get cited in chemistry papers
Good! But without the algorithms to do something with them, the functionals or basis sets would not do anything.
Hence, in our opinion, the algorithm design and method developments papers are equally worthy of getting cited

  1. Neese, F.
     The SHARK Integral Generation and Digestion System
     J. Comp. Chem. 2022 44(3), 381
     doi.org/10.1002/jcc.26942

List of suggested additional citations. These are papers that are important in the 'surrounding' of 
of this run, or papers that preceded the highly important papers. If you like your results we are grateful for a citation.

  1. Neese, F.
     The ORCA program system
     WIRES Comput. Molec. Sci. 2012 2(1), 73-78
     doi.org/10.1002/wcms.81
  2. Neese, F.
     Software update: the ORCA program system, version 4.0
     WIRES Comput. Molec. Sci. 2018 8(1), 1-6
     doi.org/10.1002/wcms.1327
  3. Neese, F.; Wennmohs, F.; Becker, U.; Riplinger, C.
     The ORCA quantum chemistry program package
     J. Chem. Phys. 2020 152(22), 224108
     doi.org/10.1063/5.0004608
  4. Neese, F.
     Software update: The ORCA program system—Version 5.0
     WIRES Comput. Molec. Sci. 2022 12(1), e1606
     doi.org/10.1002/wcms.1606

List of optional additional citations

  1. Neese, F.
     Approximate second-order SCF convergence for spin unrestricted wavefunctions
     Chem. Phys. Lett. 2000 325(1-3), 93-98
     doi.org/10.1016/s0009-2614(00)00662-x

Timings for individual modules:

Sum of individual times          ...       37.452 sec (=   0.624 min)
Startup calculation              ...        0.600 sec (=   0.010 min)   1.6 %
SCF iterations                   ...       36.204 sec (=   0.603 min)  96.7 %
Property integrals               ...        0.331 sec (=   0.006 min)   0.9 %
Property calculations            ...        0.306 sec (=   0.005 min)   0.8 %
Orbital localization             ...        0.010 sec (=   0.000 min)   0.0 %
                             ****ORCA TERMINATED NORMALLY****
TOTAL RUN TIME: 0 days 0 hours 0 minutes 38 seconds 237 msec
