
                                 *****************
                                 * O   R   C   A *
                                 *****************

                                            #,                                       
                                            ###                                      
                                            ####                                     
                                            #####                                    
                                            ######                                   
                                           ########,                                 
                                     ,,################,,,,,                         
                               ,,#################################,,                 
                          ,,##########################################,,             
                       ,#########################################, ''#####,          
                    ,#############################################,,   '####,        
                  ,##################################################,,,,####,       
                ,###########''''           ''''###############################       
              ,#####''   ,,,,##########,,,,          '''####'''          '####       
            ,##' ,,,,###########################,,,                        '##       
           ' ,,###''''                  '''############,,,                           
         ,,##''                                '''############,,,,        ,,,,,,###''
      ,#''                                            '''#######################'''  
     '                                                          ''''####''''         
             ,#######,   #######,   ,#######,      ##                                
            ,#'     '#,  ##    ##  ,#'     '#,    #''#        ,####,    ,#,          
            ##       ##  ##   ,#'  ##            #'  '#       #'       ,# #          
            ##       ##  #######   ##           ,######,      #####,      #          
            '#,     ,#'  ##    ##  '#,     ,#' ,#      #,     #,   #      #          
             '#######'   ##     ##  '#######'  #'      '#     '####' #    #          



                #########################################################
                #                        -***-                          #
                #          Department of theory and spectroscopy        #
                #                                                       #
                #                      Frank Neese                      #
                #                                                       #
                #     Directorship, Architecture, Infrastructure        #
                #                    SHARK, DRIVERS                     #
                #        Core code/Algorithms in most modules           #
                #                                                       #
                #        Max Planck Institute fuer Kohlenforschung      #
                #                Kaiser Wilhelm Platz 1                 #
                #                 D-45470 Muelheim/Ruhr                 #
                #                      Germany                          #
                #                                                       #
                #                  All rights reserved                  #
                #                        -***-                          #
                #########################################################


                         Program Version 6.1.1  -  RELEASE   -
                                (GIT: $487d211c$)
                          ($2025-11-21 10:33:24 +0100$)


 With contributions from (in alphabetic order):
[Max-Planck-Institut fuer Kohlenforschung]                               
  Daniel Aravena         : Magnetic Suceptibility                        
  Michael Atanasov       : Ab Initio Ligand Field Theory (pilot matlab implementation)
  Alexander A. Auer      : GIAO ZORA, VPT2 properties, NMR spectrum      
  Ute Becker             : All parallelization in ORCA, NUMFREQ, NUMCALC 
  Giovanni Bistoni       : ED, misc. LED, open-shell LED, HFLD           
  Dmytro Bykov           : pre 5.0 version of the SCF Hessian            
  Marcos Casanova-Páez   : Triplet and SCS-CIS(D). UHF-(DLPNO)-IP/EA/STEOM-CCSD. UHF-CVS-IP/STEOM-CCSD   
  Vijay G. Chilkuri      : MRCI spin determinant printing, contributions to CSF-ICE 
  Pauline Colinet        : FMM embedding                                 
  Dipayan Datta          : RHF DLPNO-CCSD density                        
  Achintya Kumar Dutta   : EOM-CC, STEOM-CC                              
  Nicolas Foglia         : Exact transition moments, OPA infrastructure, MCD improvements    
  Dmitry Ganyushin       : Spin-Orbit,Spin-Spin,Magnetic field MRCI      
  Miquel Garcia-Rates    : C-PCM and meta-GGA Hessian, CCSD/C-PCM, Gaussian charge scheme 
  Tiago L. C. Gouveia    : GS-ROHF, GS-ROCIS                             
  Yang Guo               : DLPNO-NEVPT2, F12-NEVPT2, CIM, IAO-localization        
  Andreas Hansen         : Spin unrestricted coupled pair/coupled cluster methods 
  Ingolf Harden          : AUTO-CI MPn and infrastructure                
  Benjamin Helmich-Paris : MC-RPA, TRAH-(SCF,CASSCF), AVAS, COSX integrals, SCF dyn. polar., MC-PDFT, srDFT 
  Lee Huntington         : MR-EOM, pCC                                   
  Robert Izsak           : Overlap fitted RIJCOSX, COSX-SCS-MP3, EOM     
  Riya Kayal             : Wick's Theorem for AUTO-CI, AUTO-CI UHF-CCSDT 
  Emily Kempfer          : AUTO-CI RHF CISDT and CCSDT, approximate NEVPT4
  Christian Kollmar      : KDIIS, OOCD, Brueckner-CCSD(T), CCSD density, CASPT2, CASPT2-K, improved NEVPT2 
  Axel Koslowski         : Symmetry handling                             
  Simone Kossmann        : meta-GGA functionals, TD-DFT gradient, OOMP2, (MP2 Hessian; deprecated post 5.0) 
  Lucas Lang             : DCDCAS, Hyperfine gauge corrections, ICE-SOC+SSC
  Marvin Lechner         : AUTO-CI (C++ implementation), FIC-MRCC        
  Spencer Leger          : CASSCF response                               
  Dagmar Lenk            : GEPOL surface, SMD, ORCA-2-JSON               
  Dimitrios Liakos       : Extrapolation schemes; Compound Job, Property file
  Dimitrios Manganas     : Further ROCIS development; embedding schemes. LFT, Crystal Embedding 
  Dimitrios Pantazis     : SARC Basis sets                               
  Anastasios Papadopoulos: AUTO-CI, single reference methods and gradients 
  Taras Petrenko         : pre 6.0 DFT Hessian and TD-DFT gradient,  ECA, NRVS 
  Petra Pikulova         : Analytic Raman intensities                    
  Peter Pinski           : DLPNO-MP2, DLPNO-MP2 Gradient                 
  Shashank Vittal Rao    : ES-AILFT, MagRelax                            
  Christoph Reimann      : Effective Core Potentials                     
  Marius Retegan         : Local ZFS, SOC                                
  Christoph Riplinger    : Optimizer, TS searches, QM/MM, DLPNO-CCSD(T), (RO)-DLPNO pert. Triples 
  Michael Roemelt        : Original ROCIS implementation, recursive CI coupling coefficients
  Masaaki Saitow         : Open-shell DLPNO-CCSD energy and density      
  Barbara Sandhoefer     : DKH picture change effects                    
  Yorick L. A. Schmerwitz: GMF and freeze-and-release deltaSCF, NEB S-IDPP initial path                    
  Kantharuban Sivalingam : CASSCF convergence/infrastructure, NEVPT2, NEVPT3, NEVPT4(SD), FIC-MRCI and CEPA variants
  Bernardo de Souza      : ESD, SOC TD-DFT                               
  Georgi L. Stoychev     : AutoAux, RI-MP2 NMR, DLPNO-MP2 response, X2C  
  Van Anh Tran           : RI-MP2 g-tensors                              
  Willem Van den Heuvel  : Paramagnetic NMR                              
  Zikuan Wang            : NOTCH, Electric field optimization            
  Frank Wennmohs         : Technical directorship and infrastructure     
  Hang Xu                : AUTO-CI-Response properties                   
                                                                         
[FACCTs GmbH]                                                            
  Markus Bursch, Nicolas Foglia, Miquel Garcia-Rates, Ingolf Harden, Hagen Neugebauer, Anastasios Papadopoulos, 
  Christoph Riplinger, Bernardo de Souza, Georgi L. Stoychev                                                    
                                                                 
  APM, various basis sets, CI-OPT, improved COSX, DLPNO-Multilevel,           
  DOCKER, DRACO, updates on ESD, Fragmentator, GOAT, IRC, LR-CPCM, L-BFGS, MBIS, meta-GGA TD-DFT gradient, ML-optimized integration grids, 
  MM, NACMEs, nearIR, NEB, NEB-TS, NL-DFT gradient (VV10), 2- and 3-layer-ONIOM, interface openCOSMO-RS, QMMM,   
  Crystal-QMMM, RESP, rigid body optimization, SF, symmetry and pop. for TD-DFT, various functionals, SOLVATOR                                   
                                                                         
[Other institutions]                                                     
  V. Asgeirsson          : NEB                                           
  Christoph Bannwarth    : sTDA-DFT, sTD-DFT, PBEh-3c, B97-3c, D3        
  Giovanni Bistoni       : ETS/NOCV, ADLD/ADEX, COVALED                  
  Martin Brehm           : Molecular dynamics                            
  Ronald Cardenas        : ETS/NOCV                                      
  Martina Colucci        : COVALED                                       
  Sebastian Ehlert       : rSCAN, r2SCAN, r2SCAN-3c, D4, dhf basis sets  
  Marvin Friede          : D4 for Fr, Ra, Ac-Lr                          
  Lars Goerigk           : TD-DFT with DH, B97 family of functionals     
  Stefan Grimme          : VdW corrections, initial TS optimization, DFT functionals, gCP, sTDA/sTD-DF 
  Waldemar Hujo          : DFT-NL                                        
  H. Jonsson             : NEB                                           
  Holger Kruse           : gCP                                           
  Marcel Mueller         : wB97X-3c, vDZP basis set                      
  Hagen Neugebauer       : wr2SCAN, Native XTB                           
  Gianluca Regni         : ADLD/ADEX                                     
  Tobias Risthaus        : pre 6.0 range-separated hybrid DFT and stability analysis
  Lukas Wittmann         : regularized MP2, r2SCAN double-hybrids, wr2SCAN        
                                                                         
We gratefully acknowledge several colleagues who have allowed us to      
interface, adapt or use parts of their codes:                            
  Ed Valeev, F. Pavosevic, A. Kumar             : LibInt (2-el integral package), F12 methods 
  Garnet Chan, S. Sharma, J. Yang, R. Olivares  : DMRG                   
  Ulf Ekstrom                                   : XCFun DFT Library      
  Mihaly Kallay                                 : mrcc  (arbitrary order and MRCC methods)
  Frank Weinhold                                : gennbo (NPA and NBO analysis)           
  Simon Mueller                                 : openCOSMO-RS                            
  Christopher J. Cramer and Donald G. Truhlar   : smd solvation model                     
  S Lehtola, MJT Oliveira, MAL Marques          : LibXC Library                           
  Liviu Ungur et al                             : ANISO software                          


 Your calculation uses the libint2 library for the computation of 2-el integrals
 For citations please refer to: http://libint.valeyev.net

 Your ORCA version has been built with support for libXC version: 7.0.0
 For citations please refer to: https://libxc.gitlab.io

 This ORCA versions uses:
   CBLAS   interface :  Fast vector & matrix operations
   LAPACKE interface :  Fast linear algebra routines
   SCALAPACK package :  Parallel linear algebra routines
   Shared memory     :  Shared parallel matrices
   BLAS/LAPACK       :  OpenBLAS 0.3.29  USE64BITINT DYNAMIC_ARCH NO_AFFINITY Cooperlake SINGLE_THREADED
        Core in use  :  Cooperlake
   Copyright (c) 2011-2014, The OpenBLAS Project


  ***********************************
  * Starting time: Wed May 20 12:33:45 2026
  * Host name:     c1-46
  * Process ID:    3838348
  * Working dir.:  /cluster/projects/nn14654k/ylvaos/basis_set_n_funcs/functionals/pbe/CH3COOH/out
  ***********************************

================================================================================

----- Orbital basis set information -----
Your calculation utilizes the basis: pc-4
   H, C-F              : F. Jensen, J. Chem. Phys. 115, 9113 (2001).
                         F. Jensen, J. Chem. Phys. 116, 7372 (2002).
                         F. Jensen, J. Chem. Phys. 117, 9234 (2002).
   Si-Cl               : F. Jensen, T. Helgaker, J. Chem. Phys. 121, 3463 (2004).
   He-B, Ne-Mg, Al, Ar : F. Jensen, J. Phys. Chem. A 111, 11198 (2007).
   K, Ca, Ga-Kr        : F. Jensen, J. Chem. Phys. 136, 094110 (2012).
   Sc-Zn               : F. Jensen, J. Chem. Phys. 138, 014107 (2013).

================================================================================
                                        WARNINGS
                       Please study these warnings very carefully!
================================================================================


WARNING: The basis set has functions with high angular momentum (Lmax>4).
         We might need to increase small grids for safety reasons and
         in general, DEFGRID3 is recommend for such cases.
  ===> : GRIDX1, TD-DFT and the CP-SCF AngGrids will be increased to at least 2


================================================================================
                                       INPUT FILE
================================================================================
NAME = /cluster/projects/nn14654k/ylvaos/basis_set_n_funcs/functionals/pbe/CH3COOH/inp/CH3COOH_pbe_pc4.inp
|  1> ! dft pc-4 TightSCF
|  2> %pal nprocs 8 end
|  3> 
|  4> %loc
|  5>   LocMet NewBoys
|  6>   Occ true
|  7> end
|  8> 
|  9> %method
| 10>   
| 11>   functional pbe
| 12> end
| 13> 
| 14> %elprop
| 15>   Dipole true
| 16>   Quadrupole true
| 17> end
| 18> 
| 19> * xyz 0 1
| 20> C    0.000000000000   0.154560000000   0.000000000000
| 21> C    1.073776000000  -0.892748000000   0.000000000000
| 22> O    0.166384000000   1.360084000000   0.000000000000
| 23> O   -1.236449000000  -0.415036000000   0.000000000000
| 24> H   -1.867646000000   0.333582000000   0.000000000000
| 25> H    2.048189000000  -0.408135000000   0.000000000000
| 26> H    0.968661000000  -1.528353000000   0.881747000000
| 27> H    0.968661000000  -1.528353000000  -0.881747000000
| 28> *
| 29> 
| 30> 
| 31>                          ****END OF INPUT****
================================================================================

                       ****************************
                       * Single Point Calculation *
                       ****************************

---------------------------------
CARTESIAN COORDINATES (ANGSTROEM)
---------------------------------
  C      0.000000    0.154560    0.000000
  C      1.073776   -0.892748    0.000000
  O      0.166384    1.360084    0.000000
  O     -1.236449   -0.415036    0.000000
  H     -1.867646    0.333582    0.000000
  H      2.048189   -0.408135    0.000000
  H      0.968661   -1.528353    0.881747
  H      0.968661   -1.528353   -0.881747

----------------------------
CARTESIAN COORDINATES (A.U.)
----------------------------
  NO LB      ZA    FRAG     MASS         X           Y           Z
   0 C     6.0000    0    12.011    0.000000    0.292076    0.000000
   1 C     6.0000    0    12.011    2.029143   -1.687049    0.000000
   2 O     8.0000    0    15.999    0.314420    2.570186    0.000000
   3 O     8.0000    0    15.999   -2.336550   -0.784304    0.000000
   4 H     1.0000    0     1.008   -3.529339    0.630379    0.000000
   5 H     1.0000    0     1.008    3.870516   -0.771263    0.000000
   6 H     1.0000    0     1.008    1.830504   -2.888169    1.666260
   7 H     1.0000    0     1.008    1.830504   -2.888169   -1.666260

--------------------------------
INTERNAL COORDINATES (ANGSTROEM)
--------------------------------
 C      0   0   0     0.000000000000     0.00000000     0.00000000
 C      1   0   0     1.499949647502     0.00000000     0.00000000
 O      1   2   0     1.216951827326   126.42686784     0.00000000
 O      1   2   3     1.361339683113   110.98078396   180.00000000
 H      4   1   2     0.979203024267   105.40175469   180.00000085
 H      2   1   3     1.088269476893   109.27200725     0.00000000
 H      2   1   3     1.092025938913   109.72406365   120.93315147
 H      2   1   3     1.092025938913   109.72406365   239.06684853

---------------------------
INTERNAL COORDINATES (A.U.)
---------------------------
 C      0   0   0     0.000000000000     0.00000000     0.00000000
 C      1   0   0     2.834494048450     0.00000000     0.00000000
 O      1   2   0     2.299705671821   126.42686784     0.00000000
 O      1   2   3     2.572559176322   110.98078396   180.00000000
 H      4   1   2     1.850425545371   105.40175469   180.00000085
 H      2   1   3     2.056531271234   109.27200725     0.00000000
 H      2   1   3     2.063629955684   109.72406365   120.93315147
 H      2   1   3     2.063629955684   109.72406365   239.06684853

---------------------
BASIS SET INFORMATION
---------------------
There are 3 groups of distinct atoms

 Group   1 Type C   : 27s11p6d3f2g1h contracted to 8s7p6d3f2g1h pattern {1110111111/5111111/111111/111/11/1}
 Group   2 Type O   : 26s11p6d3f2g1h contracted to 8s7p6d3f2g1h pattern {119111111/5111111/111111/111/11/1}
 Group   3 Type H   : 11s6p3d2f1g contracted to 7s6p3d2f1g pattern {5111111/111111/111/11/1}

Atom   0C    basis set group =>   1
Atom   1C    basis set group =>   1
Atom   2O    basis set group =>   2
Atom   3O    basis set group =>   2
Atom   4H    basis set group =>   3
Atom   5H    basis set group =>   3
Atom   6H    basis set group =>   3
Atom   7H    basis set group =>   3


           ************************************************************
           *        Program running with 8 parallel MPI-processes     *
           *              working on a common directory               *
           ************************************************************
------------------------------------------------------------------------------
                             ORCA STARTUP CALCULATIONS
------------------------------------------------------------------------------
------------------------------------------------------------------------------
                   ___                                                        
                  /   \      - P O W E R E D   B Y -                         
                 /     \                                                     
                 |  |  |   _    _      __       _____    __    __             
                 |  |  |  | |  | |    /  \     |  _  \  |  |  /  |          
                  \  \/   | |  | |   /    \    | | | |  |  | /  /          
                 / \  \   | |__| |  /  /\  \   | |_| |  |  |/  /          
                |  |  |   |  __  | /  /__\  \  |    /   |      \           
                |  |  |   | |  | | |   __   |  |    \   |  |\   \          
                \     /   | |  | | |  |  |  |  | |\  \  |  | \   \       
                 \___/    |_|  |_| |__|  |__|  |_| \__\ |__|  \__/        
                                                                              
                      - O R C A' S   B I G   F R I E N D -                    
                                      &                                       
                       - I N T E G R A L  F E E D E R -                       
                                                                              
 v1 FN, 2020, v2 2021, v3 2022-2024                                           
------------------------------------------------------------------------------


----------------------
SHARK INTEGRAL PACKAGE
----------------------

Number of atoms                             ...      8
Number of basis functions                   ...    688
Number of shells                            ...    184
Maximum angular momentum                    ...      5
Integral batch strategy                     ... SHARK/LIBINT Hybrid
RI-J (if used) integral strategy            ... SPLIT-RIJ (Revised 2003 algorithm where possible)
Printlevel                                  ...      1
Contraction scheme used                     ... SEGMENTED contraction
Prescreening option                         ... SCHWARTZ
   Thresh                                   ... 2.500e-11
   Tcut                                     ... 2.500e-12
   Tpresel                                  ... 2.500e-12 
Coulomb Range Separation                    ... NOT USED
Exchange Range Separation                   ... NOT USED
Multipole approximations                    ... NOT USED
Finite Nucleus Model                        ... NOT USED
CABS basis                                  ... NOT available
Auxiliary Coulomb fitting basis             ... NOT available
Auxiliary J/K fitting basis                 ... NOT available
Auxiliary Correlation fitting basis         ... NOT available
Auxiliary 'external' fitting basis          ... NOT available

Checking pre-screening integrals            ... done (  0.0 sec) Dimension = 184
   => SHARK Basis and OBASIS are compatible. Storing Pre-screening
Shell pair information
Shell pair cut-off parameter TPreSel        ...   2.5e-12
Total number of shell pairs                 ...     17020
Shell pairs after pre-screening             ...     15451
Total number of primitive shell pairs       ...     42657
Primitive shell pairs kept                  ...     30717
          la=0 lb=0:   1626 shell pairs
          la=1 lb=0:   2779 shell pairs
          la=1 lb=1:   1235 shell pairs
          la=2 lb=0:   1975 shell pairs
          la=2 lb=1:   1709 shell pairs
          la=2 lb=2:    628 shell pairs
          la=3 lb=0:   1102 shell pairs
          la=3 lb=1:    957 shell pairs
          la=3 lb=2:    683 shell pairs
          la=3 lb=3:    201 shell pairs
          la=4 lb=0:    627 shell pairs
          la=4 lb=1:    555 shell pairs
          la=4 lb=2:    392 shell pairs
          la=4 lb=3:    224 shell pairs
          la=4 lb=4:     71 shell pairs
          la=5 lb=0:    223 shell pairs
          la=5 lb=1:    190 shell pairs
          la=5 lb=2:    143 shell pairs
          la=5 lb=3:     77 shell pairs
          la=5 lb=4:     44 shell pairs
          la=5 lb=5:     10 shell pairs

Checking whether 4 symmetric matrices of dimension 688 fit in memory
:Max Core in MB      =   4096.00
 MB in use           =     26.53
 MB left             =   4069.47
 MB needed           =      7.23
 Data fit in memory  = YES
Calculating Nuclear repulsion               ... done (  0.0 sec) ENN=    120.693288504615 Eh

Diagonalization of the overlap matrix:
Smallest eigenvalue                        ... 1.464e-06
Time for diagonalization                   ...    0.039 sec
Threshold for overlap eigenvalues          ... 1.000e-07
Number of eigenvalues below threshold      ... 0
Time for construction of square roots      ...    0.022 sec
Total time needed                          ...    0.065 sec

-------------------
DFT GRID GENERATION
-------------------

General Integration Accuracy     IntAcc      ... 4.388
Radial Grid Type                 RadialGrid  ... OptM3 with GC (2021)
Angular Grid (max. ang.)         AngularGrid ... 4 (Lebedev-302)
Angular grid pruning method      GridPruning ... 4 (adaptive)
Weight generation scheme         WeightScheme... mBecke (2022)
Basis function cutoff            BFCut       ... 1.0000e-11
Integration weight cutoff        WCut        ... 1.0000e-14
Partially contracted basis set               ... off
Rotationally invariant grid construction     ... off
Angular grids for H and He will be reduced by one unit
Diffuse basis detected: some atoms will have their outermost
                        angular grid increased by 1.
Core-polarized basis detected: some atoms will have their core
                               angular grid increased.

Total number of grid points                  ...    46512
Total number of batches                      ...      731
Average number of points per batch           ...       63
Average number of grid points per atom       ...     5814
Grids setup in   0.2 sec
Initializing property integral containers    ... done (  0.0 sec)

SHARK setup successfully completed in   0.8 seconds

Maximum memory used throughout the entire STARTUP-calculation: 55.6 MB


           ************************************************************
           *        Program running with 8 parallel MPI-processes     *
           *              working on a common directory               *
           ************************************************************
-------------------------------------------------------------------------------
                                 ORCA GUESS
                   Start orbitals & Density for SCF / CASSCF
-------------------------------------------------------------------------------

------------
SCF SETTINGS
------------
Hamiltonian:
 Density Functional     Method          .... DFT(GTOs)
 Exchange Functional    Exchange        .... PBE
   PBE kappa parameter   XKappa         ....  0.804000
   PBE mue parameter    XMuePBE         ....  0.219520
 Correlation Functional Correlation     .... PBE
   PBE beta parameter  CBetaPBE         ....  0.066725
 LDA part of GGA corr.  LDAOpt          .... PW91-LDA
 Gradients option       PostSCFGGA      .... off
   NL short-range parameter             ....  6.400000


General Settings:
 Integral files         IntName         .... /cluster/projects/nn14654k/ylvaos/basis_set_n_funcs/functionals/pbe/CH3COOH/inp/CH3COOH_pbe_pc4
 Hartree-Fock type      HFTyp           .... RHF
 Total Charge           Charge          ....    0
 Multiplicity           Mult            ....    1
 Number of Electrons    NEL             ....   32
 Basis Dimension        Dim             ....  688
 Nuclear Repulsion      ENuc            ....    120.6932885046 Eh

Convergence Acceleration:
 AO-DIIS                CNVDIIS         .... on
   Start iteration      DIISMaxIt       ....    12
   Startup error        DIISStart       ....  0.200000
   # of expansion vecs  DIISMaxEq       ....     5
   Bias factor          DIISBfac        ....   1.050
   Max. coefficient     DIISMaxC        ....  10.000
 MO-DIIS                CNVKDIIS        .... off
 Trust-Rad. Augm. Hess. CNVTRAH         .... auto
   Auto Start mean grad. ratio tolernc. ....  1.125000
   Auto Start start iteration           ....    50
   Auto Start num. interpolation iter.  ....    10
   Max. Number of Micro iterations      ....    24
   Max. Number of Macro iterations      .... Maxiter - #DIIS iter
   Number of Davidson start vectors     ....     2
   Converg. threshold    (grad. norm)   ....   1.000e-05
   Grad. Scal. Fac. for Micro threshold ....   0.100
   Minimum threshold for Micro iter.    ....   1.000e-02
   NR start threshold (gradient norm)   ....   1.000e-04
   Initial trust radius                 ....   0.400
   Minimum AH scaling param. (alpha)    ....   1.000
   Maximum AH scaling param. (alpha)    .... 1000.000
   Quad. conv. algorithm                .... NR
   White noise on init. David. guess    .... on
   Maximum white noise                  ....   0.010
   Pseudo random numbers                .... off
   Inactive MOs                         .... canonical
   Orbital update algorithm             .... Taylor
   Preconditioner                       .... Diag
   Full preconditioner red. dimension   ....   250
 SOSCF                 CNVSOSCF           .... on
   Start iteration     SOSCFMaxIt         ....   150
   Startup grad/error  SOSCFStart         ....  0.003300
   Hessian update      SOSCFHessUp        .... L-BFGS
   Autom. constraints  SOSCFAutoConstrain .... off
 Level Shifting         CNVShift        .... on
   Level shift para.    LevelShift      ....    0.2500
   Turn off err/grad.   ShiftErr        ....    0.0010
 Zerner damping         CNVZerner       .... off
 Static damping         CNVDamp         .... on
   Fraction old density DampFac         ....    0.7000
   Max. Damping (<1)    DampMax         ....    0.9800
   Min. Damping (>=0)   DampMin         ....    0.0000
   Turn off err/grad.   DampErr         ....    0.1000

SCF Procedure:
 Maximum # iterations   MaxIter         ....   125
 SCF integral mode      SCFMode         .... Direct
   Integral package                     .... SHARK and LIBINT hybrid scheme
 Reset frequency        DirectResetFreq ....    20
 Integral Threshold     Thresh          ....  2.500e-11 Eh
 Primitive CutOff       TCut            ....  2.500e-12 Eh

Convergence Tolerance:
 Convergence Check Mode ConvCheckMode   .... Total+1el-Energy
 Convergence forced     ConvForced      .... 0
 Energy Change          TolE            ....  1.000e-08 Eh
 1-El. energy change                    ....  1.000e-05 Eh
 Orbital Gradient       TolG            ....  1.000e-05
 Orbital Rotation angle TolX            ....  1.000e-05
 DIIS Error             TolErr          ....  5.000e-07

------------------------------
INITIAL GUESS: MODEL POTENTIAL
------------------------------
Loading Hartree-Fock densities                     ... done
Calculating cut-offs                               ... done
Initializing the effective Hamiltonian             ... done
Setting up the integral package (SHARK)            ... done
Starting the Coulomb interaction                   ... done (   0.1 sec)
Making the grid                                    ... done (   0.1 sec)
Mapping shells                                     ... done
Starting the XC term evaluation                    ... done (   0.1 sec)
  promolecular density results
     # of electrons  =     31.997033092
     EX              =    -27.693448013
     EC              =     -1.055036448
     EX+EC           =    -28.748484461
Transforming the Hamiltonian                       ... done (   0.0 sec)
Diagonalizing the Hamiltonian                      ... done (   0.0 sec)
Back transforming the eigenvectors                 ... done (   0.0 sec)
Now organizing SCF variables                       ... done
                      ------------------
                      INITIAL GUESS DONE (   0.4 sec)
                      ------------------
             **** ENERGY FILE WAS UPDATED (/cluster/projects/nn14654k/ylvaos/basis_set_n_funcs/functionals/pbe/CH3COOH/inp/CH3COOH_pbe_pc4.en.tmp) ****
Finished Guess after   0.8 sec
Maximum memory used throughout the entire GUESS-calculation: 54.1 MB


           ************************************************************
           *        Program running with 8 parallel MPI-processes     *
           *              working on a common directory               *
           ************************************************************

-------------------------------------------------------------------------------------------
                                      ORCA LEAN-SCF
                              memory conserving SCF solver
-------------------------------------------------------------------------------------------

----------------------------------------D-I-I-S--------------------------------------------
Iteration    Energy (Eh)           Delta-E    RMSDP     MaxDP     DIISErr   Damp  Time(sec)
-------------------------------------------------------------------------------------------
               ***  Starting incremental Fock matrix formation  ***
    1    -228.7729884414765138     0.00e+00  1.00e-03  2.70e-02  2.90e-01  0.700  39.1
    2    -228.8642023628972879    -9.12e-02  6.53e-04  1.52e-02  8.64e-02  0.700  36.4
                               ***Turning on AO-DIIS***
    3    -228.8883362828584609    -2.41e-02  3.28e-04  8.29e-03  2.97e-02  0.700  35.9
    4    -228.9058023220068208    -1.75e-02  6.37e-04  1.47e-02  2.11e-02  0.000  35.3
    5    -228.9474406981343009    -4.16e-02  1.32e-04  3.89e-03  1.33e-02  0.000  36.0
    6    -228.9479700486348861    -5.29e-04  6.95e-05  2.41e-03  4.20e-03  0.000  31.2
                              *** Initializing SOSCF ***
---------------------------------------S-O-S-C-F--------------------------------------
Iteration    Energy (Eh)           Delta-E    RMSDP     MaxDP     MaxGrad    Time(sec)
--------------------------------------------------------------------------------------
    7    -228.9480116363624802    -4.16e-05  3.81e-05  1.31e-03  2.03e-03    29.7
               *** Restarting incremental Fock matrix formation ***
    8    -228.9480215547476973    -9.92e-06  4.04e-05  1.44e-03  2.06e-04    38.6
    9    -228.9480189606820772     2.59e-06  1.28e-05  4.20e-04  7.14e-04    27.4
   10    -228.9480227165412884    -3.76e-06  1.42e-05  4.80e-04  1.48e-04    25.0
   11    -228.9480224437932065     2.73e-07  2.95e-06  7.31e-05  1.85e-04    24.9
   12    -228.9480228966743312    -4.53e-07  3.98e-06  1.31e-04  2.68e-05    22.0
   13    -228.9480228854780535     1.12e-08  1.52e-06  4.17e-05  2.59e-05    21.1
   14    -228.9480229113796099    -2.59e-08  1.97e-06  8.00e-05  2.13e-06    18.9
                  *** Gradient check signals convergence ***

               *****************************************************
               *                     SUCCESS                       *
               *           SCF CONVERGED AFTER  14 CYCLES          *
               *****************************************************

             **** ENERGY FILE WAS UPDATED (/cluster/projects/nn14654k/ylvaos/basis_set_n_funcs/functionals/pbe/CH3COOH/inp/CH3COOH_pbe_pc4.en.tmp) ****

----------------
TOTAL SCF ENERGY
----------------

Total Energy       :       -228.94802291119123 Eh           -6229.99243 eV

Components:
Nuclear Repulsion  :        120.69328850461517 Eh            3284.23135 eV
Electronic Energy  :       -349.64131141580640 Eh           -9514.22378 eV
One Electron Energy:       -551.21709565828621 Eh          -14999.37973 eV
Two Electron Energy:        201.57578424247978 Eh            5485.15595 eV

Virial components:
Potential Energy   :       -457.04848446998517 Eh          -12436.92154 eV
Kinetic Energy     :        228.10046155879397 Eh            6206.92911 eV
Virial Ratio       :          2.00371573712129

DFT components:
N(Alpha)           :       15.999995698627 electrons
N(Beta)            :       15.999995698627 electrons
N(Total)           :       31.999991397254 electrons
E(X)               :      -28.180446749264 Eh       
E(C)               :       -1.061616025578 Eh       
E(XC)              :      -29.242062774842 Eh       

---------------
SCF CONVERGENCE
---------------

  Last Energy change         ...    2.5902e-08  Tolerance :   1.0000e-08
  Last MAX-Density change    ...    8.0021e-05  Tolerance :   1.0000e-07
  Last RMS-Density change    ...    1.9737e-06  Tolerance :   5.0000e-09
  Last DIIS Error            ...    2.0304e-03  Tolerance :   5.0000e-07
  Last Orbital Gradient      ...    2.1299e-06  Tolerance :   1.0000e-05
  Last Orbital Rotation      ...    1.0316e-05  Tolerance :   1.0000e-05


----------------
ORBITAL ENERGIES
----------------

  NO   OCC          E(Eh)            E(eV) 
   0   2.0000     -18.803893      -511.6799 
   1   2.0000     -18.745243      -510.0840 
   2   2.0000     -10.018209      -272.6093 
   3   2.0000      -9.901527      -269.4343 
   4   2.0000      -1.020169       -27.7602 
   5   2.0000      -0.933134       -25.3919 
   6   2.0000      -0.696635       -18.9564 
   7   2.0000      -0.558663       -15.2020 
   8   2.0000      -0.443775       -12.0757 
   9   2.0000      -0.430402       -11.7118 
  10   2.0000      -0.427975       -11.6458 
  11   2.0000      -0.371475       -10.1084 
  12   2.0000      -0.353937        -9.6311 
  13   2.0000      -0.353933        -9.6310 
  14   2.0000      -0.288829        -7.8594 
  15   2.0000      -0.240246        -6.5374 
  16   0.0000      -0.044950        -1.2232 
  17   0.0000      -0.024250        -0.6599 
  18   0.0000       0.001042         0.0283 
  19   0.0000       0.030911         0.8411 
  20   0.0000       0.032427         0.8824 
  21   0.0000       0.037128         1.0103 
  22   0.0000       0.056328         1.5328 
  23   0.0000       0.065179         1.7736 
  24   0.0000       0.069029         1.8784 
  25   0.0000       0.069192         1.8828 
  26   0.0000       0.101524         2.7626 
*Only the first 10 virtual orbitals were printed.

                    ********************************
                    * MULLIKEN POPULATION ANALYSIS *
                    ********************************

-----------------------
MULLIKEN ATOMIC CHARGES
-----------------------
   0 C :    0.371277
   1 C :   -0.181626
   2 O :   -0.364643
   3 O :   -0.331459
   4 H :    0.242000
   5 H :    0.093215
   6 H :    0.085635
   7 H :    0.085601
Sum of atomic charges:   -0.0000000

--------------------------------
MULLIKEN REDUCED ORBITAL CHARGES
--------------------------------
  0 C s       :     3.048918  s :     3.048918
      pz      :     0.745205  p :     2.263394
      px      :     0.747041
      py      :     0.771148
      dz2     :     0.012392  d :     0.283582
      dxz     :     0.034238
      dyz     :     0.060714
      dx2y2   :     0.059643
      dxy     :     0.116595
      f0      :     0.002768  f :     0.029519
      f+1     :     0.001321
      f-1     :     0.001301
      f+2     :     0.004379
      f-2     :     0.002781
      f+3     :     0.011933
      f-3     :     0.005037
      g0      :     0.000081  g :     0.003157
      g+1     :     0.000256
      g-1     :     0.000341
      g+2     :     0.000167
      g-2     :     0.000157
      g+3     :     0.000122
      g-3     :     0.000460
      g+4     :     0.000761
      g-4     :     0.000812
      h0      :     0.000012  h :     0.000152
      h+1     :     0.000005
      h-1     :     0.000011
      h+2     :     0.000013
      h-2     :     0.000005
      h+3     :     0.000007
      h-3     :     0.000010
      h+4     :     0.000009
      h-4     :     0.000010
      h+5     :     0.000033
      h-5     :     0.000037

  1 C s       :     3.138246  s :     3.138246
      pz      :     1.015002  p :     2.981672
      px      :     0.955928
      py      :     1.010743
      dz2     :     0.011092  d :     0.054795
      dxz     :     0.004594
      dyz     :     0.014482
      dx2y2   :     0.011768
      dxy     :     0.012859
      f0      :     0.000542  f :     0.006011
      f+1     :     0.000657
      f-1     :     0.001512
      f+2     :     0.000508
      f-2     :     0.000606
      f+3     :     0.001123
      f-3     :     0.001064
      g0      :     0.000072  g :     0.000877
      g+1     :     0.000024
      g-1     :     0.000193
      g+2     :     0.000134
      g-2     :     0.000114
      g+3     :     0.000031
      g-3     :     0.000053
      g+4     :     0.000102
      g-4     :     0.000155
      h0      :     0.000000  h :     0.000024
      h+1     :     0.000002
      h-1     :    -0.000000
      h+2     :     0.000007
      h-2     :     0.000002
      h+3     :     0.000002
      h-3     :     0.000006
      h+4     :     0.000000
      h-4     :    -0.000000
      h+5     :     0.000003
      h-5     :     0.000002

  2 O s       :     3.838660  s :     3.838660
      pz      :     1.399270  p :     4.484964
      px      :     1.784106
      py      :     1.301588
      dz2     :     0.003064  d :     0.036567
      dxz     :     0.000729
      dyz     :     0.015403
      dx2y2   :     0.007704
      dxy     :     0.009668
      f0      :     0.000610  f :     0.004093
      f+1     :     0.000121
      f-1     :     0.000321
      f+2     :     0.001017
      f-2     :     0.000191
      f+3     :     0.001134
      f-3     :     0.000699
      g0      :     0.000010  g :     0.000332
      g+1     :     0.000003
      g-1     :     0.000084
      g+2     :     0.000019
      g-2     :     0.000018
      g+3     :     0.000012
      g-3     :     0.000053
      g+4     :     0.000050
      g-4     :     0.000083
      h0      :     0.000003  h :     0.000027
      h+1     :     0.000000
      h-1     :     0.000002
      h+2     :     0.000005
      h-2     :     0.000000
      h+3     :     0.000002
      h-3     :     0.000002
      h+4     :     0.000003
      h-4     :     0.000001
      h+5     :     0.000006
      h-5     :     0.000005

  3 O s       :     3.767243  s :     3.767243
      pz      :     1.731987  p :     4.521033
      px      :     1.245397
      py      :     1.543649
      dz2     :     0.005462  d :     0.038692
      dxz     :     0.006134
      dyz     :     0.004529
      dx2y2   :     0.008619
      dxy     :     0.013948
      f0      :     0.000682  f :     0.004181
      f+1     :     0.000521
      f-1     :     0.000338
      f+2     :     0.000248
      f-2     :     0.000596
      f+3     :     0.001270
      f-3     :     0.000525
      g0      :     0.000016  g :     0.000293
      g+1     :     0.000028
      g-1     :     0.000015
      g+2     :     0.000014
      g-2     :     0.000032
      g+3     :     0.000007
      g-3     :     0.000031
      g+4     :     0.000083
      g-4     :     0.000066
      h0      :     0.000002  h :     0.000018
      h+1     :     0.000002
      h-1     :     0.000001
      h+2     :     0.000001
      h-2     :     0.000001
      h+3     :     0.000000
      h-3     :     0.000001
      h+4     :     0.000000
      h-4     :     0.000001
      h+5     :     0.000004
      h-5     :     0.000005

  4 H s       :     0.657702  s :     0.657702
      pz      :     0.034102  p :     0.086345
      px      :     0.020823
      py      :     0.031420
      dz2     :     0.000901  d :     0.012857
      dxz     :     0.002131
      dyz     :     0.003433
      dx2y2   :     0.003802
      dxy     :     0.002591
      f0      :     0.000165  f :     0.001084
      f+1     :     0.000033
      f-1     :     0.000041
      f+2     :     0.000015
      f-2     :     0.000322
      f+3     :     0.000190
      f-3     :     0.000319
      g0      :     0.000001  g :     0.000011
      g+1     :     0.000001
      g-1     :     0.000002
      g+2     :     0.000001
      g-2     :     0.000001
      g+3     :     0.000001
      g-3     :     0.000001
      g+4     :     0.000001
      g-4     :     0.000003

  5 H s       :     0.850424  s :     0.850424
      pz      :     0.017688  p :     0.048804
      px      :     0.016675
      py      :     0.014440
      dz2     :     0.000265  d :     0.007034
      dxz     :     0.002118
      dyz     :     0.001080
      dx2y2   :     0.002044
      dxy     :     0.001527
      f0      :     0.000085  f :     0.000521
      f+1     :     0.000013
      f-1     :     0.000012
      f+2     :     0.000037
      f-2     :     0.000124
      f+3     :     0.000190
      f-3     :     0.000060
      g0      :    -0.000000  g :     0.000002
      g+1     :     0.000000
      g-1     :     0.000000
      g+2     :    -0.000000
      g-2     :     0.000000
      g+3     :    -0.000000
      g-3     :     0.000000
      g+4     :     0.000001
      g-4     :    -0.000000

  6 H s       :     0.856659  s :     0.856659
      pz      :     0.017245  p :     0.050884
      px      :     0.016104
      py      :     0.017535
      dz2     :     0.001933  d :     0.006334
      dxz     :     0.001265
      dyz     :     0.000981
      dx2y2   :     0.000739
      dxy     :     0.001415
      f0      :     0.000176  f :     0.000486
      f+1     :     0.000037
      f-1     :     0.000041
      f+2     :     0.000040
      f-2     :     0.000135
      f+3     :     0.000042
      f-3     :     0.000015
      g0      :     0.000000  g :     0.000002
      g+1     :     0.000000
      g-1     :     0.000000
      g+2     :    -0.000000
      g-2     :     0.000000
      g+3     :     0.000000
      g-3     :     0.000000
      g+4     :     0.000000
      g-4     :     0.000000

  7 H s       :     0.856692  s :     0.856692
      pz      :     0.017247  p :     0.050885
      px      :     0.016104
      py      :     0.017534
      dz2     :     0.001934  d :     0.006334
      dxz     :     0.001265
      dyz     :     0.000981
      dx2y2   :     0.000739
      dxy     :     0.001415
      f0      :     0.000176  f :     0.000486
      f+1     :     0.000037
      f-1     :     0.000041
      f+2     :     0.000040
      f-2     :     0.000135
      f+3     :     0.000042
      f-3     :     0.000015
      g0      :     0.000000  g :     0.000002
      g+1     :     0.000000
      g-1     :     0.000000
      g+2     :    -0.000000
      g-2     :     0.000000
      g+3     :     0.000000
      g-3     :     0.000000
      g+4     :     0.000000
      g-4     :     0.000000



                     *******************************
                     * LOEWDIN POPULATION ANALYSIS *
                     *******************************

----------------------
LOEWDIN ATOMIC CHARGES
----------------------
   0 C :   -0.792767
   1 C :    0.571583
   2 O :    0.405738
   3 O :    0.905607
   4 H :   -0.584037
   5 H :   -0.172815
   6 H :   -0.166654
   7 H :   -0.166654

-------------------------------
LOEWDIN REDUCED ORBITAL CHARGES
-------------------------------
  0 C s       :     2.543606  s :     2.543606
      pz      :     0.614573  p :     2.396703
      px      :     0.804467
      py      :     0.977663
      dz2     :     0.112240  d :     1.374230
      dxz     :     0.153436
      dyz     :     0.245951
      dx2y2   :     0.392722
      dxy     :     0.469881
      f0      :     0.022672  f :     0.414763
      f+1     :     0.019748
      f-1     :     0.028115
      f+2     :     0.058702
      f-2     :     0.037283
      f+3     :     0.155379
      f-3     :     0.092865
      g0      :     0.001744  g :     0.059187
      g+1     :     0.005074
      g-1     :     0.010099
      g+2     :     0.004840
      g-2     :     0.005806
      g+3     :     0.000948
      g-3     :     0.005157
      g+4     :     0.012495
      g-4     :     0.013024
      h0      :     0.000156  h :     0.004277
      h+1     :     0.000091
      h-1     :     0.000173
      h+2     :     0.000531
      h-2     :     0.000145
      h+3     :     0.000271
      h-3     :     0.000222
      h+4     :     0.000247
      h-4     :     0.000249
      h+5     :     0.001155
      h-5     :     0.001037

  1 C s       :     2.468168  s :     2.468168
      pz      :     0.818936  p :     2.430894
      px      :     0.803792
      py      :     0.808165
      dz2     :     0.076293  d :     0.437884
      dxz     :     0.032619
      dyz     :     0.106902
      dx2y2   :     0.110493
      dxy     :     0.111578
      f0      :     0.006310  f :     0.085189
      f+1     :     0.009452
      f-1     :     0.013331
      f+2     :     0.007951
      f-2     :     0.010536
      f+3     :     0.017884
      f-3     :     0.019724
      g0      :     0.000292  g :     0.006089
      g+1     :     0.000473
      g-1     :     0.000617
      g+2     :     0.000655
      g-2     :     0.000506
      g+3     :     0.000436
      g-3     :     0.000445
      g+4     :     0.000939
      g-4     :     0.001727
      h0      :     0.000022  h :     0.000194
      h+1     :     0.000005
      h-1     :     0.000018
      h+2     :     0.000003
      h-2     :     0.000017
      h+3     :     0.000021
      h-3     :     0.000014
      h+4     :     0.000014
      h-4     :     0.000007
      h+5     :     0.000038
      h-5     :     0.000034

  2 O s       :     3.214268  s :     3.214268
      pz      :     1.215255  p :     4.137202
      px      :     1.464623
      py      :     1.457325
      dz2     :     0.022154  d :     0.184040
      dxz     :     0.003469
      dyz     :     0.034865
      dx2y2   :     0.054986
      dxy     :     0.068566
      f0      :     0.005025  f :     0.054255
      f+1     :     0.002015
      f-1     :     0.006165
      f+2     :     0.007795
      f-2     :     0.001816
      f+3     :     0.019149
      f-3     :     0.012290
      g0      :     0.000176  g :     0.004135
      g+1     :     0.000016
      g-1     :     0.000595
      g+2     :     0.000367
      g-2     :     0.000265
      g+3     :     0.000100
      g-3     :     0.000376
      g+4     :     0.000914
      g-4     :     0.001325
      h0      :     0.000022  h :     0.000361
      h+1     :     0.000004
      h-1     :     0.000025
      h+2     :     0.000035
      h-2     :     0.000003
      h+3     :     0.000033
      h-3     :     0.000028
      h+4     :     0.000017
      h-4     :     0.000007
      h+5     :     0.000105
      h-5     :     0.000081

  3 O s       :     2.969870  s :     2.969870
      pz      :     1.319851  p :     3.836654
      px      :     1.168125
      py      :     1.348678
      dz2     :     0.028588  d :     0.230589
      dxz     :     0.034967
      dyz     :     0.012477
      dx2y2   :     0.067198
      dxy     :     0.087359
      f0      :     0.004889  f :     0.054707
      f+1     :     0.005470
      f-1     :     0.002611
      f+2     :     0.002416
      f-2     :     0.006677
      f+3     :     0.023103
      f-3     :     0.009542
      g0      :     0.000108  g :     0.002380
      g+1     :     0.000319
      g-1     :     0.000096
      g+2     :     0.000177
      g-2     :     0.000266
      g+3     :     0.000027
      g-3     :     0.000314
      g+4     :     0.000890
      g-4     :     0.000182
      h0      :     0.000018  h :     0.000193
      h+1     :     0.000006
      h-1     :     0.000005
      h+2     :     0.000011
      h-2     :     0.000019
      h+3     :     0.000022
      h-3     :     0.000016
      h+4     :     0.000005
      h-4     :     0.000010
      h+5     :     0.000052
      h-5     :     0.000029

  4 H s       :     0.639719  s :     0.639719
      pz      :     0.134055  p :     0.500175
      px      :     0.148785
      py      :     0.217335
      dz2     :     0.032816  d :     0.359399
      dxz     :     0.049154
      dyz     :     0.067233
      dx2y2   :     0.123036
      dxy     :     0.087161
      f0      :     0.012226  f :     0.083111
      f+1     :     0.004002
      f-1     :     0.004408
      f+2     :     0.000651
      f-2     :     0.020786
      f+3     :     0.018455
      f-3     :     0.022585
      g0      :     0.000058  g :     0.001631
      g+1     :     0.000151
      g-1     :     0.000210
      g+2     :     0.000073
      g-2     :     0.000131
      g+3     :     0.000207
      g-3     :     0.000077
      g+4     :     0.000257
      g-4     :     0.000466

  5 H s       :     0.707531  s :     0.707531
      pz      :     0.075637  p :     0.263875
      px      :     0.108900
      py      :     0.079337
      dz2     :     0.011405  d :     0.174281
      dxz     :     0.046539
      dyz     :     0.020349
      dx2y2   :     0.048609
      dxy     :     0.047379
      f0      :     0.003557  f :     0.026933
      f+1     :     0.002798
      f-1     :     0.000807
      f+2     :     0.001391
      f-2     :     0.004672
      f+3     :     0.008336
      f-3     :     0.005373
      g0      :     0.000006  g :     0.000196
      g+1     :     0.000035
      g-1     :     0.000010
      g+2     :     0.000013
      g-2     :     0.000010
      g+3     :     0.000000
      g-3     :     0.000034
      g+4     :     0.000064
      g-4     :     0.000022

  6 H s       :     0.698950  s :     0.698950
      pz      :     0.106039  p :     0.268484
      px      :     0.071659
      py      :     0.090786
      dz2     :     0.058923  d :     0.172367
      dxz     :     0.032991
      dyz     :     0.034613
      dx2y2   :     0.015663
      dxy     :     0.030177
      f0      :     0.007687  f :     0.026660
      f+1     :     0.001884
      f-1     :     0.005154
      f+2     :     0.003904
      f-2     :     0.005704
      f+3     :     0.001547
      f-3     :     0.000780
      g0      :     0.000036  g :     0.000193
      g+1     :     0.000005
      g-1     :     0.000046
      g+2     :     0.000022
      g-2     :     0.000038
      g+3     :     0.000025
      g-3     :     0.000016
      g+4     :     0.000002
      g-4     :     0.000003

  7 H s       :     0.698950  s :     0.698950
      pz      :     0.106039  p :     0.268484
      px      :     0.071659
      py      :     0.090786
      dz2     :     0.058923  d :     0.172367
      dxz     :     0.032991
      dyz     :     0.034613
      dx2y2   :     0.015663
      dxy     :     0.030177
      f0      :     0.007687  f :     0.026660
      f+1     :     0.001884
      f-1     :     0.005154
      f+2     :     0.003904
      f-2     :     0.005704
      f+3     :     0.001547
      f-3     :     0.000780
      g0      :     0.000036  g :     0.000193
      g+1     :     0.000005
      g-1     :     0.000046
      g+2     :     0.000022
      g-2     :     0.000038
      g+3     :     0.000025
      g-3     :     0.000016
      g+4     :     0.000002
      g-4     :     0.000003



                      *****************************
                      * MAYER POPULATION ANALYSIS *
                      *****************************

  NA   - Mulliken gross atomic population
  ZA   - Total nuclear charge
  QA   - Mulliken gross atomic charge
  VA   - Mayer's total valence
  BVA  - Mayer's bonded valence
  FA   - Mayer's free valence

  ATOM       NA         ZA         QA         VA         BVA        FA
  0 C      5.6287     6.0000     0.3713     4.2439     4.2439    -0.0000
  1 C      6.1816     6.0000    -0.1816     3.9827     3.9827    -0.0000
  2 O      8.3646     8.0000    -0.3646     2.0670     2.0670    -0.0000
  3 O      8.3315     8.0000    -0.3315     2.2696     2.2696    -0.0000
  4 H      0.7580     1.0000     0.2420     1.0423     1.0423     0.0000
  5 H      0.9068     1.0000     0.0932     1.0421     1.0421    -0.0000
  6 H      0.9144     1.0000     0.0856     1.0506     1.0506    -0.0000
  7 H      0.9144     1.0000     0.0856     1.0506     1.0506    -0.0000

  Mayer bond orders larger than 0.100000
B(  0-C ,  1-C ) :   1.0337 B(  0-C ,  2-O ) :   1.8921 B(  0-C ,  3-O ) :   1.2080 
B(  1-C ,  5-H ) :   0.9940 B(  1-C ,  6-H ) :   0.9544 B(  1-C ,  7-H ) :   0.9544 
B(  3-O ,  4-H ) :   0.9580 

-------
TIMINGS
-------

Total SCF time: 0 days 0 hours 7 min 20 sec 

Total time                  ....     440.156 sec
Sum of individual times     ....     421.778 sec  ( 95.8%)

SCF preparation             ....       0.140 sec  (  0.0%)
Fock matrix formation       ....     419.065 sec  ( 95.2%)
  Startup                   ....       0.027 sec  (  0.0% of F)
  Coulomb formation         ....     432.450 sec  (103.2% of F)
  XC integration            ....       4.262 sec  (  1.0% of F)
    XC Preparation          ....       0.000 sec  (  0.0% of XC)
    Basis function eval.    ....       0.401 sec  (  9.4% of XC)
    Density eval.           ....       0.939 sec  ( 22.0% of XC)
    XC-Functional eval.     ....       0.026 sec  (  0.6% of XC)
    XC-Potential eval.      ....       2.092 sec  ( 49.1% of XC)
Diagonalization             ....       0.000 sec  (  0.0%)
Density matrix formation    ....       0.381 sec  (  0.1%)
Total Energy calculation    ....       0.078 sec  (  0.0%)
Population analysis         ....       0.090 sec  (  0.0%)
Orbital Transformation      ....       0.198 sec  (  0.0%)
Orbital Orthonormalization  ....       0.000 sec  (  0.0%)
DIIS solution               ....       1.272 sec  (  0.3%)
SOSCF solution              ....       0.555 sec  (  0.1%)
Finished LeanSCF after 440.2 sec

Maximum memory used throughout the entire LEANSCF-calculation: 91.8 MB


           ************************************************************
           *        Program running with 8 parallel MPI-processes     *
           *              working on a common directory               *
           ************************************************************

------------------------------------------------------------------------------
                         ORCA PROPERTY INTEGRAL CALCULATIONS
------------------------------------------------------------------------------

GBWName                                   ... /cluster/projects/nn14654k/ylvaos/basis_set_n_funcs/functionals/pbe/CH3COOH/inp/CH3COOH_pbe_pc4.gbw
Number of atoms                           ...      8
Number of basis functions                 ...    688
Max core memory                           ...   4096 MB

Dipole integrals                          ... YES
Quadrupole integrals                      ... YES
Linear momentum integrals                 ...  NO
Angular momentum integrals                ...  NO
Higher moments length integrals           ...  NO
Higher moments velocity integrals         ...  NO
Kinetic energy integrals                  ...  NO
GIAO right hand sides                     ...  NO
GIAO dipole derivative integrals          ...  NO
SOC integrals                             ...  NO
EPR diamagnetic integrals (GIAO)          ...  NO
EPR gauge integrals                       ...  NO
Field gradient integrals                  ...  NO (   0 nuclei)
Spin-dipole/Fermi contact integrals       ...  NO (   0 nuclei)
Contact density integrals                 ...  NO (   0 nuclei)
Nucleus-orbit integrals                   ...  NO (   0 nuclei)
Geometric perturbations                   ...  NO (   8 nuclei)

Choice of electric origin   ... Center of mass
Position of electric origin ... ( -0.0657,  0.0975,  0.0000) 
Choice of magnetic origin   ... GIAO
Position of magnetic origin ... (  0.0000,  0.0000,  0.0000) 

Calculating integrals                     ... Electric Dipole (Length)     done (  0.0 sec)
Calculating integrals                     ... Electric Quadrupole (Length) done (  0.0 sec)

Property integrals calculated in   0.1 sec

Maximum memory used throughout the entire PROPINT-calculation: 62.8 MB
------------------------------------------------------------------------------
                           ORCA ORBITAL LOCALIZATION
------------------------------------------------------------------------------

Input orbitals are from                  ... /cluster/projects/nn14654k/ylvaos/basis_set_n_funcs/functionals/pbe/CH3COOH/inp/CH3COOH_pbe_pc4.gbw
Output orbitals are to                   ... /cluster/projects/nn14654k/ylvaos/basis_set_n_funcs/functionals/pbe/CH3COOH/inp/CH3COOH_pbe_pc4.loc
Max. number of iterations                ... 128
Localizations seeded randomly            ... on
Convergence tolerance                    ... 1.000e-06
Threshold for strong local MOs           ... 9.500e-01
Threshold for bond MOs                   ... 8.500e-01
Operator                                 ... 0
Orbital range for localization           ... 4 to 15
Localization criterion                   ... NEW-BOYS
Doing the dipole integrals               ... o.k.
Initial value of the localization sum :    58.755870
ITERATION   0 : L=   77.5144732685 DL=  1.88e+01 (AVERGE_DL)=    0.5331240552 
ITERATION   1 : L=   80.8677921707 DL=  3.35e+00 (AVERGE_DL)=    0.2254059941 
ITERATION   2 : L=   80.9151611344 DL=  4.74e-02 (AVERGE_DL)=    0.0267901394 
ITERATION   3 : L=   80.9179909935 DL=  2.83e-03 (AVERGE_DL)=    0.0065480266 
ITERATION   4 : L=   80.9199042613 DL=  1.91e-03 (AVERGE_DL)=    0.0053841347 
ITERATION   5 : L=   80.9214172385 DL=  1.51e-03 (AVERGE_DL)=    0.0047878907 
ITERATION   6 : L=   80.9225862572 DL=  1.17e-03 (AVERGE_DL)=    0.0042086108 
ITERATION   7 : L=   80.9234302705 DL=  8.44e-04 (AVERGE_DL)=    0.0035760424 
ITERATION   8 : L=   80.9240091745 DL=  5.79e-04 (AVERGE_DL)=    0.0029616335 
ITERATION   9 : L=   80.9243916073 DL=  3.82e-04 (AVERGE_DL)=    0.0024071635 
ITERATION  10 : L=   80.9246378773 DL=  2.46e-04 (AVERGE_DL)=    0.0019316738 
ITERATION  11 : L=   80.9247937900 DL=  1.56e-04 (AVERGE_DL)=    0.0015369821 
ITERATION  12 : L=   80.9248914073 DL=  9.76e-05 (AVERGE_DL)=    0.0012161618 
ITERATION  13 : L=   80.9249520843 DL=  6.07e-05 (AVERGE_DL)=    0.0009588267 
ITERATION  14 : L=   80.9249896241 DL=  3.75e-05 (AVERGE_DL)=    0.0007541790 
ITERATION  15 : L=   80.9250127786 DL=  2.32e-05 (AVERGE_DL)=    0.0005923054 
ITERATION  16 : L=   80.9250270322 DL=  1.43e-05 (AVERGE_DL)=    0.0004647190 
ITERATION  17 : L=   80.9250357940 DL=  8.76e-06 (AVERGE_DL)=    0.0003643535 
ITERATION  18 : L=   80.9250411767 DL=  5.38e-06 (AVERGE_DL)=    0.0002855799 
ITERATION  19 : L=   80.9250444809 DL=  3.30e-06 (AVERGE_DL)=    0.0002237514 
ITERATION  20 : L=   80.9250465083 DL=  2.03e-06 (AVERGE_DL)=    0.0001752637 
ITERATION  21 : L=   80.9250477521 DL=  1.24e-06 (AVERGE_DL)=    0.0001372809 
ITERATION  22 : L=   80.9250485152 DL=  7.63e-07 (AVERGE_DL)=    0.0001075260 
LOCALIZATION SUM CONVERGED


--------------------------------------------------------------------------------
                    LOCALIZED MOLECULAR ORBITAL COMPOSITIONS
--------------------------------------------------------------------------------

The Mulliken populations for each LMO on each atom are computed
The LMO`s will be ordered according to atom index and type
  (A) Strongly localized MO`s have populations of >=0.950 on one atom
  (B) Two center bond orbitals have populations of >=0.850 on two atoms
  (C) Other MO`s are considered to be `delocalized`

FOUND  -   3 strongly local MO`s
       -   9 two center bond MO`s
       -   0 significantly delocalized MO`s

Rather strongly localized orbitals:
MO   6:   3O  -   0.975293
MO   5:   2O  -   0.962573
MO   4:   2O  -   0.950578
Bond-like localized orbitals:
MO  15:   7H  -   0.452992  and   1C  -   0.526819
MO  14:   6H  -   0.452978  and   1C  -   0.526793
MO  13:   5H  -   0.451389  and   1C  -   0.559348
MO  12:   4H  -   0.356645  and   3O  -   0.644383
MO  11:   3O  -   0.683366  and   0C  -   0.338297
MO  10:   3O  -   0.876404  and   0C  -   0.111562
MO   9:   2O  -   0.645399  and   0C  -   0.355601
MO   8:   2O  -   0.644787  and   0C  -   0.356508
MO   7:   1C  -   0.483244  and   0C  -   0.528734
Localized MO's were stored in: /cluster/projects/nn14654k/ylvaos/basis_set_n_funcs/functionals/pbe/CH3COOH/inp/CH3COOH_pbe_pc4.loc

-------------------------   --------------------
FINAL SINGLE POINT ENERGY      -228.948022911191
-------------------------   --------------------



           ************************************************************
           *        Program running with 8 parallel MPI-processes     *
           *              working on a common directory               *
           ************************************************************

------------------------------------------------------------------------------
                              ORCA PROPERTY CALCULATIONS
------------------------------------------------------------------------------

GBWName                                 ... /cluster/projects/nn14654k/ylvaos/basis_set_n_funcs/functionals/pbe/CH3COOH/inp/CH3COOH_pbe_pc4.gbw
Number of atoms                         ...      8
Number of basis functions               ...    688
Max core memory                         ...   4096 MB

Electric properties:
Dipole moment                           ... YES
Quadrupole moment                       ... YES
Static polarizability (Dipole/Dipole)   ...  NO
Static polarizability (Dipole/Quad.)    ...  NO
Static polarizability (Quad./Quad.)     ...  NO
Static polarizability (Velocity)        ...  NO
Static hyperpolarizability              ...  NO

Atomic electric properties:
Dipole moment                           ...  NO
Quadrupole moment                       ...  NO
Static polarizability                   ...  NO

Choice of electric origin               ... Center of mass
Position of electric origin             ...    -0.065707     0.097461     0.000000

General magnetic properties:
Magnetizability                         ...  NO

EPR properties:
g-Tensor (aka g-matrix)                 ...  NO
Zero-Field splitting spin-orbit         ...  NO
Zero-field splitting spin-spin          ...  NO
Hyperfine couplings                     ...  NO (   0 nuclei)
Quadrupole couplings                    ...  NO (   0 nuclei)
Contact density                         ...  NO (   0 nuclei)

NMR properties:
Chemical shifts                         ...  NO (   0 nuclei)
Spin-rotation constants                 ...  NO (   0 nuclei)
Spin-spin couplings                     ...  NO (   0 nuclei,    0 pairs)

Choice of magnetic origin               ... GIAO
Position of magnetic origin             ...     0.000000     0.000000     0.000000

Properties with geometric perturbations:
SCF Hessian                             ...  NO
IR spectrum                             ...  NO
VCD spectrum                            ...  NO
X-ray spectroscopy properties:
SCF XES/XAS/RIXS spectra                ...  NO

SCF SOC stabilization energy            ...  NO
Diagonal Born-Oppenheimer correction    ...  NO

-------------
DIPOLE MOMENT
-------------

Method             : SCF
Type of density    : Electron Density
Multiplicity       :   1
Irrep              :   0
Energy             :  -228.9480229111912308 Eh
Basis              : AO
                                X                 Y                 Z
Electronic contribution:     -2.205848864       2.432154026      -0.000000001
Nuclear contribution   :      2.102617427      -3.118765285       0.000000000
                        -----------------------------------------
Total Dipole Moment    :     -0.103231437      -0.686611258      -0.000000001
                        -----------------------------------------
Magnitude (a.u.)       :      0.694328272
Magnitude (Debye)      :      1.764842214



--------------------
Rotational spectrum 
--------------------
 
Rotational constants in cm-1:             0.373252             0.316126             0.176788 
Rotational constants in MHz :         11189.819630          9477.229268          5299.974115 

Dipole components along the rotational axes: 
x,y,z [a.u.] :    -0.367516    -0.589088    -0.000000 
x,y,z [Debye]:    -0.934150    -1.497341    -0.000000 

 

Dipole moment calculation done in   0.0 sec 

-----------------
QUADRUPOLE MOMENT
-----------------

Method             : SCF
Type of density    : Electron Density
Multiplicity       :   1
Irrep              :   0
Energy             :  -228.9480229111912308 Eh
Basis              : AO

                XX              YY              ZZ              XY              XZ              YZ
  NUC      103.447904006    93.335807526     5.552847104   -15.402641721     0.000000000     0.000000000
  EL      -118.640784052  -113.772323578   -22.968206697    12.777559961     0.000000003    -0.000000023
  TOT      -15.192880046   -20.436516052   -17.415359593    -2.625081760     0.000000003    -0.000000023 (a.u.)
           -20.434943258   -27.487813018   -23.424254258    -3.530824745     0.000000004    -0.000000031 (Buckingham)

diagonalized tensor:
           -21.524817169   -17.415359593   -14.104578928 (a.u.)
           -28.951615241   -23.424254258   -18.971141035 (Buckingham)
           -15.507835190     1.074247760    14.433587430 (traceless form in Buckingham)

             0.382970757     0.000000005     0.923760467
             0.923760467     0.000000003    -0.382970757
             0.000000005    -1.000000000     0.000000004
        
Isotropic quadrupole :   -17.681585230

Quadrupole moment calculation done in   0.0 sec (  0.0 sec for integrals)

Maximum memory used throughout the entire PROP-calculation: 60.4 MB

--------------------------------
SUGGESTED CITATIONS FOR THIS RUN
--------------------------------

Below you find a list of papers that are relevant to this ORCA run
We neither can nor want to force you to cite these papers, but we appreciate if you do
You receive ORCA, which is the product of decades of hard work by many enthusiastic individuals, for free
The only thing we kindly ask in return is that you cite our papers,
We deeply appreciate it, if you show your appreciation for ORCA by not just citing the generic ORCA reference.

Please note that relegating all ORCA citations to the supporting information does *not* help us.
SI sections are not indexed - citations you put there will not count into any citation statistics
But we need these citations in order to attract the funding resources that allow us to do what we are doing

Therefore, if you are a happy ORCA user, please consider citing a few of the papers listed below in the main body of your paper

In addition to the list printed below, the program has created the file /cluster/projects/nn14654k/ylvaos/basis_set_n_funcs/functionals/pbe/CH3COOH/inp/CH3COOH_pbe_pc4.bibtex that contains the list in bibtex format
You can import this file easily into all common literature databanks and citation aid programs

It goes without saying that in many instances, there are alternative algorithms to achieve similar
results as the ones you have gotten from ORCA. It is, of course, also the case that in some instances
ORCA just re-implements algorithms worked out by others. We are fully aware of that and we are also
fully appreciative of our colleagues work. Hence this citation list should not be read as indicating
that the listed papers, which are focused on our own work, are the only ones worth citing. It simply
meant to make it easier for users to cite ORCA specific papers. It is not a substitute for doing your
own literature research and citing the relevant literature in a scientifically appropriate manner.

List of essential papers. We consider these as the minimum necessary citations

  1. Neese, F.
     Software update: the ORCA program system, version 6.0
     WIRES Comput. Molec. Sci. 2025 15(1), e70019
     doi.org/10.1002/wcms.70019

List of papers to cite with high priority. The work reported in these papers was absolutely
necessary for this run to complete.
Our perspective: the developers of density functionals and basis sets usually get cited in chemistry papers
Good! But without the algorithms to do something with them, the functionals or basis sets would not do anything.
Hence, in our opinion, the algorithm design and method developments papers are equally worthy of getting cited

  1. Neese, F.
     The SHARK Integral Generation and Digestion System
     J. Comp. Chem. 2022 44(3), 381
     doi.org/10.1002/jcc.26942

List of suggested additional citations. These are papers that are important in the 'surrounding' of 
of this run, or papers that preceded the highly important papers. If you like your results we are grateful for a citation.

  1. Neese, F.
     The ORCA program system
     WIRES Comput. Molec. Sci. 2012 2(1), 73-78
     doi.org/10.1002/wcms.81
  2. Neese, F.
     Software update: the ORCA program system, version 4.0
     WIRES Comput. Molec. Sci. 2018 8(1), 1-6
     doi.org/10.1002/wcms.1327
  3. Neese, F.; Wennmohs, F.; Becker, U.; Riplinger, C.
     The ORCA quantum chemistry program package
     J. Chem. Phys. 2020 152(22), 224108
     doi.org/10.1063/5.0004608
  4. Neese, F.
     Software update: The ORCA program system—Version 5.0
     WIRES Comput. Molec. Sci. 2022 12(1), e1606
     doi.org/10.1002/wcms.1606

List of optional additional citations

  1. Neese, F.
     Approximate second-order SCF convergence for spin unrestricted wavefunctions
     Chem. Phys. Lett. 2000 325(1-3), 93-98
     doi.org/10.1016/s0009-2614(00)00662-x

Timings for individual modules:

Sum of individual times          ...      443.301 sec (=   7.388 min)
Startup calculation              ...        1.103 sec (=   0.018 min)   0.2 %
SCF iterations                   ...      441.421 sec (=   7.357 min)  99.6 %
Property integrals               ...        0.408 sec (=   0.007 min)   0.1 %
Property calculations            ...        0.333 sec (=   0.006 min)   0.1 %
Orbital localization             ...        0.036 sec (=   0.001 min)   0.0 %
                             ****ORCA TERMINATED NORMALLY****
TOTAL RUN TIME: 0 days 0 hours 7 minutes 24 seconds 67 msec
