
                                 *****************
                                 * O   R   C   A *
                                 *****************

                                            #,                                       
                                            ###                                      
                                            ####                                     
                                            #####                                    
                                            ######                                   
                                           ########,                                 
                                     ,,################,,,,,                         
                               ,,#################################,,                 
                          ,,##########################################,,             
                       ,#########################################, ''#####,          
                    ,#############################################,,   '####,        
                  ,##################################################,,,,####,       
                ,###########''''           ''''###############################       
              ,#####''   ,,,,##########,,,,          '''####'''          '####       
            ,##' ,,,,###########################,,,                        '##       
           ' ,,###''''                  '''############,,,                           
         ,,##''                                '''############,,,,        ,,,,,,###''
      ,#''                                            '''#######################'''  
     '                                                          ''''####''''         
             ,#######,   #######,   ,#######,      ##                                
            ,#'     '#,  ##    ##  ,#'     '#,    #''#        ,####,    ,#,          
            ##       ##  ##   ,#'  ##            #'  '#       #'       ,# #          
            ##       ##  #######   ##           ,######,      #####,      #          
            '#,     ,#'  ##    ##  '#,     ,#' ,#      #,     #,   #      #          
             '#######'   ##     ##  '#######'  #'      '#     '####' #    #          



                #########################################################
                #                        -***-                          #
                #          Department of theory and spectroscopy        #
                #                                                       #
                #                      Frank Neese                      #
                #                                                       #
                #     Directorship, Architecture, Infrastructure        #
                #                    SHARK, DRIVERS                     #
                #        Core code/Algorithms in most modules           #
                #                                                       #
                #        Max Planck Institute fuer Kohlenforschung      #
                #                Kaiser Wilhelm Platz 1                 #
                #                 D-45470 Muelheim/Ruhr                 #
                #                      Germany                          #
                #                                                       #
                #                  All rights reserved                  #
                #                        -***-                          #
                #########################################################


                         Program Version 6.1.1  -  RELEASE   -
                                (GIT: $487d211c$)
                          ($2025-11-21 10:33:24 +0100$)


 With contributions from (in alphabetic order):
[Max-Planck-Institut fuer Kohlenforschung]                               
  Daniel Aravena         : Magnetic Suceptibility                        
  Michael Atanasov       : Ab Initio Ligand Field Theory (pilot matlab implementation)
  Alexander A. Auer      : GIAO ZORA, VPT2 properties, NMR spectrum      
  Ute Becker             : All parallelization in ORCA, NUMFREQ, NUMCALC 
  Giovanni Bistoni       : ED, misc. LED, open-shell LED, HFLD           
  Dmytro Bykov           : pre 5.0 version of the SCF Hessian            
  Marcos Casanova-Páez   : Triplet and SCS-CIS(D). UHF-(DLPNO)-IP/EA/STEOM-CCSD. UHF-CVS-IP/STEOM-CCSD   
  Vijay G. Chilkuri      : MRCI spin determinant printing, contributions to CSF-ICE 
  Pauline Colinet        : FMM embedding                                 
  Dipayan Datta          : RHF DLPNO-CCSD density                        
  Achintya Kumar Dutta   : EOM-CC, STEOM-CC                              
  Nicolas Foglia         : Exact transition moments, OPA infrastructure, MCD improvements    
  Dmitry Ganyushin       : Spin-Orbit,Spin-Spin,Magnetic field MRCI      
  Miquel Garcia-Rates    : C-PCM and meta-GGA Hessian, CCSD/C-PCM, Gaussian charge scheme 
  Tiago L. C. Gouveia    : GS-ROHF, GS-ROCIS                             
  Yang Guo               : DLPNO-NEVPT2, F12-NEVPT2, CIM, IAO-localization        
  Andreas Hansen         : Spin unrestricted coupled pair/coupled cluster methods 
  Ingolf Harden          : AUTO-CI MPn and infrastructure                
  Benjamin Helmich-Paris : MC-RPA, TRAH-(SCF,CASSCF), AVAS, COSX integrals, SCF dyn. polar., MC-PDFT, srDFT 
  Lee Huntington         : MR-EOM, pCC                                   
  Robert Izsak           : Overlap fitted RIJCOSX, COSX-SCS-MP3, EOM     
  Riya Kayal             : Wick's Theorem for AUTO-CI, AUTO-CI UHF-CCSDT 
  Emily Kempfer          : AUTO-CI RHF CISDT and CCSDT, approximate NEVPT4
  Christian Kollmar      : KDIIS, OOCD, Brueckner-CCSD(T), CCSD density, CASPT2, CASPT2-K, improved NEVPT2 
  Axel Koslowski         : Symmetry handling                             
  Simone Kossmann        : meta-GGA functionals, TD-DFT gradient, OOMP2, (MP2 Hessian; deprecated post 5.0) 
  Lucas Lang             : DCDCAS, Hyperfine gauge corrections, ICE-SOC+SSC
  Marvin Lechner         : AUTO-CI (C++ implementation), FIC-MRCC        
  Spencer Leger          : CASSCF response                               
  Dagmar Lenk            : GEPOL surface, SMD, ORCA-2-JSON               
  Dimitrios Liakos       : Extrapolation schemes; Compound Job, Property file
  Dimitrios Manganas     : Further ROCIS development; embedding schemes. LFT, Crystal Embedding 
  Dimitrios Pantazis     : SARC Basis sets                               
  Anastasios Papadopoulos: AUTO-CI, single reference methods and gradients 
  Taras Petrenko         : pre 6.0 DFT Hessian and TD-DFT gradient,  ECA, NRVS 
  Petra Pikulova         : Analytic Raman intensities                    
  Peter Pinski           : DLPNO-MP2, DLPNO-MP2 Gradient                 
  Shashank Vittal Rao    : ES-AILFT, MagRelax                            
  Christoph Reimann      : Effective Core Potentials                     
  Marius Retegan         : Local ZFS, SOC                                
  Christoph Riplinger    : Optimizer, TS searches, QM/MM, DLPNO-CCSD(T), (RO)-DLPNO pert. Triples 
  Michael Roemelt        : Original ROCIS implementation, recursive CI coupling coefficients
  Masaaki Saitow         : Open-shell DLPNO-CCSD energy and density      
  Barbara Sandhoefer     : DKH picture change effects                    
  Yorick L. A. Schmerwitz: GMF and freeze-and-release deltaSCF, NEB S-IDPP initial path                    
  Kantharuban Sivalingam : CASSCF convergence/infrastructure, NEVPT2, NEVPT3, NEVPT4(SD), FIC-MRCI and CEPA variants
  Bernardo de Souza      : ESD, SOC TD-DFT                               
  Georgi L. Stoychev     : AutoAux, RI-MP2 NMR, DLPNO-MP2 response, X2C  
  Van Anh Tran           : RI-MP2 g-tensors                              
  Willem Van den Heuvel  : Paramagnetic NMR                              
  Zikuan Wang            : NOTCH, Electric field optimization            
  Frank Wennmohs         : Technical directorship and infrastructure     
  Hang Xu                : AUTO-CI-Response properties                   
                                                                         
[FACCTs GmbH]                                                            
  Markus Bursch, Nicolas Foglia, Miquel Garcia-Rates, Ingolf Harden, Hagen Neugebauer, Anastasios Papadopoulos, 
  Christoph Riplinger, Bernardo de Souza, Georgi L. Stoychev                                                    
                                                                 
  APM, various basis sets, CI-OPT, improved COSX, DLPNO-Multilevel,           
  DOCKER, DRACO, updates on ESD, Fragmentator, GOAT, IRC, LR-CPCM, L-BFGS, MBIS, meta-GGA TD-DFT gradient, ML-optimized integration grids, 
  MM, NACMEs, nearIR, NEB, NEB-TS, NL-DFT gradient (VV10), 2- and 3-layer-ONIOM, interface openCOSMO-RS, QMMM,   
  Crystal-QMMM, RESP, rigid body optimization, SF, symmetry and pop. for TD-DFT, various functionals, SOLVATOR                                   
                                                                         
[Other institutions]                                                     
  V. Asgeirsson          : NEB                                           
  Christoph Bannwarth    : sTDA-DFT, sTD-DFT, PBEh-3c, B97-3c, D3        
  Giovanni Bistoni       : ETS/NOCV, ADLD/ADEX, COVALED                  
  Martin Brehm           : Molecular dynamics                            
  Ronald Cardenas        : ETS/NOCV                                      
  Martina Colucci        : COVALED                                       
  Sebastian Ehlert       : rSCAN, r2SCAN, r2SCAN-3c, D4, dhf basis sets  
  Marvin Friede          : D4 for Fr, Ra, Ac-Lr                          
  Lars Goerigk           : TD-DFT with DH, B97 family of functionals     
  Stefan Grimme          : VdW corrections, initial TS optimization, DFT functionals, gCP, sTDA/sTD-DF 
  Waldemar Hujo          : DFT-NL                                        
  H. Jonsson             : NEB                                           
  Holger Kruse           : gCP                                           
  Marcel Mueller         : wB97X-3c, vDZP basis set                      
  Hagen Neugebauer       : wr2SCAN, Native XTB                           
  Gianluca Regni         : ADLD/ADEX                                     
  Tobias Risthaus        : pre 6.0 range-separated hybrid DFT and stability analysis
  Lukas Wittmann         : regularized MP2, r2SCAN double-hybrids, wr2SCAN        
                                                                         
We gratefully acknowledge several colleagues who have allowed us to      
interface, adapt or use parts of their codes:                            
  Ed Valeev, F. Pavosevic, A. Kumar             : LibInt (2-el integral package), F12 methods 
  Garnet Chan, S. Sharma, J. Yang, R. Olivares  : DMRG                   
  Ulf Ekstrom                                   : XCFun DFT Library      
  Mihaly Kallay                                 : mrcc  (arbitrary order and MRCC methods)
  Frank Weinhold                                : gennbo (NPA and NBO analysis)           
  Simon Mueller                                 : openCOSMO-RS                            
  Christopher J. Cramer and Donald G. Truhlar   : smd solvation model                     
  S Lehtola, MJT Oliveira, MAL Marques          : LibXC Library                           
  Liviu Ungur et al                             : ANISO software                          


 Your calculation uses the libint2 library for the computation of 2-el integrals
 For citations please refer to: http://libint.valeyev.net

 Your ORCA version has been built with support for libXC version: 7.0.0
 For citations please refer to: https://libxc.gitlab.io

 This ORCA versions uses:
   CBLAS   interface :  Fast vector & matrix operations
   LAPACKE interface :  Fast linear algebra routines
   SCALAPACK package :  Parallel linear algebra routines
   Shared memory     :  Shared parallel matrices
   BLAS/LAPACK       :  OpenBLAS 0.3.29  USE64BITINT DYNAMIC_ARCH NO_AFFINITY Cooperlake SINGLE_THREADED
        Core in use  :  Cooperlake
   Copyright (c) 2011-2014, The OpenBLAS Project


  ***********************************
  * Starting time: Wed May 20 12:40:04 2026
  * Host name:     c1-44
  * Process ID:    2431760
  * Working dir.:  /cluster/projects/nn14654k/ylvaos/basis_set_n_funcs/functionals/pbe/PO2/out
  ***********************************

================================================================================

----- Orbital basis set information -----
Your calculation utilizes the basis: cc-pVTZ 
       H, B-Ne : Obtained from the ccRepo (grant-hill.group.shef.ac.uk/ccrepo) Feb. 2017
                 T. H. Dunning, Jr., J. Chem. Phys. 90, 1007 (1989)
            He : Obtained from the ccRepo (grant-hill.group.shef.ac.uk/ccrepo) Feb. 2017
                 D. E. Woon, T. H. Dunning, Jr., J. Chem. Phys. 100, 2975 (1994)
  Li-Be, Na-Mg : Obtained from the ccRepo (grant-hill.group.shef.ac.uk/ccrepo) Feb. 2017
                 B. P. Prascher, D. E. Woon, K. A. Peterson, T. H. Dunning, Jr., A. K. Wilson, Theor. Chem. Acc. 128, 69 (2011)
         Al-Ar : Obtained from the ccRepo (grant-hill.group.shef.ac.uk/ccrepo) Feb. 2017
                 D. E. Woon, T. H. Dunning, Jr., J. Chem. Phys. 98, 1358 (1993)
            Ca : Obtained from the Peterson Research Group Website (tyr0.chem.wsu.edu/~kipeters) Feb. 2017
                 J. Koput, K. A. Peterson, J. Phys. Chem. 106, 9595 (2002)
         Sc-Zn : Obtained from the ccRepo (grant-hill.group.shef.ac.uk/ccrepo) Feb. 2017
                 N. B. Balabanov, K. A. Peterson, J. Chem. Phys. 123, 064107 (2005)
                 N. B. Balabanov, K. A. Peterson, J. Chem. Phys. 125, 074110 (2006)
         Ga-Kr : Obtained from the ccRepo (grant-hill.group.shef.ac.uk/ccrepo) Feb. 2017
                 A. K. Wilson, D. E. Woon, K. A. Peterson, T. H. Dunning, Jr., J. Chem. Phys. 110, 7667 (1999)
             Y : Obtained from the ccRepo (grant-hill.group.shef.ac.uk/ccrepo) Feb. 2017
                 K. A. Peterson, D. Figgen, M. Dolg, H. Stoll, J. Chem. Phys. 126, 124101 (2007)
        Ag, Au : Obtained from the Peterson Research Group Website (tyr0.chem.wsu.edu/~kipeters) Feb. 2017
                 K. A. Peterson, C. Puzzarini, Theor. Chem. Acc. 114, 283 (2005)

================================================================================
                                        WARNINGS
                       Please study these warnings very carefully!
================================================================================


WARNING: your system is open-shell and RHF/RKS was chosen
  ===> : WILL SWITCH to UHF/UKS


================================================================================
                                       INPUT FILE
================================================================================
NAME = /cluster/projects/nn14654k/ylvaos/basis_set_n_funcs/functionals/pbe/PO2/inp/PO2_pbe_ccpvtz.inp
|  1> ! dft cc-pVTZ TightSCF
|  2> %pal nprocs 8 end
|  3> 
|  4> %loc
|  5>   LocMet NewBoys
|  6>   Occ true
|  7> end
|  8> 
|  9> %method
| 10>   
| 11>   functional pbe
| 12> end
| 13> 
| 14> %elprop
| 15>   Dipole true
| 16>   Quadrupole true
| 17> end
| 18> 
| 19> * xyz 0 2
| 20> P    0.000000000000   0.000000000000   0.287900000000
| 21> O    0.000000000000   1.356300000000  -0.269900000000
| 22> O    0.000000000000  -1.356300000000  -0.269900000000
| 23> *
| 24> 
| 25> 
| 26>                          ****END OF INPUT****
================================================================================

                       ****************************
                       * Single Point Calculation *
                       ****************************

---------------------------------
CARTESIAN COORDINATES (ANGSTROEM)
---------------------------------
  P      0.000000    0.000000    0.287900
  O      0.000000    1.356300   -0.269900
  O      0.000000   -1.356300   -0.269900

----------------------------
CARTESIAN COORDINATES (A.U.)
----------------------------
  NO LB      ZA    FRAG     MASS         X           Y           Z
   0 P    15.0000    0    30.974    0.000000    0.000000    0.544052
   1 O     8.0000    0    15.999    0.000000    2.563036   -0.510037
   2 O     8.0000    0    15.999    0.000000   -2.563036   -0.510037

--------------------------------
INTERNAL COORDINATES (ANGSTROEM)
--------------------------------
 P      0   0   0     0.000000000000     0.00000000     0.00000000
 O      1   0   0     1.466523279733     0.00000000     0.00000000
 O      1   2   0     1.466523279733   135.28860674     0.00000000

---------------------------
INTERNAL COORDINATES (A.U.)
---------------------------
 P      0   0   0     0.000000000000     0.00000000     0.00000000
 O      1   0   0     2.771327367716     0.00000000     0.00000000
 O      1   2   0     2.771327367716   135.28860674     0.00000000

---------------------
BASIS SET INFORMATION
---------------------
There are 2 groups of distinct atoms

 Group   1 Type P   : 41s16p2d1f contracted to 5s4p2d1f pattern {13131311/7711/11/1}
 Group   2 Type O   : 18s5p2d1f contracted to 4s3p2d1f pattern {8811/311/11/1}

Atom   0P    basis set group =>   1
Atom   1O    basis set group =>   2
Atom   2O    basis set group =>   2


           ************************************************************
           *        Program running with 8 parallel MPI-processes     *
           *              working on a common directory               *
           ************************************************************
------------------------------------------------------------------------------
                             ORCA STARTUP CALCULATIONS
------------------------------------------------------------------------------
------------------------------------------------------------------------------
                   ___                                                        
                  /   \      - P O W E R E D   B Y -                         
                 /     \                                                     
                 |  |  |   _    _      __       _____    __    __             
                 |  |  |  | |  | |    /  \     |  _  \  |  |  /  |          
                  \  \/   | |  | |   /    \    | | | |  |  | /  /          
                 / \  \   | |__| |  /  /\  \   | |_| |  |  |/  /          
                |  |  |   |  __  | /  /__\  \  |    /   |      \           
                |  |  |   | |  | | |   __   |  |    \   |  |\   \          
                \     /   | |  | | |  |  |  |  | |\  \  |  | \   \       
                 \___/    |_|  |_| |__|  |__|  |_| \__\ |__|  \__/        
                                                                              
                      - O R C A' S   B I G   F R I E N D -                    
                                      &                                       
                       - I N T E G R A L  F E E D E R -                       
                                                                              
 v1 FN, 2020, v2 2021, v3 2022-2024                                           
------------------------------------------------------------------------------


----------------------
SHARK INTEGRAL PACKAGE
----------------------

Number of atoms                             ...      3
Number of basis functions                   ...    131
Number of shells                            ...     59
Maximum angular momentum                    ...      3
Integral batch strategy                     ... SHARK/LIBINT Hybrid
RI-J (if used) integral strategy            ... SPLIT-RIJ (Revised 2003 algorithm where possible)
Printlevel                                  ...      1
Contraction scheme used                     ... PARTIAL GENERAL contraction
Prescreening option                         ... SCHWARTZ
   Thresh                                   ... 2.500e-11
   Tcut                                     ... 2.500e-12
   Tpresel                                  ... 2.500e-12 
Coulomb Range Separation                    ... NOT USED
Exchange Range Separation                   ... NOT USED
Multipole approximations                    ... NOT USED
Finite Nucleus Model                        ... NOT USED
CABS basis                                  ... NOT available
Auxiliary Coulomb fitting basis             ... NOT available
Auxiliary J/K fitting basis                 ... NOT available
Auxiliary Correlation fitting basis         ... NOT available
Auxiliary 'external' fitting basis          ... NOT available

Checking pre-screening integrals            ... done (  0.0 sec) Dimension = 59
Save PGC pre-screening integrals            ... done (  0.0 sec) Dimension = 59
Calculate PGC overlap integrals             ... done (  0.0 sec) Dimension = 32
Calculating pre-screening integrals (ORCA)  ... done (  0.0 sec) Dimension = 32
Shell pair information
Shell pair cut-off parameter TPreSel        ...   2.5e-12
Total number of shell pairs                 ...      1770
Shell pairs after pre-screening             ...      1448
Total number of primitive shell pairs       ...      2022
Primitive shell pairs kept                  ...      1596
          la=0 lb=0:    417 shell pairs
          la=1 lb=0:    443 shell pairs
          la=1 lb=1:    120 shell pairs
          la=2 lb=0:    196 shell pairs
          la=2 lb=1:     90 shell pairs
          la=2 lb=2:     21 shell pairs
          la=3 lb=0:     92 shell pairs
          la=3 lb=1:     45 shell pairs
          la=3 lb=2:     18 shell pairs
          la=3 lb=3:      6 shell pairs

Checking whether 4 symmetric matrices of dimension 131 fit in memory
:Max Core in MB      =   4096.00
 MB in use           =      3.45
 MB left             =   4092.55
 MB needed           =      0.26
 Data fit in memory  = YES
Calculating Nuclear repulsion               ... done (  0.0 sec) ENN=     99.086296046297 Eh

Diagonalization of the overlap matrix:
Smallest eigenvalue                        ... 3.519e-03
Time for diagonalization                   ...    0.001 sec
Threshold for overlap eigenvalues          ... 1.000e-07
Number of eigenvalues below threshold      ... 0
Time for construction of square roots      ...    0.001 sec
Total time needed                          ...    0.004 sec

-------------------
DFT GRID GENERATION
-------------------

General Integration Accuracy     IntAcc      ... 4.388
Radial Grid Type                 RadialGrid  ... OptM3 with GC (2021)
Angular Grid (max. ang.)         AngularGrid ... 4 (Lebedev-302)
Angular grid pruning method      GridPruning ... 4 (adaptive)
Weight generation scheme         WeightScheme... mBecke (2022)
Basis function cutoff            BFCut       ... 1.0000e-11
Integration weight cutoff        WCut        ... 1.0000e-14
Partially contracted basis set               ... off
Rotationally invariant grid construction     ... off
Angular grids for H and He will be reduced by one unit

Total number of grid points                  ...    19622
Total number of batches                      ...      309
Average number of points per batch           ...       63
Average number of grid points per atom       ...     6541

---------------------
SHARK GRID GENERATION
---------------------

General Integration Accuracy     IntAcc      ... 4.388
Radial Grid Type                 RadialGrid  ... OptM3 with GC (2021)
Angular Grid (max. ang.)         AngularGrid ... 4 (Lebedev-302)
Angular grid pruning method      GridPruning ... 4 (adaptive)
Weight generation scheme         WeightScheme... mBecke (2022)
Basis function cutoff            BFCut       ... 1.0000e-11
Integration weight cutoff        WCut        ... 1.0000e-14
Partially contracted basis set               ... off
Rotationally invariant grid construction     ... off
Angular grids for H and He will be reduced by one unit
Core-polarized basis detected: some atoms will have their core
                               angular grid increased.
Steep s-basis detected: some atoms will have their radial
                        grid points doubled.

Total number of grid points                  ...    44068
Total number of batches                      ...      689
Average number of points per batch           ...       63
Average number of grid points per atom       ...    14689
Grids setup in   0.4 sec
Initializing property integral containers    ... done (  0.0 sec)

SHARK setup successfully completed in   0.5 seconds

Maximum memory used throughout the entire STARTUP-calculation: 48.2 MB


           ************************************************************
           *        Program running with 8 parallel MPI-processes     *
           *              working on a common directory               *
           ************************************************************
-------------------------------------------------------------------------------
                                 ORCA GUESS
                   Start orbitals & Density for SCF / CASSCF
-------------------------------------------------------------------------------

------------
SCF SETTINGS
------------
Hamiltonian:
 Density Functional     Method          .... DFT(GTOs)
 Exchange Functional    Exchange        .... PBE
   PBE kappa parameter   XKappa         ....  0.804000
   PBE mue parameter    XMuePBE         ....  0.219520
 Correlation Functional Correlation     .... PBE
   PBE beta parameter  CBetaPBE         ....  0.066725
 LDA part of GGA corr.  LDAOpt          .... PW91-LDA
 Gradients option       PostSCFGGA      .... off
   NL short-range parameter             ....  6.400000


General Settings:
 Integral files         IntName         .... /cluster/projects/nn14654k/ylvaos/basis_set_n_funcs/functionals/pbe/PO2/inp/PO2_pbe_ccpvtz
 Hartree-Fock type      HFTyp           .... UHF
 Total Charge           Charge          ....    0
 Multiplicity           Mult            ....    2
 Number of Electrons    NEL             ....   31
 Basis Dimension        Dim             ....   94
 Nuclear Repulsion      ENuc            ....     99.0862960463 Eh

Convergence Acceleration:
 AO-DIIS                CNVDIIS         .... on
   Start iteration      DIISMaxIt       ....    12
   Startup error        DIISStart       ....  0.200000
   # of expansion vecs  DIISMaxEq       ....     5
   Bias factor          DIISBfac        ....   1.050
   Max. coefficient     DIISMaxC        ....  10.000
 MO-DIIS                CNVKDIIS        .... off
 Trust-Rad. Augm. Hess. CNVTRAH         .... auto
   Auto Start mean grad. ratio tolernc. ....  1.125000
   Auto Start start iteration           ....    50
   Auto Start num. interpolation iter.  ....    10
   Max. Number of Micro iterations      ....    24
   Max. Number of Macro iterations      .... Maxiter - #DIIS iter
   Number of Davidson start vectors     ....     2
   Converg. threshold    (grad. norm)   ....   1.000e-05
   Grad. Scal. Fac. for Micro threshold ....   0.100
   Minimum threshold for Micro iter.    ....   1.000e-02
   NR start threshold (gradient norm)   ....   1.000e-04
   Initial trust radius                 ....   0.400
   Minimum AH scaling param. (alpha)    ....   1.000
   Maximum AH scaling param. (alpha)    .... 1000.000
   Quad. conv. algorithm                .... NR
   White noise on init. David. guess    .... on
   Maximum white noise                  ....   0.010
   Pseudo random numbers                .... off
   Inactive MOs                         .... canonical
   Orbital update algorithm             .... Taylor
   Preconditioner                       .... Diag
   Full preconditioner red. dimension   ....   250
 SOSCF                 CNVSOSCF           .... on
   Start iteration     SOSCFMaxIt         ....   150
   Startup grad/error  SOSCFStart         ....  0.003300
   Hessian update      SOSCFHessUp        .... L-BFGS
   Autom. constraints  SOSCFAutoConstrain .... off
 Level Shifting         CNVShift        .... on
   Level shift para.    LevelShift      ....    0.2500
   Turn off err/grad.   ShiftErr        ....    0.0010
 Zerner damping         CNVZerner       .... off
 Static damping         CNVDamp         .... on
   Fraction old density DampFac         ....    0.7000
   Max. Damping (<1)    DampMax         ....    0.9800
   Min. Damping (>=0)   DampMin         ....    0.0000
   Turn off err/grad.   DampErr         ....    0.1000

SCF Procedure:
 Maximum # iterations   MaxIter         ....   125
 SCF integral mode      SCFMode         .... Direct
   Integral package                     .... SHARK and LIBINT hybrid scheme
 Reset frequency        DirectResetFreq ....    20
 Integral Threshold     Thresh          ....  2.500e-11 Eh
 Primitive CutOff       TCut            ....  2.500e-12 Eh

Convergence Tolerance:
 Convergence Check Mode ConvCheckMode   .... Total+1el-Energy
 Convergence forced     ConvForced      .... 0
 Energy Change          TolE            ....  1.000e-08 Eh
 1-El. energy change                    ....  1.000e-05 Eh
 Orbital Gradient       TolG            ....  1.000e-05
 Orbital Rotation angle TolX            ....  1.000e-05
 DIIS Error             TolErr          ....  5.000e-07

------------------------------
INITIAL GUESS: MODEL POTENTIAL
------------------------------
Loading Hartree-Fock densities                     ... done
Calculating cut-offs                               ... done
Initializing the effective Hamiltonian             ... done
Setting up the integral package (SHARK)            ... done
Starting the Coulomb interaction                   ... done (   0.0 sec)
Making the grid                                    ... done (   0.0 sec)
Mapping shells                                     ... done
Starting the XC term evaluation                    ... done (   0.0 sec)
  promolecular density results
     # of electrons  =     31.000340810
     EX              =    -38.797029818
     EC              =     -1.107802894
     EX+EC           =    -39.904832712
Transforming the Hamiltonian                       ... done (   0.0 sec)
Diagonalizing the Hamiltonian                      ... done (   0.0 sec)
Back transforming the eigenvectors                 ... done (   0.0 sec)
Now organizing SCF variables                       ... done
                      ------------------
                      INITIAL GUESS DONE (   0.1 sec)
                      ------------------
             **** ENERGY FILE WAS UPDATED (/cluster/projects/nn14654k/ylvaos/basis_set_n_funcs/functionals/pbe/PO2/inp/PO2_pbe_ccpvtz.en.tmp) ****
Finished Guess after   0.1 sec
Maximum memory used throughout the entire GUESS-calculation: 7.3 MB


           ************************************************************
           *        Program running with 8 parallel MPI-processes     *
           *              working on a common directory               *
           ************************************************************

-------------------------------------------------------------------------------------------
                                      ORCA LEAN-SCF
                              memory conserving SCF solver
-------------------------------------------------------------------------------------------

----------------------------------------D-I-I-S--------------------------------------------
Iteration    Energy (Eh)           Delta-E    RMSDP     MaxDP     DIISErr   Damp  Time(sec)
-------------------------------------------------------------------------------------------
               ***  Starting incremental Fock matrix formation  ***
    1    -491.3084291922091893     0.00e+00  6.51e-03  4.87e-02  1.71e-01  0.700   0.1
Warning: op=1 Small HOMO/LUMO gap (   0.063) - skipping pre-diagonalization
         Will do a full diagonalization
    2    -491.4520195481600808    -1.44e-01  2.84e-03  2.17e-02  3.97e-02  0.700   0.1
                               ***Turning on AO-DIIS***
    3    -491.4805038552656811    -2.85e-02  1.11e-03  1.10e-02  1.56e-02  0.700   0.1
    4    -491.5013656969404678    -2.09e-02  1.90e-03  2.78e-02  2.24e-02  0.000   0.1
    5    -491.5607211521906379    -5.94e-02  7.44e-04  6.31e-03  1.50e-02  0.000   0.1
    6    -491.5630153567455523    -2.29e-03  3.26e-04  3.26e-03  5.53e-03  0.000   0.2
                              *** Initializing SOSCF ***
---------------------------------------S-O-S-C-F--------------------------------------
Iteration    Energy (Eh)           Delta-E    RMSDP     MaxDP     MaxGrad    Time(sec)
--------------------------------------------------------------------------------------
    7    -491.5633299147992261    -3.15e-04  1.59e-04  2.30e-03  1.98e-03     0.1
               *** Restarting incremental Fock matrix formation ***
    8    -491.5633745249367053    -4.46e-05  2.11e-04  1.65e-03  1.35e-03     0.1
    9    -491.5633462696125093     2.83e-05  1.17e-04  9.64e-04  2.60e-03     0.1
   10    -491.5633862587355338    -4.00e-05  3.11e-05  3.73e-04  1.47e-04     0.1
   11    -491.5633865546627135    -2.96e-07  1.21e-05  2.12e-04  8.09e-05     0.1
   12    -491.5633866499816236    -9.53e-08  2.73e-06  4.77e-05  1.27e-05     0.2
   13    -491.5633866523848496    -2.40e-09  6.26e-07  3.73e-06  6.42e-06     0.1
                 **** Energy Check signals convergence ****

               *****************************************************
               *                     SUCCESS                       *
               *           SCF CONVERGED AFTER  13 CYCLES          *
               *****************************************************

             **** ENERGY FILE WAS UPDATED (/cluster/projects/nn14654k/ylvaos/basis_set_n_funcs/functionals/pbe/PO2/inp/PO2_pbe_ccpvtz.en.tmp) ****

----------------
TOTAL SCF ENERGY
----------------

Total Energy       :       -491.56338665304071 Eh          -13376.11978 eV

Components:
Nuclear Repulsion  :         99.08629604629714 Eh            2696.27519 eV
Electronic Energy  :       -590.64968269933786 Eh          -16072.39497 eV
One Electron Energy:       -875.31136296211025 Eh          -23818.43309 eV
Two Electron Energy:        284.66168026277239 Eh            7746.03812 eV

Virial components:
Potential Energy   :       -981.40426657815806 Eh          -26705.36777 eV
Kinetic Energy     :        489.84087992511741 Eh           13329.24799 eV
Virial Ratio       :          2.00351646177058

DFT components:
N(Alpha)           :       16.000009798369 electrons
N(Beta)            :       15.000006080905 electrons
N(Total)           :       31.000015879274 electrons
E(X)               :      -38.993880613368 Eh       
E(C)               :       -1.113344135819 Eh       
E(XC)              :      -40.107224749187 Eh       

---------------
SCF CONVERGENCE
---------------

  Last Energy change         ...    2.4032e-09  Tolerance :   1.0000e-08
  Last MAX-Density change    ...    3.7251e-06  Tolerance :   1.0000e-07
  Last RMS-Density change    ...    6.2603e-07  Tolerance :   5.0000e-09
  Last DIIS Error            ...    1.9784e-03  Tolerance :   5.0000e-07
  Last Orbital Gradient      ...    6.4213e-06  Tolerance :   1.0000e-05
  Last Orbital Rotation      ...    1.3644e-05  Tolerance :   1.0000e-05


----------------------
UHF SPIN CONTAMINATION
----------------------

Warning: in a DFT calculation there is little theoretical justification to 
         calculate <S**2> as in Hartree-Fock theory. We will do it anyways
         but you should keep in mind that the values have only limited relevance

Expectation value of <S**2>     :     0.752785
Ideal value S*(S+1) for S=0.5   :     0.750000
Deviation                       :     0.002785

----------------
ORBITAL ENERGIES
----------------
                 SPIN UP ORBITALS
  NO   OCC          E(Eh)            E(eV) 
   0   1.0000     -76.442732     -2080.1125 
   1   1.0000     -18.806172      -511.7420 
   2   1.0000     -18.806171      -511.7419 
   3   1.0000      -6.416231      -174.5945 
   4   1.0000      -4.636364      -126.1619 
   5   1.0000      -4.633367      -126.0803 
   6   1.0000      -4.630429      -126.0004 
   7   1.0000      -0.987813       -26.8798 
   8   1.0000      -0.942660       -25.6511 
   9   1.0000      -0.510416       -13.8891 
  10   1.0000      -0.414042       -11.2667 
  11   1.0000      -0.399858       -10.8807 
  12   1.0000      -0.399117       -10.8605 
  13   1.0000      -0.330738        -8.9998 
  14   1.0000      -0.322307        -8.7704 
  15   1.0000      -0.263951        -7.1825 
  16   0.0000      -0.117644        -3.2013 
  17   0.0000      -0.010920        -0.2971 
  18   0.0000       0.077862         2.1187 
  19   0.0000       0.173033         4.7085 
  20   0.0000       0.206800         5.6273 
  21   0.0000       0.219579         5.9751 
  22   0.0000       0.229671         6.2497 
  23   0.0000       0.246226         6.7001 
  24   0.0000       0.276193         7.5156 
  25   0.0000       0.364488         9.9182 
  26   0.0000       0.467167        12.7123 

                 SPIN DOWN ORBITALS
  NO   OCC          E(Eh)            E(eV) 
   0   1.0000     -76.441091     -2080.0678 
   1   1.0000     -18.799885      -511.5709 
   2   1.0000     -18.799884      -511.5708 
   3   1.0000      -6.414089      -174.5362 
   4   1.0000      -4.634342      -126.1069 
   5   1.0000      -4.629250      -125.9683 
   6   1.0000      -4.629086      -125.9638 
   7   1.0000      -0.973962       -26.5028 
   8   1.0000      -0.927917       -25.2499 
   9   1.0000      -0.488702       -13.2982 
  10   1.0000      -0.394571       -10.7368 
  11   1.0000      -0.392128       -10.6704 
  12   1.0000      -0.383917       -10.4469 
  13   1.0000      -0.326206        -8.8765 
  14   1.0000      -0.312425        -8.5015 
  15   0.0000      -0.216095        -5.8802 
  16   0.0000      -0.095137        -2.5888 
  17   0.0000       0.004133         0.1125 
  18   0.0000       0.091907         2.5009 
  19   0.0000       0.190421         5.1816 
  20   0.0000       0.216452         5.8900 
  21   0.0000       0.234661         6.3854 
  22   0.0000       0.253762         6.9052 
  23   0.0000       0.264515         7.1978 
  24   0.0000       0.292190         7.9509 
  25   0.0000       0.372465        10.1353 
*Only the first 10 virtual orbitals were printed.

                    ********************************
                    * MULLIKEN POPULATION ANALYSIS *
                    ********************************

--------------------------------------------
MULLIKEN ATOMIC CHARGES AND SPIN POPULATIONS
--------------------------------------------
   0 P :    0.597175    0.561224
   1 O :   -0.298587    0.219388
   2 O :   -0.298587    0.219388
Sum of atomic charges         :    0.0000000
Sum of atomic spin populations:    1.0000000

-----------------------------------------------------
MULLIKEN REDUCED ORBITAL CHARGES AND SPIN POPULATIONS
-----------------------------------------------------
CHARGE
  0 P s       :     5.493583  s :     5.493583
      pz      :     2.859763  p :     8.239075
      px      :     2.751331
      py      :     2.627981
      dz2     :     0.081856  d :     0.598553
      dxz     :     0.014113
      dyz     :     0.182714
      dx2y2   :     0.142397
      dxy     :     0.177471
      f0      :     0.004689  f :     0.071615
      f+1     :     0.000169
      f-1     :     0.024609
      f+2     :     0.010939
      f-2     :     0.009673
      f+3     :     0.012950
      f-3     :     0.008586

  1 O s       :     3.780888  s :     3.780888
      pz      :     1.526853  p :     4.489329
      px      :     1.507990
      py      :     1.454486
      dz2     :     0.003891  d :     0.027075
      dxz     :     0.001185
      dyz     :     0.007659
      dx2y2   :     0.006772
      dxy     :     0.007568
      f0      :     0.000110  f :     0.001296
      f+1     :     0.000005
      f-1     :     0.000304
      f+2     :     0.000249
      f-2     :     0.000135
      f+3     :     0.000264
      f-3     :     0.000230

  2 O s       :     3.780888  s :     3.780888
      pz      :     1.526853  p :     4.489329
      px      :     1.507990
      py      :     1.454486
      dz2     :     0.003891  d :     0.027075
      dxz     :     0.001185
      dyz     :     0.007659
      dx2y2   :     0.006772
      dxy     :     0.007568
      f0      :     0.000110  f :     0.001296
      f+1     :     0.000005
      f-1     :     0.000304
      f+2     :     0.000249
      f-2     :     0.000135
      f+3     :     0.000264
      f-3     :     0.000230


SPIN
  0 P s       :     0.311058  s :     0.311058
      pz      :     0.175913  p :     0.175106
      px      :     0.024211
      py      :    -0.025018
      dz2     :     0.029668  d :     0.081507
      dxz     :    -0.003818
      dyz     :    -0.001687
      dx2y2   :     0.057943
      dxy     :    -0.000599
      f0      :    -0.000340  f :    -0.006447
      f+1     :    -0.000085
      f-1     :    -0.001887
      f+2     :    -0.000906
      f-2     :    -0.000389
      f+3     :    -0.002054
      f-3     :    -0.000784

  1 O s       :    -0.001555  s :    -0.001555
      pz      :     0.184616  p :     0.220613
      px      :    -0.008858
      py      :     0.044856
      dz2     :     0.000010  d :     0.000187
      dxz     :     0.000029
      dyz     :    -0.000110
      dx2y2   :     0.000114
      dxy     :     0.000144
      f0      :     0.000002  f :     0.000143
      f+1     :    -0.000004
      f-1     :     0.000025
      f+2     :     0.000041
      f-2     :     0.000035
      f+3     :     0.000022
      f-3     :     0.000022

  2 O s       :    -0.001555  s :    -0.001555
      pz      :     0.184616  p :     0.220613
      px      :    -0.008858
      py      :     0.044856
      dz2     :     0.000010  d :     0.000187
      dxz     :     0.000029
      dyz     :    -0.000110
      dx2y2   :     0.000114
      dxy     :     0.000144
      f0      :     0.000002  f :     0.000143
      f+1     :    -0.000004
      f-1     :     0.000025
      f+2     :     0.000041
      f-2     :     0.000035
      f+3     :     0.000022
      f-3     :     0.000022



                     *******************************
                     * LOEWDIN POPULATION ANALYSIS *
                     *******************************

-------------------------------------------
LOEWDIN ATOMIC CHARGES AND SPIN POPULATIONS
-------------------------------------------
   0 P :    0.061880    0.568889
   1 O :   -0.030940    0.215556
   2 O :   -0.030940    0.215556

----------------------------------------------------
LOEWDIN REDUCED ORBITAL CHARGES AND SPIN POPULATIONS
----------------------------------------------------
CHARGE
  0 P s       :     5.180267  s :     5.180267
      pz      :     2.905296  p :     8.413723
      px      :     2.732589
      py      :     2.775837
      dz2     :     0.143203  d :     1.102481
      dxz     :     0.018922
      dyz     :     0.345418
      dx2y2   :     0.309002
      dxy     :     0.285934
      f0      :     0.019485  f :     0.241650
      f+1     :     0.000280
      f-1     :     0.073554
      f+2     :     0.044396
      f-2     :     0.031338
      f+3     :     0.030761
      f-3     :     0.041835

  1 O s       :     3.516007  s :     3.516007
      pz      :     1.481356  p :     4.462965
      px      :     1.438791
      py      :     1.542817
      dz2     :     0.005739  d :     0.049750
      dxz     :     0.001404
      dyz     :     0.017382
      dx2y2   :     0.015910
      dxy     :     0.009314
      f0      :     0.000248  f :     0.002218
      f+1     :     0.000013
      f-1     :     0.000439
      f+2     :     0.000528
      f-2     :     0.000182
      f+3     :     0.000383
      f-3     :     0.000427

  2 O s       :     3.516007  s :     3.516007
      pz      :     1.481356  p :     4.462965
      px      :     1.438791
      py      :     1.542817
      dz2     :     0.005739  d :     0.049750
      dxz     :     0.001404
      dyz     :     0.017382
      dx2y2   :     0.015910
      dxy     :     0.009314
      f0      :     0.000248  f :     0.002218
      f+1     :     0.000013
      f-1     :     0.000439
      f+2     :     0.000528
      f-2     :     0.000182
      f+3     :     0.000383
      f-3     :     0.000427


SPIN
  0 P s       :     0.222076  s :     0.222076
      pz      :     0.188318  p :     0.198162
      px      :     0.021930
      py      :    -0.012085
      dz2     :     0.058916  d :     0.151883
      dxz     :    -0.003556
      dyz     :    -0.002960
      dx2y2   :     0.100410
      dxy     :    -0.000927
      f0      :     0.000069  f :    -0.003234
      f+1     :    -0.000072
      f-1     :    -0.000630
      f+2     :    -0.000944
      f-2     :    -0.000325
      f+3     :    -0.001963
      f-3     :     0.000631

  1 O s       :     0.012858  s :     0.012858
      pz      :     0.166620  p :     0.201705
      px      :    -0.007800
      py      :     0.042885
      dz2     :     0.000252  d :     0.000892
      dxz     :     0.000054
      dyz     :     0.000489
      dx2y2   :    -0.000067
      dxy     :     0.000164
      f0      :    -0.000002  f :     0.000101
      f+1     :    -0.000001
      f-1     :     0.000028
      f+2     :     0.000016
      f-2     :     0.000025
      f+3     :     0.000014
      f-3     :     0.000021

  2 O s       :     0.012858  s :     0.012858
      pz      :     0.166620  p :     0.201705
      px      :    -0.007800
      py      :     0.042885
      dz2     :     0.000252  d :     0.000892
      dxz     :     0.000054
      dyz     :     0.000489
      dx2y2   :    -0.000067
      dxy     :     0.000164
      f0      :    -0.000002  f :     0.000101
      f+1     :    -0.000001
      f-1     :     0.000028
      f+2     :     0.000016
      f-2     :     0.000025
      f+3     :     0.000014
      f-3     :     0.000021



                      *****************************
                      * MAYER POPULATION ANALYSIS *
                      *****************************

  NA   - Mulliken gross atomic population
  ZA   - Total nuclear charge
  QA   - Mulliken gross atomic charge
  VA   - Mayer's total valence
  BVA  - Mayer's bonded valence
  FA   - Mayer's free valence

  ATOM       NA         ZA         QA         VA         BVA        FA
  0 P     14.4028    15.0000     0.5972     4.6596     4.2948     0.3648
  1 O      8.2986     8.0000    -0.2986     2.3789     2.3293     0.0496
  2 O      8.2986     8.0000    -0.2986     2.3789     2.3293     0.0496

  Mayer bond orders larger than 0.100000
B(  0-P ,  1-O ) :   2.1474 B(  0-P ,  2-O ) :   2.1474 B(  1-O ,  2-O ) :   0.1819 


-------
TIMINGS
-------

Total SCF time: 0 days 0 hours 0 min 2 sec 

Total time                  ....       2.002 sec
Sum of individual times     ....       1.877 sec  ( 93.8%)

SCF preparation             ....       0.101 sec  (  5.1%)
Fock matrix formation       ....       1.218 sec  ( 60.8%)
  Startup                   ....       0.020 sec  (  1.6% of F)
  Coulomb formation         ....       0.559 sec  ( 45.9% of F)
  XC integration            ....       0.413 sec  ( 33.9% of F)
    XC Preparation          ....       0.000 sec  (  0.0% of XC)
    Basis function eval.    ....       0.040 sec  (  9.6% of XC)
    Density eval.           ....       0.028 sec  (  6.8% of XC)
    XC-Functional eval.     ....       0.010 sec  (  2.5% of XC)
    XC-Potential eval.      ....       0.065 sec  ( 15.7% of XC)
Diagonalization             ....       0.000 sec  (  0.0%)
Density matrix formation    ....       0.135 sec  (  6.8%)
Total Energy calculation    ....       0.033 sec  (  1.6%)
Population analysis         ....       0.014 sec  (  0.7%)
Orbital Transformation      ....       0.027 sec  (  1.3%)
Orbital Orthonormalization  ....       0.000 sec  (  0.0%)
DIIS solution               ....       0.226 sec  ( 11.3%)
SOSCF solution              ....       0.123 sec  (  6.1%)
Finished LeanSCF after   2.0 sec

Maximum memory used throughout the entire LEANSCF-calculation: 11.6 MB


           ************************************************************
           *        Program running with 8 parallel MPI-processes     *
           *              working on a common directory               *
           ************************************************************

------------------------------------------------------------------------------
                         ORCA PROPERTY INTEGRAL CALCULATIONS
------------------------------------------------------------------------------

GBWName                                   ... /cluster/projects/nn14654k/ylvaos/basis_set_n_funcs/functionals/pbe/PO2/inp/PO2_pbe_ccpvtz.gbw
Number of atoms                           ...      3
Number of basis functions                 ...    131
Max core memory                           ...   4096 MB

Dipole integrals                          ... YES
Quadrupole integrals                      ... YES
Linear momentum integrals                 ...  NO
Angular momentum integrals                ...  NO
Higher moments length integrals           ...  NO
Higher moments velocity integrals         ...  NO
Kinetic energy integrals                  ...  NO
GIAO right hand sides                     ...  NO
GIAO dipole derivative integrals          ...  NO
SOC integrals                             ...  NO
EPR diamagnetic integrals (GIAO)          ...  NO
EPR gauge integrals                       ...  NO
Field gradient integrals                  ...  NO (   0 nuclei)
Spin-dipole/Fermi contact integrals       ...  NO (   0 nuclei)
Contact density integrals                 ...  NO (   0 nuclei)
Nucleus-orbit integrals                   ...  NO (   0 nuclei)
Geometric perturbations                   ...  NO (   3 nuclei)

Choice of electric origin   ... Center of mass
Position of electric origin ... (  0.0000,  0.0000,  0.0084) 
Choice of magnetic origin   ... GIAO
Position of magnetic origin ... (  0.0000,  0.0000,  0.0000) 

Calculating integrals                     ... Electric Dipole (Length)     done (  0.0 sec)
Calculating integrals                     ... Electric Quadrupole (Length) done (  0.0 sec)

Property integrals calculated in   0.0 sec

Maximum memory used throughout the entire PROPINT-calculation: 7.7 MB
------------------------------------------------------------------------------
                           ORCA ORBITAL LOCALIZATION
------------------------------------------------------------------------------

Input orbitals are from                  ... /cluster/projects/nn14654k/ylvaos/basis_set_n_funcs/functionals/pbe/PO2/inp/PO2_pbe_ccpvtz.gbw
Output orbitals are to                   ... /cluster/projects/nn14654k/ylvaos/basis_set_n_funcs/functionals/pbe/PO2/inp/PO2_pbe_ccpvtz.loc
Max. number of iterations                ... 128
Localizations seeded randomly            ... on
Convergence tolerance                    ... 1.000e-06
Threshold for strong local MOs           ... 9.500e-01
Threshold for bond MOs                   ... 8.500e-01
Operator                                 ... 0
Orbital range for localization           ... 4 to 15
Localization criterion                   ... NEW-BOYS
Doing the dipole integrals               ... o.k.
Initial value of the localization sum :    31.516953
ITERATION   0 : L=   47.0542137972 DL=  1.55e+01 (AVERGE_DL)=    0.4851938218 
ITERATION   1 : L=   49.9229366445 DL=  2.87e+00 (AVERGE_DL)=    0.2084838068 
ITERATION   2 : L=   50.0999464686 DL=  1.77e-01 (AVERGE_DL)=    0.0517877112 
ITERATION   3 : L=   50.1050010085 DL=  5.05e-03 (AVERGE_DL)=    0.0087512250 
ITERATION   4 : L=   50.1061945388 DL=  1.19e-03 (AVERGE_DL)=    0.0042525042 
ITERATION   5 : L=   50.1065516855 DL=  3.57e-04 (AVERGE_DL)=    0.0023262233 
ITERATION   6 : L=   50.1066563883 DL=  1.05e-04 (AVERGE_DL)=    0.0012595256 
ITERATION   7 : L=   50.1066860114 DL=  2.96e-05 (AVERGE_DL)=    0.0006699517 
ITERATION   8 : L=   50.1066941960 DL=  8.18e-06 (AVERGE_DL)=    0.0003521502 
ITERATION   9 : L=   50.1066964197 DL=  2.22e-06 (AVERGE_DL)=    0.0001835531 
ITERATION  10 : L=   50.1066970150 DL=  5.95e-07 (AVERGE_DL)=    0.0000949755 
LOCALIZATION SUM CONVERGED


--------------------------------------------------------------------------------
                    LOCALIZED MOLECULAR ORBITAL COMPOSITIONS
--------------------------------------------------------------------------------

The Mulliken populations for each LMO on each atom are computed
The LMO`s will be ordered according to atom index and type
  (A) Strongly localized MO`s have populations of >=0.950 on one atom
  (B) Two center bond orbitals have populations of >=0.850 on two atoms
  (C) Other MO`s are considered to be `delocalized`

FOUND  -   6 strongly local MO`s
       -   6 two center bond MO`s
       -   0 significantly delocalized MO`s

Rather strongly localized orbitals:
MO   9:   2O  -   0.951136
MO   8:   1O  -   0.951142
MO   7:   0P  -   1.040045
MO   6:   0P  -   1.000543
MO   5:   0P  -   1.000543
MO   4:   0P  -   1.002390
Bond-like localized orbitals:
MO  15:   2O  -   0.872174  and   0P  -   0.127483
MO  14:   2O  -   0.725736  and   0P  -   0.272330
MO  13:   2O  -   0.725724  and   0P  -   0.272345
MO  12:   1O  -   0.725733  and   0P  -   0.272336
MO  11:   1O  -   0.872170  and   0P  -   0.127487
MO  10:   1O  -   0.725723  and   0P  -   0.272342
Localized MO's were stored in: /cluster/projects/nn14654k/ylvaos/basis_set_n_funcs/functionals/pbe/PO2/inp/PO2_pbe_ccpvtz.loc
------------------------------------------------------------------------------
                           ORCA ORBITAL LOCALIZATION
------------------------------------------------------------------------------

Input orbitals are from                  ... /cluster/projects/nn14654k/ylvaos/basis_set_n_funcs/functionals/pbe/PO2/inp/PO2_pbe_ccpvtz.loc
Output orbitals are to                   ... /cluster/projects/nn14654k/ylvaos/basis_set_n_funcs/functionals/pbe/PO2/inp/PO2_pbe_ccpvtz.loc
Max. number of iterations                ... 128
Localizations seeded randomly            ... on
Convergence tolerance                    ... 1.000e-06
Threshold for strong local MOs           ... 9.500e-01
Threshold for bond MOs                   ... 8.500e-01
Operator                                 ... 1
Orbital range for localization           ... 4 to 14
Localization criterion                   ... NEW-BOYS
Doing the dipole integrals               ... o.k.
Initial value of the localization sum :    28.857043
ITERATION   0 : L=   40.3037215693 DL=  1.14e+01 (AVERGE_DL)=    0.4562032693 
ITERATION   1 : L=   42.3160203994 DL=  2.01e+00 (AVERGE_DL)=    0.1912779429 
ITERATION   2 : L=   42.7398203901 DL=  4.24e-01 (AVERGE_DL)=    0.0877807176 
ITERATION   3 : L=   42.7800218164 DL=  4.02e-02 (AVERGE_DL)=    0.0270358100 
ITERATION   4 : L=   42.7840350549 DL=  4.01e-03 (AVERGE_DL)=    0.0085421294 
ITERATION   5 : L=   42.7842731939 DL=  2.38e-04 (AVERGE_DL)=    0.0020808172 
ITERATION   6 : L=   42.7842927977 DL=  1.96e-05 (AVERGE_DL)=    0.0005970198 
ITERATION   7 : L=   42.7843009248 DL=  8.13e-06 (AVERGE_DL)=    0.0003844013 
ITERATION   8 : L=   42.7843067805 DL=  5.86e-06 (AVERGE_DL)=    0.0003262951 
ITERATION   9 : L=   42.7843110130 DL=  4.23e-06 (AVERGE_DL)=    0.0002774041 
ITERATION  10 : L=   42.7843140528 DL=  3.04e-06 (AVERGE_DL)=    0.0002350959 
ITERATION  11 : L=   42.7843162348 DL=  2.18e-06 (AVERGE_DL)=    0.0001991778 
ITERATION  12 : L=   42.7843178017 DL=  1.57e-06 (AVERGE_DL)=    0.0001687899 
ITERATION  13 : L=   42.7843189282 DL=  1.13e-06 (AVERGE_DL)=    0.0001431156 
ITERATION  14 : L=   42.7843197380 DL=  8.10e-07 (AVERGE_DL)=    0.0001213369 
LOCALIZATION SUM CONVERGED


--------------------------------------------------------------------------------
                    LOCALIZED MOLECULAR ORBITAL COMPOSITIONS
--------------------------------------------------------------------------------

The Mulliken populations for each LMO on each atom are computed
The LMO`s will be ordered according to atom index and type
  (A) Strongly localized MO`s have populations of >=0.950 on one atom
  (B) Two center bond orbitals have populations of >=0.850 on two atoms
  (C) Other MO`s are considered to be `delocalized`

FOUND  -   3 strongly local MO`s
       -   8 two center bond MO`s
       -   0 significantly delocalized MO`s

Rather strongly localized orbitals:
MO   6:   0P  -   1.000336
MO   5:   0P  -   1.000336
MO   4:   0P  -   1.002251
Bond-like localized orbitals:
MO  14:   2O  -   0.562392  and   0P  -   0.430067
MO  13:   2O  -   0.761264  and   0P  -   0.236764
MO  12:   2O  -   0.761643  and   0P  -   0.236373
MO  11:   2O  -   0.940029  and   0P  -   0.057103
MO  10:   1O  -   0.562397  and   0P  -   0.430061
MO   9:   1O  -   0.761317  and   0P  -   0.236712
MO   8:   1O  -   0.761585  and   0P  -   0.236431
MO   7:   1O  -   0.940028  and   0P  -   0.057103
Localized MO's were stored in: /cluster/projects/nn14654k/ylvaos/basis_set_n_funcs/functionals/pbe/PO2/inp/PO2_pbe_ccpvtz.loc

-------------------------   --------------------
FINAL SINGLE POINT ENERGY      -491.563386653041
-------------------------   --------------------



           ************************************************************
           *        Program running with 8 parallel MPI-processes     *
           *              working on a common directory               *
           ************************************************************

------------------------------------------------------------------------------
                              ORCA PROPERTY CALCULATIONS
------------------------------------------------------------------------------

GBWName                                 ... /cluster/projects/nn14654k/ylvaos/basis_set_n_funcs/functionals/pbe/PO2/inp/PO2_pbe_ccpvtz.gbw
Number of atoms                         ...      3
Number of basis functions               ...    131
Max core memory                         ...   4096 MB

Electric properties:
Dipole moment                           ... YES
Quadrupole moment                       ... YES
Static polarizability (Dipole/Dipole)   ...  NO
Static polarizability (Dipole/Quad.)    ...  NO
Static polarizability (Quad./Quad.)     ...  NO
Static polarizability (Velocity)        ...  NO
Static hyperpolarizability              ...  NO

Atomic electric properties:
Dipole moment                           ...  NO
Quadrupole moment                       ...  NO
Static polarizability                   ...  NO

Choice of electric origin               ... Center of mass
Position of electric origin             ...     0.000000     0.000000     0.008437

General magnetic properties:
Magnetizability                         ...  NO

EPR properties:
g-Tensor (aka g-matrix)                 ...  NO
Zero-Field splitting spin-orbit         ...  NO
Zero-field splitting spin-spin          ...  NO
Hyperfine couplings                     ...  NO (   0 nuclei)
Quadrupole couplings                    ...  NO (   0 nuclei)
Contact density                         ...  NO (   0 nuclei)

NMR properties:
Chemical shifts                         ...  NO (   0 nuclei)
Spin-rotation constants                 ...  NO (   0 nuclei)
Spin-spin couplings                     ...  NO (   0 nuclei,    0 pairs)

Choice of magnetic origin               ... GIAO
Position of magnetic origin             ...     0.000000     0.000000     0.000000

Properties with geometric perturbations:
SCF Hessian                             ...  NO
IR spectrum                             ...  NO
VCD spectrum                            ...  NO
X-ray spectroscopy properties:
SCF XES/XAS/RIXS spectra                ...  NO

SCF SOC stabilization energy            ...  NO
Diagonal Born-Oppenheimer correction    ...  NO

-------------
DIPOLE MOMENT
-------------

Method             : SCF
Type of density    : Electron Density
Multiplicity       :   2
Irrep              :   0
Energy             :  -491.5633866530407090 Eh
Basis              : AO
                                X                 Y                 Z
Electronic contribution:     -0.000000000      -0.000000000       0.737558356
Nuclear contribution   :      0.000000000       0.000000000      -0.261362976
                        -----------------------------------------
Total Dipole Moment    :     -0.000000000      -0.000000000       0.476195380
                        -----------------------------------------
Magnitude (a.u.)       :      0.476195380
Magnitude (Debye)      :      1.210392464



--------------------
Rotational spectrum 
--------------------
 
Rotational constants in cm-1:             3.442444             0.286393             0.264396 
Rotational constants in MHz :        103201.869580          8585.841533          7926.407020 

Dipole components along the rotational axes: 
x,y,z [a.u.] :    -0.000000     0.476195    -0.000000 
x,y,z [Debye]:    -0.000000     1.210392    -0.000000 

 

Dipole moment calculation done in   0.0 sec 

-----------------
QUADRUPOLE MOMENT
-----------------

Method             : SCF
Type of density    : Electron Density
Multiplicity       :   2
Irrep              :   0
Energy             :  -491.5633866530407090 Eh
Basis              : AO

                XX              YY              ZZ              XY              XZ              YZ
  NUC        0.000000000   105.106420135     8.604299986     0.000000000     0.000000000     0.000000000
  EL       -15.459859800  -125.703180219   -24.729581998    -0.000000000     0.000000000     0.000000001
  TOT      -15.459859800   -20.596760084   -16.125282012    -0.000000000     0.000000000     0.000000001 (a.u.)
           -20.794040158   -27.703346722   -21.689055791    -0.000000000     0.000000000     0.000000001 (Buckingham)

diagonalized tensor:
           -20.596760084   -16.125282012   -15.459859800 (a.u.)
           -27.703346722   -21.689055791   -20.794040158 (Buckingham)
           -12.923597494     5.119275298     7.804322196 (traceless form in Buckingham)

             0.000000000     0.000000000     1.000000000
             1.000000000    -0.000000000    -0.000000000
            -0.000000000    -1.000000000     0.000000000
        
Isotropic quadrupole :   -17.393967299

Quadrupole moment calculation done in   0.0 sec (  0.0 sec for integrals)

Maximum memory used throughout the entire PROP-calculation: 4.0 MB

--------------------------------
SUGGESTED CITATIONS FOR THIS RUN
--------------------------------

Below you find a list of papers that are relevant to this ORCA run
We neither can nor want to force you to cite these papers, but we appreciate if you do
You receive ORCA, which is the product of decades of hard work by many enthusiastic individuals, for free
The only thing we kindly ask in return is that you cite our papers,
We deeply appreciate it, if you show your appreciation for ORCA by not just citing the generic ORCA reference.

Please note that relegating all ORCA citations to the supporting information does *not* help us.
SI sections are not indexed - citations you put there will not count into any citation statistics
But we need these citations in order to attract the funding resources that allow us to do what we are doing

Therefore, if you are a happy ORCA user, please consider citing a few of the papers listed below in the main body of your paper

In addition to the list printed below, the program has created the file /cluster/projects/nn14654k/ylvaos/basis_set_n_funcs/functionals/pbe/PO2/inp/PO2_pbe_ccpvtz.bibtex that contains the list in bibtex format
You can import this file easily into all common literature databanks and citation aid programs

It goes without saying that in many instances, there are alternative algorithms to achieve similar
results as the ones you have gotten from ORCA. It is, of course, also the case that in some instances
ORCA just re-implements algorithms worked out by others. We are fully aware of that and we are also
fully appreciative of our colleagues work. Hence this citation list should not be read as indicating
that the listed papers, which are focused on our own work, are the only ones worth citing. It simply
meant to make it easier for users to cite ORCA specific papers. It is not a substitute for doing your
own literature research and citing the relevant literature in a scientifically appropriate manner.

List of essential papers. We consider these as the minimum necessary citations

  1. Neese, F.
     Software update: the ORCA program system, version 6.0
     WIRES Comput. Molec. Sci. 2025 15(1), e70019
     doi.org/10.1002/wcms.70019

List of papers to cite with high priority. The work reported in these papers was absolutely
necessary for this run to complete.
Our perspective: the developers of density functionals and basis sets usually get cited in chemistry papers
Good! But without the algorithms to do something with them, the functionals or basis sets would not do anything.
Hence, in our opinion, the algorithm design and method developments papers are equally worthy of getting cited

  1. Neese, F.
     The SHARK Integral Generation and Digestion System
     J. Comp. Chem. 2022 44(3), 381
     doi.org/10.1002/jcc.26942

List of suggested additional citations. These are papers that are important in the 'surrounding' of 
of this run, or papers that preceded the highly important papers. If you like your results we are grateful for a citation.

  1. Neese, F.
     The ORCA program system
     WIRES Comput. Molec. Sci. 2012 2(1), 73-78
     doi.org/10.1002/wcms.81
  2. Neese, F.
     Software update: the ORCA program system, version 4.0
     WIRES Comput. Molec. Sci. 2018 8(1), 1-6
     doi.org/10.1002/wcms.1327
  3. Neese, F.; Wennmohs, F.; Becker, U.; Riplinger, C.
     The ORCA quantum chemistry program package
     J. Chem. Phys. 2020 152(22), 224108
     doi.org/10.1063/5.0004608
  4. Neese, F.
     Software update: The ORCA program system—Version 5.0
     WIRES Comput. Molec. Sci. 2022 12(1), e1606
     doi.org/10.1002/wcms.1606

List of optional additional citations

  1. Neese, F.
     Approximate second-order SCF convergence for spin unrestricted wavefunctions
     Chem. Phys. Lett. 2000 325(1-3), 93-98
     doi.org/10.1016/s0009-2614(00)00662-x

Timings for individual modules:

Sum of individual times          ...        3.779 sec (=   0.063 min)
Startup calculation              ...        0.746 sec (=   0.012 min)  19.7 %
SCF iterations                   ...        2.530 sec (=   0.042 min)  67.0 %
Property integrals               ...        0.254 sec (=   0.004 min)   6.7 %
Property calculations            ...        0.241 sec (=   0.004 min)   6.4 %
Orbital localization             ...        0.008 sec (=   0.000 min)   0.2 %
                             ****ORCA TERMINATED NORMALLY****
TOTAL RUN TIME: 0 days 0 hours 0 minutes 4 seconds 636 msec
