
                                 *****************
                                 * O   R   C   A *
                                 *****************

                                            #,                                       
                                            ###                                      
                                            ####                                     
                                            #####                                    
                                            ######                                   
                                           ########,                                 
                                     ,,################,,,,,                         
                               ,,#################################,,                 
                          ,,##########################################,,             
                       ,#########################################, ''#####,          
                    ,#############################################,,   '####,        
                  ,##################################################,,,,####,       
                ,###########''''           ''''###############################       
              ,#####''   ,,,,##########,,,,          '''####'''          '####       
            ,##' ,,,,###########################,,,                        '##       
           ' ,,###''''                  '''############,,,                           
         ,,##''                                '''############,,,,        ,,,,,,###''
      ,#''                                            '''#######################'''  
     '                                                          ''''####''''         
             ,#######,   #######,   ,#######,      ##                                
            ,#'     '#,  ##    ##  ,#'     '#,    #''#        ,####,    ,#,          
            ##       ##  ##   ,#'  ##            #'  '#       #'       ,# #          
            ##       ##  #######   ##           ,######,      #####,      #          
            '#,     ,#'  ##    ##  '#,     ,#' ,#      #,     #,   #      #          
             '#######'   ##     ##  '#######'  #'      '#     '####' #    #          



                #########################################################
                #                        -***-                          #
                #          Department of theory and spectroscopy        #
                #                                                       #
                #                      Frank Neese                      #
                #                                                       #
                #     Directorship, Architecture, Infrastructure        #
                #                    SHARK, DRIVERS                     #
                #        Core code/Algorithms in most modules           #
                #                                                       #
                #        Max Planck Institute fuer Kohlenforschung      #
                #                Kaiser Wilhelm Platz 1                 #
                #                 D-45470 Muelheim/Ruhr                 #
                #                      Germany                          #
                #                                                       #
                #                  All rights reserved                  #
                #                        -***-                          #
                #########################################################


                         Program Version 6.1.1  -  RELEASE   -
                                (GIT: $487d211c$)
                          ($2025-11-21 10:33:24 +0100$)


 With contributions from (in alphabetic order):
[Max-Planck-Institut fuer Kohlenforschung]                               
  Daniel Aravena         : Magnetic Suceptibility                        
  Michael Atanasov       : Ab Initio Ligand Field Theory (pilot matlab implementation)
  Alexander A. Auer      : GIAO ZORA, VPT2 properties, NMR spectrum      
  Ute Becker             : All parallelization in ORCA, NUMFREQ, NUMCALC 
  Giovanni Bistoni       : ED, misc. LED, open-shell LED, HFLD           
  Dmytro Bykov           : pre 5.0 version of the SCF Hessian            
  Marcos Casanova-Páez   : Triplet and SCS-CIS(D). UHF-(DLPNO)-IP/EA/STEOM-CCSD. UHF-CVS-IP/STEOM-CCSD   
  Vijay G. Chilkuri      : MRCI spin determinant printing, contributions to CSF-ICE 
  Pauline Colinet        : FMM embedding                                 
  Dipayan Datta          : RHF DLPNO-CCSD density                        
  Achintya Kumar Dutta   : EOM-CC, STEOM-CC                              
  Nicolas Foglia         : Exact transition moments, OPA infrastructure, MCD improvements    
  Dmitry Ganyushin       : Spin-Orbit,Spin-Spin,Magnetic field MRCI      
  Miquel Garcia-Rates    : C-PCM and meta-GGA Hessian, CCSD/C-PCM, Gaussian charge scheme 
  Tiago L. C. Gouveia    : GS-ROHF, GS-ROCIS                             
  Yang Guo               : DLPNO-NEVPT2, F12-NEVPT2, CIM, IAO-localization        
  Andreas Hansen         : Spin unrestricted coupled pair/coupled cluster methods 
  Ingolf Harden          : AUTO-CI MPn and infrastructure                
  Benjamin Helmich-Paris : MC-RPA, TRAH-(SCF,CASSCF), AVAS, COSX integrals, SCF dyn. polar., MC-PDFT, srDFT 
  Lee Huntington         : MR-EOM, pCC                                   
  Robert Izsak           : Overlap fitted RIJCOSX, COSX-SCS-MP3, EOM     
  Riya Kayal             : Wick's Theorem for AUTO-CI, AUTO-CI UHF-CCSDT 
  Emily Kempfer          : AUTO-CI RHF CISDT and CCSDT, approximate NEVPT4
  Christian Kollmar      : KDIIS, OOCD, Brueckner-CCSD(T), CCSD density, CASPT2, CASPT2-K, improved NEVPT2 
  Axel Koslowski         : Symmetry handling                             
  Simone Kossmann        : meta-GGA functionals, TD-DFT gradient, OOMP2, (MP2 Hessian; deprecated post 5.0) 
  Lucas Lang             : DCDCAS, Hyperfine gauge corrections, ICE-SOC+SSC
  Marvin Lechner         : AUTO-CI (C++ implementation), FIC-MRCC        
  Spencer Leger          : CASSCF response                               
  Dagmar Lenk            : GEPOL surface, SMD, ORCA-2-JSON               
  Dimitrios Liakos       : Extrapolation schemes; Compound Job, Property file
  Dimitrios Manganas     : Further ROCIS development; embedding schemes. LFT, Crystal Embedding 
  Dimitrios Pantazis     : SARC Basis sets                               
  Anastasios Papadopoulos: AUTO-CI, single reference methods and gradients 
  Taras Petrenko         : pre 6.0 DFT Hessian and TD-DFT gradient,  ECA, NRVS 
  Petra Pikulova         : Analytic Raman intensities                    
  Peter Pinski           : DLPNO-MP2, DLPNO-MP2 Gradient                 
  Shashank Vittal Rao    : ES-AILFT, MagRelax                            
  Christoph Reimann      : Effective Core Potentials                     
  Marius Retegan         : Local ZFS, SOC                                
  Christoph Riplinger    : Optimizer, TS searches, QM/MM, DLPNO-CCSD(T), (RO)-DLPNO pert. Triples 
  Michael Roemelt        : Original ROCIS implementation, recursive CI coupling coefficients
  Masaaki Saitow         : Open-shell DLPNO-CCSD energy and density      
  Barbara Sandhoefer     : DKH picture change effects                    
  Yorick L. A. Schmerwitz: GMF and freeze-and-release deltaSCF, NEB S-IDPP initial path                    
  Kantharuban Sivalingam : CASSCF convergence/infrastructure, NEVPT2, NEVPT3, NEVPT4(SD), FIC-MRCI and CEPA variants
  Bernardo de Souza      : ESD, SOC TD-DFT                               
  Georgi L. Stoychev     : AutoAux, RI-MP2 NMR, DLPNO-MP2 response, X2C  
  Van Anh Tran           : RI-MP2 g-tensors                              
  Willem Van den Heuvel  : Paramagnetic NMR                              
  Zikuan Wang            : NOTCH, Electric field optimization            
  Frank Wennmohs         : Technical directorship and infrastructure     
  Hang Xu                : AUTO-CI-Response properties                   
                                                                         
[FACCTs GmbH]                                                            
  Markus Bursch, Nicolas Foglia, Miquel Garcia-Rates, Ingolf Harden, Hagen Neugebauer, Anastasios Papadopoulos, 
  Christoph Riplinger, Bernardo de Souza, Georgi L. Stoychev                                                    
                                                                 
  APM, various basis sets, CI-OPT, improved COSX, DLPNO-Multilevel,           
  DOCKER, DRACO, updates on ESD, Fragmentator, GOAT, IRC, LR-CPCM, L-BFGS, MBIS, meta-GGA TD-DFT gradient, ML-optimized integration grids, 
  MM, NACMEs, nearIR, NEB, NEB-TS, NL-DFT gradient (VV10), 2- and 3-layer-ONIOM, interface openCOSMO-RS, QMMM,   
  Crystal-QMMM, RESP, rigid body optimization, SF, symmetry and pop. for TD-DFT, various functionals, SOLVATOR                                   
                                                                         
[Other institutions]                                                     
  V. Asgeirsson          : NEB                                           
  Christoph Bannwarth    : sTDA-DFT, sTD-DFT, PBEh-3c, B97-3c, D3        
  Giovanni Bistoni       : ETS/NOCV, ADLD/ADEX, COVALED                  
  Martin Brehm           : Molecular dynamics                            
  Ronald Cardenas        : ETS/NOCV                                      
  Martina Colucci        : COVALED                                       
  Sebastian Ehlert       : rSCAN, r2SCAN, r2SCAN-3c, D4, dhf basis sets  
  Marvin Friede          : D4 for Fr, Ra, Ac-Lr                          
  Lars Goerigk           : TD-DFT with DH, B97 family of functionals     
  Stefan Grimme          : VdW corrections, initial TS optimization, DFT functionals, gCP, sTDA/sTD-DF 
  Waldemar Hujo          : DFT-NL                                        
  H. Jonsson             : NEB                                           
  Holger Kruse           : gCP                                           
  Marcel Mueller         : wB97X-3c, vDZP basis set                      
  Hagen Neugebauer       : wr2SCAN, Native XTB                           
  Gianluca Regni         : ADLD/ADEX                                     
  Tobias Risthaus        : pre 6.0 range-separated hybrid DFT and stability analysis
  Lukas Wittmann         : regularized MP2, r2SCAN double-hybrids, wr2SCAN        
                                                                         
We gratefully acknowledge several colleagues who have allowed us to      
interface, adapt or use parts of their codes:                            
  Ed Valeev, F. Pavosevic, A. Kumar             : LibInt (2-el integral package), F12 methods 
  Garnet Chan, S. Sharma, J. Yang, R. Olivares  : DMRG                   
  Ulf Ekstrom                                   : XCFun DFT Library      
  Mihaly Kallay                                 : mrcc  (arbitrary order and MRCC methods)
  Frank Weinhold                                : gennbo (NPA and NBO analysis)           
  Simon Mueller                                 : openCOSMO-RS                            
  Christopher J. Cramer and Donald G. Truhlar   : smd solvation model                     
  S Lehtola, MJT Oliveira, MAL Marques          : LibXC Library                           
  Liviu Ungur et al                             : ANISO software                          


 Your calculation uses the libint2 library for the computation of 2-el integrals
 For citations please refer to: http://libint.valeyev.net

 Your ORCA version has been built with support for libXC version: 7.0.0
 For citations please refer to: https://libxc.gitlab.io

 This ORCA versions uses:
   CBLAS   interface :  Fast vector & matrix operations
   LAPACKE interface :  Fast linear algebra routines
   SCALAPACK package :  Parallel linear algebra routines
   Shared memory     :  Shared parallel matrices
   BLAS/LAPACK       :  OpenBLAS 0.3.29  USE64BITINT DYNAMIC_ARCH NO_AFFINITY Cooperlake SINGLE_THREADED
        Core in use  :  Cooperlake
   Copyright (c) 2011-2014, The OpenBLAS Project


  ***********************************
  * Starting time: Wed May 20 12:40:04 2026
  * Host name:     c1-41
  * Process ID:    4134334
  * Working dir.:  /cluster/projects/nn14654k/ylvaos/basis_set_n_funcs/functionals/pbe/PO2/out
  ***********************************

================================================================================

----- Orbital basis set information -----
Your calculation utilizes the basis: pc-2
   H, C-F              : F. Jensen, J. Chem. Phys. 115, 9113 (2001).
                         F. Jensen, J. Chem. Phys. 116, 7372 (2002).
                         F. Jensen, J. Chem. Phys. 117, 9234 (2002).
   Si-Cl               : F. Jensen, T. Helgaker, J. Chem. Phys. 121, 3463 (2004).
   He-B, Ne-Mg, Al, Ar : F. Jensen, J. Phys. Chem. A 111, 11198 (2007).
   K, Ca, Ga-Kr        : F. Jensen, J. Chem. Phys. 136, 094110 (2012).
   Sc-Zn               : F. Jensen, J. Chem. Phys. 138, 014107 (2013).

================================================================================
                                        WARNINGS
                       Please study these warnings very carefully!
================================================================================


WARNING: your system is open-shell and RHF/RKS was chosen
  ===> : WILL SWITCH to UHF/UKS


================================================================================
                                       INPUT FILE
================================================================================
NAME = /cluster/projects/nn14654k/ylvaos/basis_set_n_funcs/functionals/pbe/PO2/inp/PO2_pbe_pc2.inp
|  1> ! dft pc-2 TightSCF
|  2> %pal nprocs 8 end
|  3> 
|  4> %loc
|  5>   LocMet NewBoys
|  6>   Occ true
|  7> end
|  8> 
|  9> %method
| 10>   
| 11>   functional pbe
| 12> end
| 13> 
| 14> %elprop
| 15>   Dipole true
| 16>   Quadrupole true
| 17> end
| 18> 
| 19> * xyz 0 2
| 20> P    0.000000000000   0.000000000000   0.287900000000
| 21> O    0.000000000000   1.356300000000  -0.269900000000
| 22> O    0.000000000000  -1.356300000000  -0.269900000000
| 23> *
| 24> 
| 25> 
| 26>                          ****END OF INPUT****
================================================================================

                       ****************************
                       * Single Point Calculation *
                       ****************************

---------------------------------
CARTESIAN COORDINATES (ANGSTROEM)
---------------------------------
  P      0.000000    0.000000    0.287900
  O      0.000000    1.356300   -0.269900
  O      0.000000   -1.356300   -0.269900

----------------------------
CARTESIAN COORDINATES (A.U.)
----------------------------
  NO LB      ZA    FRAG     MASS         X           Y           Z
   0 P    15.0000    0    30.974    0.000000    0.000000    0.544052
   1 O     8.0000    0    15.999    0.000000    2.563036   -0.510037
   2 O     8.0000    0    15.999    0.000000   -2.563036   -0.510037

--------------------------------
INTERNAL COORDINATES (ANGSTROEM)
--------------------------------
 P      0   0   0     0.000000000000     0.00000000     0.00000000
 O      1   0   0     1.466523279733     0.00000000     0.00000000
 O      1   2   0     1.466523279733   135.28860674     0.00000000

---------------------------
INTERNAL COORDINATES (A.U.)
---------------------------
 P      0   0   0     0.000000000000     0.00000000     0.00000000
 O      1   0   0     2.771327367716     0.00000000     0.00000000
 O      1   2   0     2.771327367716   135.28860674     0.00000000

---------------------
BASIS SET INFORMATION
---------------------
There are 2 groups of distinct atoms

 Group   1 Type P   : 29s16p2d1f contracted to 5s4p2d1f pattern {99911/7711/11/1}
 Group   2 Type O   : 16s6p2d1f contracted to 4s3p2d1f pattern {7711/411/11/1}

Atom   0P    basis set group =>   1
Atom   1O    basis set group =>   2
Atom   2O    basis set group =>   2


           ************************************************************
           *        Program running with 8 parallel MPI-processes     *
           *              working on a common directory               *
           ************************************************************
------------------------------------------------------------------------------
                             ORCA STARTUP CALCULATIONS
------------------------------------------------------------------------------
------------------------------------------------------------------------------
                   ___                                                        
                  /   \      - P O W E R E D   B Y -                         
                 /     \                                                     
                 |  |  |   _    _      __       _____    __    __             
                 |  |  |  | |  | |    /  \     |  _  \  |  |  /  |          
                  \  \/   | |  | |   /    \    | | | |  |  | /  /          
                 / \  \   | |__| |  /  /\  \   | |_| |  |  |/  /          
                |  |  |   |  __  | /  /__\  \  |    /   |      \           
                |  |  |   | |  | | |   __   |  |    \   |  |\   \          
                \     /   | |  | | |  |  |  |  | |\  \  |  | \   \       
                 \___/    |_|  |_| |__|  |__|  |_| \__\ |__|  \__/        
                                                                              
                      - O R C A' S   B I G   F R I E N D -                    
                                      &                                       
                       - I N T E G R A L  F E E D E R -                       
                                                                              
 v1 FN, 2020, v2 2021, v3 2022-2024                                           
------------------------------------------------------------------------------


----------------------
SHARK INTEGRAL PACKAGE
----------------------

Number of atoms                             ...      3
Number of basis functions                   ...     94
Number of shells                            ...     32
Maximum angular momentum                    ...      3
Integral batch strategy                     ... SHARK/LIBINT Hybrid
RI-J (if used) integral strategy            ... SPLIT-RIJ (Revised 2003 algorithm where possible)
Printlevel                                  ...      1
Contraction scheme used                     ... SEGMENTED contraction
Prescreening option                         ... SCHWARTZ
   Thresh                                   ... 2.500e-11
   Tcut                                     ... 2.500e-12
   Tpresel                                  ... 2.500e-12 
Coulomb Range Separation                    ... NOT USED
Exchange Range Separation                   ... NOT USED
Multipole approximations                    ... NOT USED
Finite Nucleus Model                        ... NOT USED
CABS basis                                  ... NOT available
Auxiliary Coulomb fitting basis             ... NOT available
Auxiliary J/K fitting basis                 ... NOT available
Auxiliary Correlation fitting basis         ... NOT available
Auxiliary 'external' fitting basis          ... NOT available

Checking pre-screening integrals            ... done (  0.0 sec) Dimension = 32
   => SHARK Basis and OBASIS are compatible. Storing Pre-screening
Shell pair information
Shell pair cut-off parameter TPreSel        ...   2.5e-12
Total number of shell pairs                 ...       528
Shell pairs after pre-screening             ...       519
Total number of primitive shell pairs       ...      5097
Primitive shell pairs kept                  ...      3687
          la=0 lb=0:     86 shell pairs
          la=1 lb=0:    128 shell pairs
          la=1 lb=1:     55 shell pairs
          la=2 lb=0:     76 shell pairs
          la=2 lb=1:     60 shell pairs
          la=2 lb=2:     21 shell pairs
          la=3 lb=0:     39 shell pairs
          la=3 lb=1:     30 shell pairs
          la=3 lb=2:     18 shell pairs
          la=3 lb=3:      6 shell pairs

Checking whether 4 symmetric matrices of dimension 94 fit in memory
:Max Core in MB      =   4096.00
 MB in use           =      2.93
 MB left             =   4093.07
 MB needed           =      0.14
 Data fit in memory  = YES
Calculating Nuclear repulsion               ... done (  0.0 sec) ENN=     99.086296046297 Eh

Diagonalization of the overlap matrix:
Smallest eigenvalue                        ... 4.800e-03
Time for diagonalization                   ...    0.001 sec
Threshold for overlap eigenvalues          ... 1.000e-07
Number of eigenvalues below threshold      ... 0
Time for construction of square roots      ...    0.004 sec
Total time needed                          ...    0.009 sec

-------------------
DFT GRID GENERATION
-------------------

General Integration Accuracy     IntAcc      ... 4.388
Radial Grid Type                 RadialGrid  ... OptM3 with GC (2021)
Angular Grid (max. ang.)         AngularGrid ... 4 (Lebedev-302)
Angular grid pruning method      GridPruning ... 4 (adaptive)
Weight generation scheme         WeightScheme... mBecke (2022)
Basis function cutoff            BFCut       ... 1.0000e-11
Integration weight cutoff        WCut        ... 1.0000e-14
Partially contracted basis set               ... off
Rotationally invariant grid construction     ... off
Angular grids for H and He will be reduced by one unit
Diffuse basis detected: some atoms will have their outermost
                        angular grid increased by 1.

Total number of grid points                  ...    20254
Total number of batches                      ...      318
Average number of points per batch           ...       63
Average number of grid points per atom       ...     6751
Grids setup in   0.1 sec
Initializing property integral containers    ... done (  0.0 sec)

SHARK setup successfully completed in   0.2 seconds

Maximum memory used throughout the entire STARTUP-calculation: 19.1 MB


           ************************************************************
           *        Program running with 8 parallel MPI-processes     *
           *              working on a common directory               *
           ************************************************************
-------------------------------------------------------------------------------
                                 ORCA GUESS
                   Start orbitals & Density for SCF / CASSCF
-------------------------------------------------------------------------------

------------
SCF SETTINGS
------------
Hamiltonian:
 Density Functional     Method          .... DFT(GTOs)
 Exchange Functional    Exchange        .... PBE
   PBE kappa parameter   XKappa         ....  0.804000
   PBE mue parameter    XMuePBE         ....  0.219520
 Correlation Functional Correlation     .... PBE
   PBE beta parameter  CBetaPBE         ....  0.066725
 LDA part of GGA corr.  LDAOpt          .... PW91-LDA
 Gradients option       PostSCFGGA      .... off
   NL short-range parameter             ....  6.400000


General Settings:
 Integral files         IntName         .... /cluster/projects/nn14654k/ylvaos/basis_set_n_funcs/functionals/pbe/PO2/inp/PO2_pbe_pc2
 Hartree-Fock type      HFTyp           .... UHF
 Total Charge           Charge          ....    0
 Multiplicity           Mult            ....    2
 Number of Electrons    NEL             ....   31
 Basis Dimension        Dim             ....   94
 Nuclear Repulsion      ENuc            ....     99.0862960463 Eh

Convergence Acceleration:
 AO-DIIS                CNVDIIS         .... on
   Start iteration      DIISMaxIt       ....    12
   Startup error        DIISStart       ....  0.200000
   # of expansion vecs  DIISMaxEq       ....     5
   Bias factor          DIISBfac        ....   1.050
   Max. coefficient     DIISMaxC        ....  10.000
 MO-DIIS                CNVKDIIS        .... off
 Trust-Rad. Augm. Hess. CNVTRAH         .... auto
   Auto Start mean grad. ratio tolernc. ....  1.125000
   Auto Start start iteration           ....    50
   Auto Start num. interpolation iter.  ....    10
   Max. Number of Micro iterations      ....    24
   Max. Number of Macro iterations      .... Maxiter - #DIIS iter
   Number of Davidson start vectors     ....     2
   Converg. threshold    (grad. norm)   ....   1.000e-05
   Grad. Scal. Fac. for Micro threshold ....   0.100
   Minimum threshold for Micro iter.    ....   1.000e-02
   NR start threshold (gradient norm)   ....   1.000e-04
   Initial trust radius                 ....   0.400
   Minimum AH scaling param. (alpha)    ....   1.000
   Maximum AH scaling param. (alpha)    .... 1000.000
   Quad. conv. algorithm                .... NR
   White noise on init. David. guess    .... on
   Maximum white noise                  ....   0.010
   Pseudo random numbers                .... off
   Inactive MOs                         .... canonical
   Orbital update algorithm             .... Taylor
   Preconditioner                       .... Diag
   Full preconditioner red. dimension   ....   250
 SOSCF                 CNVSOSCF           .... on
   Start iteration     SOSCFMaxIt         ....   150
   Startup grad/error  SOSCFStart         ....  0.003300
   Hessian update      SOSCFHessUp        .... L-BFGS
   Autom. constraints  SOSCFAutoConstrain .... off
 Level Shifting         CNVShift        .... on
   Level shift para.    LevelShift      ....    0.2500
   Turn off err/grad.   ShiftErr        ....    0.0010
 Zerner damping         CNVZerner       .... off
 Static damping         CNVDamp         .... on
   Fraction old density DampFac         ....    0.7000
   Max. Damping (<1)    DampMax         ....    0.9800
   Min. Damping (>=0)   DampMin         ....    0.0000
   Turn off err/grad.   DampErr         ....    0.1000

SCF Procedure:
 Maximum # iterations   MaxIter         ....   125
 SCF integral mode      SCFMode         .... Direct
   Integral package                     .... SHARK and LIBINT hybrid scheme
 Reset frequency        DirectResetFreq ....    20
 Integral Threshold     Thresh          ....  2.500e-11 Eh
 Primitive CutOff       TCut            ....  2.500e-12 Eh

Convergence Tolerance:
 Convergence Check Mode ConvCheckMode   .... Total+1el-Energy
 Convergence forced     ConvForced      .... 0
 Energy Change          TolE            ....  1.000e-08 Eh
 1-El. energy change                    ....  1.000e-05 Eh
 Orbital Gradient       TolG            ....  1.000e-05
 Orbital Rotation angle TolX            ....  1.000e-05
 DIIS Error             TolErr          ....  5.000e-07

------------------------------
INITIAL GUESS: MODEL POTENTIAL
------------------------------
Loading Hartree-Fock densities                     ... done
Calculating cut-offs                               ... done
Initializing the effective Hamiltonian             ... done
Setting up the integral package (SHARK)            ... done
Starting the Coulomb interaction                   ... done (   0.0 sec)
Making the grid                                    ... done (   0.0 sec)
Mapping shells                                     ... done
Starting the XC term evaluation                    ... done (   0.0 sec)
  promolecular density results
     # of electrons  =     31.000270344
     EX              =    -38.797038003
     EC              =     -1.107803540
     EX+EC           =    -39.904841543
Transforming the Hamiltonian                       ... done (   0.0 sec)
Diagonalizing the Hamiltonian                      ... done (   0.0 sec)
Back transforming the eigenvectors                 ... done (   0.2 sec)
Now organizing SCF variables                       ... done
                      ------------------
                      INITIAL GUESS DONE (   0.3 sec)
                      ------------------
             **** ENERGY FILE WAS UPDATED (/cluster/projects/nn14654k/ylvaos/basis_set_n_funcs/functionals/pbe/PO2/inp/PO2_pbe_pc2.en.tmp) ****
Finished Guess after   0.5 sec
Maximum memory used throughout the entire GUESS-calculation: 6.8 MB


           ************************************************************
           *        Program running with 8 parallel MPI-processes     *
           *              working on a common directory               *
           ************************************************************

-------------------------------------------------------------------------------------------
                                      ORCA LEAN-SCF
                              memory conserving SCF solver
-------------------------------------------------------------------------------------------

----------------------------------------D-I-I-S--------------------------------------------
Iteration    Energy (Eh)           Delta-E    RMSDP     MaxDP     DIISErr   Damp  Time(sec)
-------------------------------------------------------------------------------------------
               ***  Starting incremental Fock matrix formation  ***
    1    -491.3345478590296693     0.00e+00  8.96e-03  8.21e-02  1.63e-01  0.700   0.6
Warning: op=1 Small HOMO/LUMO gap (   0.063) - skipping pre-diagonalization
         Will do a full diagonalization
    2    -491.4770604468497481    -1.43e-01  3.56e-03  2.42e-02  3.97e-02  0.700   0.5
                               ***Turning on AO-DIIS***
    3    -491.5051289295802803    -2.81e-02  1.41e-03  1.49e-02  1.34e-02  0.700   0.4
    4    -491.5259558011468357    -2.08e-02  2.64e-03  3.81e-02  1.94e-02  0.000   0.4
    5    -491.5848739962560217    -5.89e-02  8.80e-04  7.07e-03  1.50e-02  0.000   0.9
    6    -491.5869032526614433    -2.03e-03  3.70e-04  3.42e-03  5.55e-03  0.000   0.8
                              *** Initializing SOSCF ***
---------------------------------------S-O-S-C-F--------------------------------------
Iteration    Energy (Eh)           Delta-E    RMSDP     MaxDP     MaxGrad    Time(sec)
--------------------------------------------------------------------------------------
    7    -491.5871843310316649    -2.81e-04  1.78e-04  2.46e-03  2.06e-03     0.6
               *** Restarting incremental Fock matrix formation ***
    8    -491.5872262436435562    -4.19e-05  2.67e-04  2.42e-03  1.33e-03     0.5
    9    -491.5871965021208894     2.97e-05  1.57e-04  1.41e-03  2.62e-03     0.5
   10    -491.5872376669950086    -4.12e-05  4.36e-05  7.36e-04  1.28e-04     0.5
   11    -491.5872379246736159    -2.58e-07  1.53e-05  3.07e-04  7.48e-05     0.5
   12    -491.5872380085498321    -8.39e-08  3.46e-06  7.06e-05  1.23e-05     0.7
   13    -491.5872380106453079    -2.10e-09  7.10e-07  4.95e-06  6.08e-06     0.8
                 **** Energy Check signals convergence ****

               *****************************************************
               *                     SUCCESS                       *
               *           SCF CONVERGED AFTER  13 CYCLES          *
               *****************************************************

             **** ENERGY FILE WAS UPDATED (/cluster/projects/nn14654k/ylvaos/basis_set_n_funcs/functionals/pbe/PO2/inp/PO2_pbe_pc2.en.tmp) ****

----------------
TOTAL SCF ENERGY
----------------

Total Energy       :       -491.58723801129321 Eh          -13376.76881 eV

Components:
Nuclear Repulsion  :         99.08629604629714 Eh            2696.27519 eV
Electronic Energy  :       -590.67353405759036 Eh          -16073.04400 eV
One Electron Energy:       -875.44962593508080 Eh          -23822.19542 eV
Two Electron Energy:        284.77609187749050 Eh            7749.15142 eV

Virial components:
Potential Energy   :       -982.67947653860506 Eh          -26740.06800 eV
Kinetic Energy     :        491.09223852731191 Eh           13363.29919 eV
Virial Ratio       :          2.00100795623540

DFT components:
N(Alpha)           :       15.999999756227 electrons
N(Beta)            :       14.999995696738 electrons
N(Total)           :       30.999995452965 electrons
E(X)               :      -39.024968848522 Eh       
E(C)               :       -1.110366338085 Eh       
E(XC)              :      -40.135335186606 Eh       

---------------
SCF CONVERGENCE
---------------

  Last Energy change         ...    2.0955e-09  Tolerance :   1.0000e-08
  Last MAX-Density change    ...    4.9530e-06  Tolerance :   1.0000e-07
  Last RMS-Density change    ...    7.0981e-07  Tolerance :   5.0000e-09
  Last DIIS Error            ...    2.0611e-03  Tolerance :   5.0000e-07
  Last Orbital Gradient      ...    6.0825e-06  Tolerance :   1.0000e-05
  Last Orbital Rotation      ...    1.2093e-05  Tolerance :   1.0000e-05


----------------------
UHF SPIN CONTAMINATION
----------------------

Warning: in a DFT calculation there is little theoretical justification to 
         calculate <S**2> as in Hartree-Fock theory. We will do it anyways
         but you should keep in mind that the values have only limited relevance

Expectation value of <S**2>     :     0.752650
Ideal value S*(S+1) for S=0.5   :     0.750000
Deviation                       :     0.002650

----------------
ORBITAL ENERGIES
----------------
                 SPIN UP ORBITALS
  NO   OCC          E(Eh)            E(eV) 
   0   1.0000     -76.394736     -2078.8064 
   1   1.0000     -18.804441      -511.6949 
   2   1.0000     -18.804440      -511.6948 
   3   1.0000      -6.407391      -174.3540 
   4   1.0000      -4.625801      -125.8745 
   5   1.0000      -4.622866      -125.7946 
   6   1.0000      -4.619661      -125.7074 
   7   1.0000      -0.991487       -26.9797 
   8   1.0000      -0.946275       -25.7495 
   9   1.0000      -0.513393       -13.9701 
  10   1.0000      -0.417655       -11.3650 
  11   1.0000      -0.404017       -10.9939 
  12   1.0000      -0.403253       -10.9731 
  13   1.0000      -0.336428        -9.1547 
  14   1.0000      -0.327952        -8.9240 
  15   1.0000      -0.270055        -7.3486 
  16   0.0000      -0.122120        -3.3231 
  17   0.0000      -0.016093        -0.4379 
  18   0.0000       0.054681         1.4879 
  19   0.0000       0.121685         3.3112 
  20   0.0000       0.128112         3.4861 
  21   0.0000       0.236461         6.4344 
  22   0.0000       0.254154         6.9159 
  23   0.0000       0.299968         8.1625 
  24   0.0000       0.311339         8.4720 
  25   0.0000       0.319807         8.7024 
  26   0.0000       0.336867         9.1666 

                 SPIN DOWN ORBITALS
  NO   OCC          E(Eh)            E(eV) 
   0   1.0000     -76.392979     -2078.7587 
   1   1.0000     -18.798107      -511.5225 
   2   1.0000     -18.798106      -511.5225 
   3   1.0000      -6.404913      -174.2866 
   4   1.0000      -4.623528      -125.8126 
   5   1.0000      -4.618247      -125.6689 
   6   1.0000      -4.618073      -125.6642 
   7   1.0000      -0.977766       -26.6064 
   8   1.0000      -0.931764       -25.3546 
   9   1.0000      -0.491660       -13.3787 
  10   1.0000      -0.398323       -10.8389 
  11   1.0000      -0.396223       -10.7818 
  12   1.0000      -0.388339       -10.5672 
  13   1.0000      -0.332073        -9.0362 
  14   1.0000      -0.318438        -8.6651 
  15   0.0000      -0.222387        -6.0515 
  16   0.0000      -0.099953        -2.7199 
  17   0.0000      -0.002344        -0.0638 
  18   0.0000       0.065538         1.7834 
  19   0.0000       0.129827         3.5328 
  20   0.0000       0.145160         3.9500 
  21   0.0000       0.245584         6.6827 
  22   0.0000       0.271591         7.3904 
  23   0.0000       0.305824         8.3219 
  24   0.0000       0.322393         8.7728 
  25   0.0000       0.322880         8.7860 
*Only the first 10 virtual orbitals were printed.

                    ********************************
                    * MULLIKEN POPULATION ANALYSIS *
                    ********************************

--------------------------------------------
MULLIKEN ATOMIC CHARGES AND SPIN POPULATIONS
--------------------------------------------
   0 P :    0.877310    0.619692
   1 O :   -0.438655    0.190154
   2 O :   -0.438655    0.190154
Sum of atomic charges         :    0.0000000
Sum of atomic spin populations:    1.0000000

-----------------------------------------------------
MULLIKEN REDUCED ORBITAL CHARGES AND SPIN POPULATIONS
-----------------------------------------------------
CHARGE
  0 P s       :     5.491053  s :     5.491053
      pz      :     2.823305  p :     8.133047
      px      :     2.718681
      py      :     2.591061
      dz2     :     0.064537  d :     0.456054
      dxz     :     0.011418
      dyz     :     0.138907
      dx2y2   :     0.102441
      dxy     :     0.138751
      f0      :     0.002815  f :     0.042536
      f+1     :     0.000090
      f-1     :     0.013983
      f+2     :     0.006695
      f-2     :     0.005740
      f+3     :     0.006837
      f-3     :     0.006375

  1 O s       :     3.860805  s :     3.860805
      pz      :     1.548647  p :     4.546170
      px      :     1.548863
      py      :     1.448660
      dz2     :     0.004304  d :     0.029275
      dxz     :     0.001347
      dyz     :     0.008172
      dx2y2   :     0.007145
      dxy     :     0.008307
      f0      :     0.000219  f :     0.002404
      f+1     :     0.000008
      f-1     :     0.000532
      f+2     :     0.000484
      f-2     :     0.000242
      f+3     :     0.000474
      f-3     :     0.000446

  2 O s       :     3.860805  s :     3.860805
      pz      :     1.548647  p :     4.546170
      px      :     1.548863
      py      :     1.448660
      dz2     :     0.004304  d :     0.029275
      dxz     :     0.001347
      dyz     :     0.008172
      dx2y2   :     0.007145
      dxy     :     0.008307
      f0      :     0.000219  f :     0.002404
      f+1     :     0.000008
      f-1     :     0.000532
      f+2     :     0.000484
      f-2     :     0.000242
      f+3     :     0.000474
      f-3     :     0.000446


SPIN
  0 P s       :     0.362373  s :     0.362373
      pz      :     0.178305  p :     0.185044
      px      :     0.029160
      py      :    -0.022420
      dz2     :     0.025855  d :     0.075924
      dxz     :    -0.002815
      dyz     :    -0.000806
      dx2y2   :     0.054095
      dxy     :    -0.000405
      f0      :    -0.000178  f :    -0.003649
      f+1     :    -0.000053
      f-1     :    -0.001054
      f+2     :    -0.000462
      f-2     :    -0.000231
      f+3     :    -0.001269
      f-3     :    -0.000402

  1 O s       :    -0.014764  s :    -0.014764
      pz      :     0.172060  p :     0.204547
      px      :    -0.012428
      py      :     0.044915
      dz2     :     0.000051  d :     0.000048
      dxz     :     0.000023
      dyz     :    -0.000303
      dx2y2   :     0.000165
      dxy     :     0.000112
      f0      :     0.000015  f :     0.000323
      f+1     :    -0.000005
      f-1     :     0.000058
      f+2     :     0.000076
      f-2     :     0.000056
      f+3     :     0.000049
      f-3     :     0.000075

  2 O s       :    -0.014764  s :    -0.014764
      pz      :     0.172060  p :     0.204547
      px      :    -0.012428
      py      :     0.044915
      dz2     :     0.000051  d :     0.000048
      dxz     :     0.000023
      dyz     :    -0.000303
      dx2y2   :     0.000165
      dxy     :     0.000112
      f0      :     0.000015  f :     0.000323
      f+1     :    -0.000005
      f-1     :     0.000058
      f+2     :     0.000076
      f-2     :     0.000056
      f+3     :     0.000049
      f-3     :     0.000075



                     *******************************
                     * LOEWDIN POPULATION ANALYSIS *
                     *******************************

-------------------------------------------
LOEWDIN ATOMIC CHARGES AND SPIN POPULATIONS
-------------------------------------------
   0 P :    0.795169    0.573484
   1 O :   -0.397584    0.213258
   2 O :   -0.397584    0.213258

----------------------------------------------------
LOEWDIN REDUCED ORBITAL CHARGES AND SPIN POPULATIONS
----------------------------------------------------
CHARGE
  0 P s       :     5.021472  s :     5.021472
      pz      :     2.888840  p :     8.358389
      px      :     2.693970
      py      :     2.775579
      dz2     :     0.092054  d :     0.690307
      dxz     :     0.011914
      dyz     :     0.214763
      dx2y2   :     0.200925
      dxy     :     0.170651
      f0      :     0.011038  f :     0.134663
      f+1     :     0.000160
      f-1     :     0.039444
      f+2     :     0.024981
      f-2     :     0.016841
      f+3     :     0.017155
      f-3     :     0.025045

  1 O s       :     3.634836  s :     3.634836
      pz      :     1.574556  p :     4.703808
      px      :     1.532144
      py      :     1.597108
      dz2     :     0.005920  d :     0.052819
      dxz     :     0.001541
      dyz     :     0.018590
      dx2y2   :     0.016978
      dxy     :     0.009791
      f0      :     0.000800  f :     0.006122
      f+1     :     0.000022
      f-1     :     0.000907
      f+2     :     0.001716
      f-2     :     0.000352
      f+3     :     0.000805
      f-3     :     0.001519

  2 O s       :     3.634836  s :     3.634836
      pz      :     1.574556  p :     4.703808
      px      :     1.532144
      py      :     1.597108
      dz2     :     0.005920  d :     0.052819
      dxz     :     0.001541
      dyz     :     0.018590
      dx2y2   :     0.016978
      dxy     :     0.009791
      f0      :     0.000800  f :     0.006122
      f+1     :     0.000022
      f-1     :     0.000907
      f+2     :     0.001716
      f-2     :     0.000352
      f+3     :     0.000805
      f-3     :     0.001519


SPIN
  0 P s       :     0.214510  s :     0.214510
      pz      :     0.204279  p :     0.216371
      px      :     0.023688
      py      :    -0.011596
      dz2     :     0.046445  d :     0.142781
      dxz     :    -0.002466
      dyz     :    -0.001122
      dx2y2   :     0.100321
      dxy     :    -0.000397
      f0      :     0.000800  f :    -0.000178
      f+1     :    -0.000045
      f-1     :    -0.000358
      f+2     :     0.000294
      f-2     :    -0.000183
      f+3     :    -0.001244
      f-3     :     0.000558

  1 O s       :     0.014563  s :     0.014563
      pz      :     0.162634  p :     0.197687
      px      :    -0.009975
      py      :     0.045027
      dz2     :     0.000144  d :     0.000825
      dxz     :     0.000055
      dyz     :     0.000535
      dx2y2   :    -0.000086
      dxy     :     0.000178
      f0      :    -0.000009  f :     0.000183
      f+1     :    -0.000003
      f-1     :     0.000066
      f+2     :     0.000014
      f-2     :     0.000042
      f+3     :     0.000027
      f-3     :     0.000046

  2 O s       :     0.014563  s :     0.014563
      pz      :     0.162634  p :     0.197687
      px      :    -0.009975
      py      :     0.045027
      dz2     :     0.000144  d :     0.000825
      dxz     :     0.000055
      dyz     :     0.000535
      dx2y2   :    -0.000086
      dxy     :     0.000178
      f0      :    -0.000009  f :     0.000183
      f+1     :    -0.000003
      f-1     :     0.000066
      f+2     :     0.000014
      f-2     :     0.000042
      f+3     :     0.000027
      f-3     :     0.000046



                      *****************************
                      * MAYER POPULATION ANALYSIS *
                      *****************************

  NA   - Mulliken gross atomic population
  ZA   - Total nuclear charge
  QA   - Mulliken gross atomic charge
  VA   - Mayer's total valence
  BVA  - Mayer's bonded valence
  FA   - Mayer's free valence

  ATOM       NA         ZA         QA         VA         BVA        FA
  0 P     14.1227    15.0000     0.8773     4.2089     3.7965     0.4124
  1 O      8.4387     8.0000    -0.4387     2.0785     2.0359     0.0426
  2 O      8.4387     8.0000    -0.4387     2.0785     2.0359     0.0426

  Mayer bond orders larger than 0.100000
B(  0-P ,  1-O ) :   1.8983 B(  0-P ,  2-O ) :   1.8983 B(  1-O ,  2-O ) :   0.1376 


-------
TIMINGS
-------

Total SCF time: 0 days 0 hours 0 min 8 sec 

Total time                  ....       8.497 sec
Sum of individual times     ....       7.835 sec  ( 92.2%)

SCF preparation             ....       0.111 sec  (  1.3%)
Fock matrix formation       ....       4.522 sec  ( 53.2%)
  Startup                   ....       0.037 sec  (  0.8% of F)
  Coulomb formation         ....       1.193 sec  ( 26.4% of F)
  XC integration            ....       1.485 sec  ( 32.8% of F)
    Basis function eval.    ....       0.035 sec  (  2.3% of XC)
    Density eval.           ....       0.028 sec  (  1.9% of XC)
    XC-Functional eval.     ....       0.010 sec  (  0.7% of XC)
    XC-Potential eval.      ....       0.065 sec  (  4.4% of XC)
Diagonalization             ....       0.000 sec  (  0.0%)
Density matrix formation    ....       1.443 sec  ( 17.0%)
Total Energy calculation    ....       0.094 sec  (  1.1%)
Population analysis         ....       0.058 sec  (  0.7%)
Orbital Transformation      ....       0.111 sec  (  1.3%)
Orbital Orthonormalization  ....       0.000 sec  (  0.0%)
DIIS solution               ....       0.931 sec  ( 11.0%)
SOSCF solution              ....       0.564 sec  (  6.6%)
Finished LeanSCF after   8.8 sec

Maximum memory used throughout the entire LEANSCF-calculation: 19.1 MB


           ************************************************************
           *        Program running with 8 parallel MPI-processes     *
           *              working on a common directory               *
           ************************************************************

------------------------------------------------------------------------------
                         ORCA PROPERTY INTEGRAL CALCULATIONS
------------------------------------------------------------------------------

GBWName                                   ... /cluster/projects/nn14654k/ylvaos/basis_set_n_funcs/functionals/pbe/PO2/inp/PO2_pbe_pc2.gbw
Number of atoms                           ...      3
Number of basis functions                 ...     94
Max core memory                           ...   4096 MB

Dipole integrals                          ... YES
Quadrupole integrals                      ... YES
Linear momentum integrals                 ...  NO
Angular momentum integrals                ...  NO
Higher moments length integrals           ...  NO
Higher moments velocity integrals         ...  NO
Kinetic energy integrals                  ...  NO
GIAO right hand sides                     ...  NO
GIAO dipole derivative integrals          ...  NO
SOC integrals                             ...  NO
EPR diamagnetic integrals (GIAO)          ...  NO
EPR gauge integrals                       ...  NO
Field gradient integrals                  ...  NO (   0 nuclei)
Spin-dipole/Fermi contact integrals       ...  NO (   0 nuclei)
Contact density integrals                 ...  NO (   0 nuclei)
Nucleus-orbit integrals                   ...  NO (   0 nuclei)
Geometric perturbations                   ...  NO (   3 nuclei)

Choice of electric origin   ... Center of mass
Position of electric origin ... (  0.0000,  0.0000,  0.0084) 
Choice of magnetic origin   ... GIAO
Position of magnetic origin ... (  0.0000,  0.0000,  0.0000) 

Calculating integrals                     ... Electric Dipole (Length)     done (  0.1 sec)
Calculating integrals                     ... Electric Quadrupole (Length) done (  0.0 sec)

Property integrals calculated in   0.1 sec

Maximum memory used throughout the entire PROPINT-calculation: 7.1 MB
------------------------------------------------------------------------------
                           ORCA ORBITAL LOCALIZATION
------------------------------------------------------------------------------

Input orbitals are from                  ... /cluster/projects/nn14654k/ylvaos/basis_set_n_funcs/functionals/pbe/PO2/inp/PO2_pbe_pc2.gbw
Output orbitals are to                   ... /cluster/projects/nn14654k/ylvaos/basis_set_n_funcs/functionals/pbe/PO2/inp/PO2_pbe_pc2.loc
Max. number of iterations                ... 128
Localizations seeded randomly            ... on
Convergence tolerance                    ... 1.000e-06
Threshold for strong local MOs           ... 9.500e-01
Threshold for bond MOs                   ... 8.500e-01
Operator                                 ... 0
Orbital range for localization           ... 4 to 15
Localization criterion                   ... NEW-BOYS
Doing the dipole integrals               ... o.k.
Initial value of the localization sum :    32.519124
ITERATION   0 : L=   47.9048854657 DL=  1.54e+01 (AVERGE_DL)=    0.4828225390 
ITERATION   1 : L=   50.1611877897 DL=  2.26e+00 (AVERGE_DL)=    0.1848956431 
ITERATION   2 : L=   50.2782814855 DL=  1.17e-01 (AVERGE_DL)=    0.0421206233 
ITERATION   3 : L=   50.2829416003 DL=  4.66e-03 (AVERGE_DL)=    0.0084028448 
ITERATION   4 : L=   50.2842156951 DL=  1.27e-03 (AVERGE_DL)=    0.0043936849 
ITERATION   5 : L=   50.2846220930 DL=  4.06e-04 (AVERGE_DL)=    0.0024814398 
ITERATION   6 : L=   50.2847458933 DL=  1.24e-04 (AVERGE_DL)=    0.0013695845 
ITERATION   7 : L=   50.2847821412 DL=  3.62e-05 (AVERGE_DL)=    0.0007410874 
ITERATION   8 : L=   50.2847924944 DL=  1.04e-05 (AVERGE_DL)=    0.0003960656 
ITERATION   9 : L=   50.2847954029 DL=  2.91e-06 (AVERGE_DL)=    0.0002099221 
ITERATION  10 : L=   50.2847962097 DL=  8.07e-07 (AVERGE_DL)=    0.0001105627 
LOCALIZATION SUM CONVERGED


--------------------------------------------------------------------------------
                    LOCALIZED MOLECULAR ORBITAL COMPOSITIONS
--------------------------------------------------------------------------------

The Mulliken populations for each LMO on each atom are computed
The LMO`s will be ordered according to atom index and type
  (A) Strongly localized MO`s have populations of >=0.950 on one atom
  (B) Two center bond orbitals have populations of >=0.850 on two atoms
  (C) Other MO`s are considered to be `delocalized`

FOUND  -   6 strongly local MO`s
       -   6 two center bond MO`s
       -   0 significantly delocalized MO`s

Rather strongly localized orbitals:
MO   9:   2O  -   0.971224
MO   8:   1O  -   0.971232
MO   7:   0P  -   1.095680
MO   6:   0P  -   1.000524
MO   5:   0P  -   1.001022
MO   4:   0P  -   1.000524
Bond-like localized orbitals:
MO  15:   2O  -   0.895832  and   0P  -   0.106805
MO  14:   2O  -   0.749795  and   0P  -   0.250387
MO  13:   2O  -   0.749785  and   0P  -   0.250400
MO  12:   1O  -   0.749798  and   0P  -   0.250391
MO  11:   1O  -   0.895820  and   0P  -   0.106820
MO  10:   1O  -   0.749786  and   0P  -   0.250391
Localized MO's were stored in: /cluster/projects/nn14654k/ylvaos/basis_set_n_funcs/functionals/pbe/PO2/inp/PO2_pbe_pc2.loc
------------------------------------------------------------------------------
                           ORCA ORBITAL LOCALIZATION
------------------------------------------------------------------------------

Input orbitals are from                  ... /cluster/projects/nn14654k/ylvaos/basis_set_n_funcs/functionals/pbe/PO2/inp/PO2_pbe_pc2.loc
Output orbitals are to                   ... /cluster/projects/nn14654k/ylvaos/basis_set_n_funcs/functionals/pbe/PO2/inp/PO2_pbe_pc2.loc
Max. number of iterations                ... 128
Localizations seeded randomly            ... on
Convergence tolerance                    ... 1.000e-06
Threshold for strong local MOs           ... 9.500e-01
Threshold for bond MOs                   ... 8.500e-01
Operator                                 ... 1
Orbital range for localization           ... 4 to 14
Localization criterion                   ... NEW-BOYS
Doing the dipole integrals               ... o.k.
Initial value of the localization sum :    28.549687
ITERATION   0 : L=   38.6730509850 DL=  1.01e+01 (AVERGE_DL)=    0.4290235004 
ITERATION   1 : L=   42.5650850129 DL=  3.89e+00 (AVERGE_DL)=    0.2660155166 
ITERATION   2 : L=   42.9075182633 DL=  3.42e-01 (AVERGE_DL)=    0.0789053807 
ITERATION   3 : L=   42.9796790732 DL=  7.22e-02 (AVERGE_DL)=    0.0362217438 
ITERATION   4 : L=   42.9873141630 DL=  7.64e-03 (AVERGE_DL)=    0.0117821821 
ITERATION   5 : L=   42.9903314707 DL=  3.02e-03 (AVERGE_DL)=    0.0074067632 
ITERATION   6 : L=   42.9923003572 DL=  1.97e-03 (AVERGE_DL)=    0.0059831376 
ITERATION   7 : L=   42.9936777007 DL=  1.38e-03 (AVERGE_DL)=    0.0050042592 
ITERATION   8 : L=   42.9946466056 DL=  9.69e-04 (AVERGE_DL)=    0.0041971958 
ITERATION   9 : L=   42.9953244519 DL=  6.78e-04 (AVERGE_DL)=    0.0035106235 
ITERATION  10 : L=   42.9957962514 DL=  4.72e-04 (AVERGE_DL)=    0.0029288519 
ITERATION  11 : L=   42.9961234782 DL=  3.27e-04 (AVERGE_DL)=    0.0024391757 
ITERATION  12 : L=   42.9963499773 DL=  2.26e-04 (AVERGE_DL)=    0.0020293261 
ITERATION  13 : L=   42.9965065838 DL=  1.57e-04 (AVERGE_DL)=    0.0016874217 
ITERATION  14 : L=   42.9966148339 DL=  1.08e-04 (AVERGE_DL)=    0.0014029194 
ITERATION  15 : L=   42.9966896616 DL=  7.48e-05 (AVERGE_DL)=    0.0011664064 
ITERATION  16 : L=   42.9967414069 DL=  5.17e-05 (AVERGE_DL)=    0.0009699601 
ITERATION  17 : L=   42.9967772106 DL=  3.58e-05 (AVERGE_DL)=    0.0008068311 
ITERATION  18 : L=   42.9968019968 DL=  2.48e-05 (AVERGE_DL)=    0.0006713110 
ITERATION  19 : L=   42.9968191728 DL=  1.72e-05 (AVERGE_DL)=    0.0005588303 
ITERATION  20 : L=   42.9968310804 DL=  1.19e-05 (AVERGE_DL)=    0.0004652978 
ITERATION  21 : L=   42.9968393427 DL=  8.26e-06 (AVERGE_DL)=    0.0003875874 
ITERATION  22 : L=   42.9968450813 DL=  5.74e-06 (AVERGE_DL)=    0.0003230133 
ITERATION  23 : L=   42.9968490683 DL=  3.99e-06 (AVERGE_DL)=    0.0002692400 
ITERATION  24 : L=   42.9968518414 DL=  2.77e-06 (AVERGE_DL)=    0.0002245450 
ITERATION  25 : L=   42.9968537711 DL=  1.93e-06 (AVERGE_DL)=    0.0001873125 
ITERATION  26 : L=   42.9968551146 DL=  1.34e-06 (AVERGE_DL)=    0.0001562892 
ITERATION  27 : L=   42.9968560514 DL=  9.37e-07 (AVERGE_DL)=    0.0001305158 
LOCALIZATION SUM CONVERGED


--------------------------------------------------------------------------------
                    LOCALIZED MOLECULAR ORBITAL COMPOSITIONS
--------------------------------------------------------------------------------

The Mulliken populations for each LMO on each atom are computed
The LMO`s will be ordered according to atom index and type
  (A) Strongly localized MO`s have populations of >=0.950 on one atom
  (B) Two center bond orbitals have populations of >=0.850 on two atoms
  (C) Other MO`s are considered to be `delocalized`

FOUND  -   5 strongly local MO`s
       -   6 two center bond MO`s
       -   0 significantly delocalized MO`s

Rather strongly localized orbitals:
MO   8:   2O  -   0.964057
MO   7:   1O  -   0.964064
MO   6:   0P  -   1.000640
MO   5:   0P  -   1.000173
MO   4:   0P  -   1.000640
Bond-like localized orbitals:
MO  14:   2O  -   0.568010  and   0P  -   0.422645
MO  13:   2O  -   0.791971  and   0P  -   0.209009
MO  12:   2O  -   0.792101  and   0P  -   0.208873
MO  11:   1O  -   0.568017  and   0P  -   0.422639
MO  10:   1O  -   0.791769  and   0P  -   0.209204
MO   9:   1O  -   0.792288  and   0P  -   0.208694
Localized MO's were stored in: /cluster/projects/nn14654k/ylvaos/basis_set_n_funcs/functionals/pbe/PO2/inp/PO2_pbe_pc2.loc

-------------------------   --------------------
FINAL SINGLE POINT ENERGY      -491.587238011293
-------------------------   --------------------



           ************************************************************
           *        Program running with 8 parallel MPI-processes     *
           *              working on a common directory               *
           ************************************************************

------------------------------------------------------------------------------
                              ORCA PROPERTY CALCULATIONS
------------------------------------------------------------------------------

GBWName                                 ... /cluster/projects/nn14654k/ylvaos/basis_set_n_funcs/functionals/pbe/PO2/inp/PO2_pbe_pc2.gbw
Number of atoms                         ...      3
Number of basis functions               ...     94
Max core memory                         ...   4096 MB

Electric properties:
Dipole moment                           ... YES
Quadrupole moment                       ... YES
Static polarizability (Dipole/Dipole)   ...  NO
Static polarizability (Dipole/Quad.)    ...  NO
Static polarizability (Quad./Quad.)     ...  NO
Static polarizability (Velocity)        ...  NO
Static hyperpolarizability              ...  NO

Atomic electric properties:
Dipole moment                           ...  NO
Quadrupole moment                       ...  NO
Static polarizability                   ...  NO

Choice of electric origin               ... Center of mass
Position of electric origin             ...     0.000000     0.000000     0.008437

General magnetic properties:
Magnetizability                         ...  NO

EPR properties:
g-Tensor (aka g-matrix)                 ...  NO
Zero-Field splitting spin-orbit         ...  NO
Zero-field splitting spin-spin          ...  NO
Hyperfine couplings                     ...  NO (   0 nuclei)
Quadrupole couplings                    ...  NO (   0 nuclei)
Contact density                         ...  NO (   0 nuclei)

NMR properties:
Chemical shifts                         ...  NO (   0 nuclei)
Spin-rotation constants                 ...  NO (   0 nuclei)
Spin-spin couplings                     ...  NO (   0 nuclei,    0 pairs)

Choice of magnetic origin               ... GIAO
Position of magnetic origin             ...     0.000000     0.000000     0.000000

Properties with geometric perturbations:
SCF Hessian                             ...  NO
IR spectrum                             ...  NO
VCD spectrum                            ...  NO
X-ray spectroscopy properties:
SCF XES/XAS/RIXS spectra                ...  NO

SCF SOC stabilization energy            ...  NO
Diagonal Born-Oppenheimer correction    ...  NO

-------------
DIPOLE MOMENT
-------------

Method             : SCF
Type of density    : Electron Density
Multiplicity       :   2
Irrep              :   0
Energy             :  -491.5872380112932092 Eh
Basis              : AO
                                X                 Y                 Z
Electronic contribution:      0.000000000      -0.000000001       0.792817467
Nuclear contribution   :      0.000000000       0.000000000      -0.261362976
                        -----------------------------------------
Total Dipole Moment    :      0.000000000      -0.000000001       0.531454491
                        -----------------------------------------
Magnitude (a.u.)       :      0.531454491
Magnitude (Debye)      :      1.350849962



--------------------
Rotational spectrum 
--------------------
 
Rotational constants in cm-1:             3.442444             0.286393             0.264396 
Rotational constants in MHz :        103201.869580          8585.841533          7926.407020 

Dipole components along the rotational axes: 
x,y,z [a.u.] :    -0.000000     0.531454     0.000000 
x,y,z [Debye]:    -0.000000     1.350850     0.000000 

 

Dipole moment calculation done in   0.0 sec 

-----------------
QUADRUPOLE MOMENT
-----------------

Method             : SCF
Type of density    : Electron Density
Multiplicity       :   2
Irrep              :   0
Energy             :  -491.5872380112932092 Eh
Basis              : AO

                XX              YY              ZZ              XY              XZ              YZ
  NUC        0.000000000   105.106420135     8.604299986     0.000000000     0.000000000     0.000000000
  EL       -15.514485060  -126.328436042   -24.839112966    -0.000000000     0.000000000     0.000000000
  TOT      -15.514485060   -21.222015907   -16.234812980    -0.000000000     0.000000000     0.000000000 (a.u.)
           -20.867513001   -28.544337187   -21.836378689    -0.000000000     0.000000001     0.000000001 (Buckingham)

diagonalized tensor:
           -21.222015907   -16.234812980   -15.514485060 (a.u.)
           -28.544337187   -21.836378689   -20.867513001 (Buckingham)
           -14.384782684     5.739092811     8.645689873 (traceless form in Buckingham)

             0.000000000    -0.000000001     1.000000000
             1.000000000     0.000000000    -0.000000000
            -0.000000000     1.000000000     0.000000001
        
Isotropic quadrupole :   -17.657104649

Quadrupole moment calculation done in   0.0 sec (  0.0 sec for integrals)

Maximum memory used throughout the entire PROP-calculation: 3.6 MB

--------------------------------
SUGGESTED CITATIONS FOR THIS RUN
--------------------------------

Below you find a list of papers that are relevant to this ORCA run
We neither can nor want to force you to cite these papers, but we appreciate if you do
You receive ORCA, which is the product of decades of hard work by many enthusiastic individuals, for free
The only thing we kindly ask in return is that you cite our papers,
We deeply appreciate it, if you show your appreciation for ORCA by not just citing the generic ORCA reference.

Please note that relegating all ORCA citations to the supporting information does *not* help us.
SI sections are not indexed - citations you put there will not count into any citation statistics
But we need these citations in order to attract the funding resources that allow us to do what we are doing

Therefore, if you are a happy ORCA user, please consider citing a few of the papers listed below in the main body of your paper

In addition to the list printed below, the program has created the file /cluster/projects/nn14654k/ylvaos/basis_set_n_funcs/functionals/pbe/PO2/inp/PO2_pbe_pc2.bibtex that contains the list in bibtex format
You can import this file easily into all common literature databanks and citation aid programs

It goes without saying that in many instances, there are alternative algorithms to achieve similar
results as the ones you have gotten from ORCA. It is, of course, also the case that in some instances
ORCA just re-implements algorithms worked out by others. We are fully aware of that and we are also
fully appreciative of our colleagues work. Hence this citation list should not be read as indicating
that the listed papers, which are focused on our own work, are the only ones worth citing. It simply
meant to make it easier for users to cite ORCA specific papers. It is not a substitute for doing your
own literature research and citing the relevant literature in a scientifically appropriate manner.

List of essential papers. We consider these as the minimum necessary citations

  1. Neese, F.
     Software update: the ORCA program system, version 6.0
     WIRES Comput. Molec. Sci. 2025 15(1), e70019
     doi.org/10.1002/wcms.70019

List of papers to cite with high priority. The work reported in these papers was absolutely
necessary for this run to complete.
Our perspective: the developers of density functionals and basis sets usually get cited in chemistry papers
Good! But without the algorithms to do something with them, the functionals or basis sets would not do anything.
Hence, in our opinion, the algorithm design and method developments papers are equally worthy of getting cited

  1. Neese, F.
     The SHARK Integral Generation and Digestion System
     J. Comp. Chem. 2022 44(3), 381
     doi.org/10.1002/jcc.26942

List of suggested additional citations. These are papers that are important in the 'surrounding' of 
of this run, or papers that preceded the highly important papers. If you like your results we are grateful for a citation.

  1. Neese, F.
     The ORCA program system
     WIRES Comput. Molec. Sci. 2012 2(1), 73-78
     doi.org/10.1002/wcms.81
  2. Neese, F.
     Software update: the ORCA program system, version 4.0
     WIRES Comput. Molec. Sci. 2018 8(1), 1-6
     doi.org/10.1002/wcms.1327
  3. Neese, F.; Wennmohs, F.; Becker, U.; Riplinger, C.
     The ORCA quantum chemistry program package
     J. Chem. Phys. 2020 152(22), 224108
     doi.org/10.1063/5.0004608
  4. Neese, F.
     Software update: The ORCA program system—Version 5.0
     WIRES Comput. Molec. Sci. 2022 12(1), e1606
     doi.org/10.1002/wcms.1606

List of optional additional citations

  1. Neese, F.
     Approximate second-order SCF convergence for spin unrestricted wavefunctions
     Chem. Phys. Lett. 2000 325(1-3), 93-98
     doi.org/10.1016/s0009-2614(00)00662-x

Timings for individual modules:

Sum of individual times          ...       11.199 sec (=   0.187 min)
Startup calculation              ...        0.547 sec (=   0.009 min)   4.9 %
SCF iterations                   ...        9.824 sec (=   0.164 min)  87.7 %
Property integrals               ...        0.377 sec (=   0.006 min)   3.4 %
Property calculations            ...        0.355 sec (=   0.006 min)   3.2 %
Orbital localization             ...        0.097 sec (=   0.002 min)   0.9 %
                             ****ORCA TERMINATED NORMALLY****
TOTAL RUN TIME: 0 days 0 hours 0 minutes 13 seconds 272 msec
