
                                 *****************
                                 * O   R   C   A *
                                 *****************

                                            #,                                       
                                            ###                                      
                                            ####                                     
                                            #####                                    
                                            ######                                   
                                           ########,                                 
                                     ,,################,,,,,                         
                               ,,#################################,,                 
                          ,,##########################################,,             
                       ,#########################################, ''#####,          
                    ,#############################################,,   '####,        
                  ,##################################################,,,,####,       
                ,###########''''           ''''###############################       
              ,#####''   ,,,,##########,,,,          '''####'''          '####       
            ,##' ,,,,###########################,,,                        '##       
           ' ,,###''''                  '''############,,,                           
         ,,##''                                '''############,,,,        ,,,,,,###''
      ,#''                                            '''#######################'''  
     '                                                          ''''####''''         
             ,#######,   #######,   ,#######,      ##                                
            ,#'     '#,  ##    ##  ,#'     '#,    #''#        ,####,    ,#,          
            ##       ##  ##   ,#'  ##            #'  '#       #'       ,# #          
            ##       ##  #######   ##           ,######,      #####,      #          
            '#,     ,#'  ##    ##  '#,     ,#' ,#      #,     #,   #      #          
             '#######'   ##     ##  '#######'  #'      '#     '####' #    #          



                #########################################################
                #                        -***-                          #
                #          Department of theory and spectroscopy        #
                #                                                       #
                #                      Frank Neese                      #
                #                                                       #
                #     Directorship, Architecture, Infrastructure        #
                #                    SHARK, DRIVERS                     #
                #        Core code/Algorithms in most modules           #
                #                                                       #
                #        Max Planck Institute fuer Kohlenforschung      #
                #                Kaiser Wilhelm Platz 1                 #
                #                 D-45470 Muelheim/Ruhr                 #
                #                      Germany                          #
                #                                                       #
                #                  All rights reserved                  #
                #                        -***-                          #
                #########################################################


                         Program Version 6.1.1  -  RELEASE   -
                                (GIT: $487d211c$)
                          ($2025-11-21 10:33:24 +0100$)


 With contributions from (in alphabetic order):
[Max-Planck-Institut fuer Kohlenforschung]                               
  Daniel Aravena         : Magnetic Suceptibility                        
  Michael Atanasov       : Ab Initio Ligand Field Theory (pilot matlab implementation)
  Alexander A. Auer      : GIAO ZORA, VPT2 properties, NMR spectrum      
  Ute Becker             : All parallelization in ORCA, NUMFREQ, NUMCALC 
  Giovanni Bistoni       : ED, misc. LED, open-shell LED, HFLD           
  Dmytro Bykov           : pre 5.0 version of the SCF Hessian            
  Marcos Casanova-Páez   : Triplet and SCS-CIS(D). UHF-(DLPNO)-IP/EA/STEOM-CCSD. UHF-CVS-IP/STEOM-CCSD   
  Vijay G. Chilkuri      : MRCI spin determinant printing, contributions to CSF-ICE 
  Pauline Colinet        : FMM embedding                                 
  Dipayan Datta          : RHF DLPNO-CCSD density                        
  Achintya Kumar Dutta   : EOM-CC, STEOM-CC                              
  Nicolas Foglia         : Exact transition moments, OPA infrastructure, MCD improvements    
  Dmitry Ganyushin       : Spin-Orbit,Spin-Spin,Magnetic field MRCI      
  Miquel Garcia-Rates    : C-PCM and meta-GGA Hessian, CCSD/C-PCM, Gaussian charge scheme 
  Tiago L. C. Gouveia    : GS-ROHF, GS-ROCIS                             
  Yang Guo               : DLPNO-NEVPT2, F12-NEVPT2, CIM, IAO-localization        
  Andreas Hansen         : Spin unrestricted coupled pair/coupled cluster methods 
  Ingolf Harden          : AUTO-CI MPn and infrastructure                
  Benjamin Helmich-Paris : MC-RPA, TRAH-(SCF,CASSCF), AVAS, COSX integrals, SCF dyn. polar., MC-PDFT, srDFT 
  Lee Huntington         : MR-EOM, pCC                                   
  Robert Izsak           : Overlap fitted RIJCOSX, COSX-SCS-MP3, EOM     
  Riya Kayal             : Wick's Theorem for AUTO-CI, AUTO-CI UHF-CCSDT 
  Emily Kempfer          : AUTO-CI RHF CISDT and CCSDT, approximate NEVPT4
  Christian Kollmar      : KDIIS, OOCD, Brueckner-CCSD(T), CCSD density, CASPT2, CASPT2-K, improved NEVPT2 
  Axel Koslowski         : Symmetry handling                             
  Simone Kossmann        : meta-GGA functionals, TD-DFT gradient, OOMP2, (MP2 Hessian; deprecated post 5.0) 
  Lucas Lang             : DCDCAS, Hyperfine gauge corrections, ICE-SOC+SSC
  Marvin Lechner         : AUTO-CI (C++ implementation), FIC-MRCC        
  Spencer Leger          : CASSCF response                               
  Dagmar Lenk            : GEPOL surface, SMD, ORCA-2-JSON               
  Dimitrios Liakos       : Extrapolation schemes; Compound Job, Property file
  Dimitrios Manganas     : Further ROCIS development; embedding schemes. LFT, Crystal Embedding 
  Dimitrios Pantazis     : SARC Basis sets                               
  Anastasios Papadopoulos: AUTO-CI, single reference methods and gradients 
  Taras Petrenko         : pre 6.0 DFT Hessian and TD-DFT gradient,  ECA, NRVS 
  Petra Pikulova         : Analytic Raman intensities                    
  Peter Pinski           : DLPNO-MP2, DLPNO-MP2 Gradient                 
  Shashank Vittal Rao    : ES-AILFT, MagRelax                            
  Christoph Reimann      : Effective Core Potentials                     
  Marius Retegan         : Local ZFS, SOC                                
  Christoph Riplinger    : Optimizer, TS searches, QM/MM, DLPNO-CCSD(T), (RO)-DLPNO pert. Triples 
  Michael Roemelt        : Original ROCIS implementation, recursive CI coupling coefficients
  Masaaki Saitow         : Open-shell DLPNO-CCSD energy and density      
  Barbara Sandhoefer     : DKH picture change effects                    
  Yorick L. A. Schmerwitz: GMF and freeze-and-release deltaSCF, NEB S-IDPP initial path                    
  Kantharuban Sivalingam : CASSCF convergence/infrastructure, NEVPT2, NEVPT3, NEVPT4(SD), FIC-MRCI and CEPA variants
  Bernardo de Souza      : ESD, SOC TD-DFT                               
  Georgi L. Stoychev     : AutoAux, RI-MP2 NMR, DLPNO-MP2 response, X2C  
  Van Anh Tran           : RI-MP2 g-tensors                              
  Willem Van den Heuvel  : Paramagnetic NMR                              
  Zikuan Wang            : NOTCH, Electric field optimization            
  Frank Wennmohs         : Technical directorship and infrastructure     
  Hang Xu                : AUTO-CI-Response properties                   
                                                                         
[FACCTs GmbH]                                                            
  Markus Bursch, Nicolas Foglia, Miquel Garcia-Rates, Ingolf Harden, Hagen Neugebauer, Anastasios Papadopoulos, 
  Christoph Riplinger, Bernardo de Souza, Georgi L. Stoychev                                                    
                                                                 
  APM, various basis sets, CI-OPT, improved COSX, DLPNO-Multilevel,           
  DOCKER, DRACO, updates on ESD, Fragmentator, GOAT, IRC, LR-CPCM, L-BFGS, MBIS, meta-GGA TD-DFT gradient, ML-optimized integration grids, 
  MM, NACMEs, nearIR, NEB, NEB-TS, NL-DFT gradient (VV10), 2- and 3-layer-ONIOM, interface openCOSMO-RS, QMMM,   
  Crystal-QMMM, RESP, rigid body optimization, SF, symmetry and pop. for TD-DFT, various functionals, SOLVATOR                                   
                                                                         
[Other institutions]                                                     
  V. Asgeirsson          : NEB                                           
  Christoph Bannwarth    : sTDA-DFT, sTD-DFT, PBEh-3c, B97-3c, D3        
  Giovanni Bistoni       : ETS/NOCV, ADLD/ADEX, COVALED                  
  Martin Brehm           : Molecular dynamics                            
  Ronald Cardenas        : ETS/NOCV                                      
  Martina Colucci        : COVALED                                       
  Sebastian Ehlert       : rSCAN, r2SCAN, r2SCAN-3c, D4, dhf basis sets  
  Marvin Friede          : D4 for Fr, Ra, Ac-Lr                          
  Lars Goerigk           : TD-DFT with DH, B97 family of functionals     
  Stefan Grimme          : VdW corrections, initial TS optimization, DFT functionals, gCP, sTDA/sTD-DF 
  Waldemar Hujo          : DFT-NL                                        
  H. Jonsson             : NEB                                           
  Holger Kruse           : gCP                                           
  Marcel Mueller         : wB97X-3c, vDZP basis set                      
  Hagen Neugebauer       : wr2SCAN, Native XTB                           
  Gianluca Regni         : ADLD/ADEX                                     
  Tobias Risthaus        : pre 6.0 range-separated hybrid DFT and stability analysis
  Lukas Wittmann         : regularized MP2, r2SCAN double-hybrids, wr2SCAN        
                                                                         
We gratefully acknowledge several colleagues who have allowed us to      
interface, adapt or use parts of their codes:                            
  Ed Valeev, F. Pavosevic, A. Kumar             : LibInt (2-el integral package), F12 methods 
  Garnet Chan, S. Sharma, J. Yang, R. Olivares  : DMRG                   
  Ulf Ekstrom                                   : XCFun DFT Library      
  Mihaly Kallay                                 : mrcc  (arbitrary order and MRCC methods)
  Frank Weinhold                                : gennbo (NPA and NBO analysis)           
  Simon Mueller                                 : openCOSMO-RS                            
  Christopher J. Cramer and Donald G. Truhlar   : smd solvation model                     
  S Lehtola, MJT Oliveira, MAL Marques          : LibXC Library                           
  Liviu Ungur et al                             : ANISO software                          


 Your calculation uses the libint2 library for the computation of 2-el integrals
 For citations please refer to: http://libint.valeyev.net

 Your ORCA version has been built with support for libXC version: 7.0.0
 For citations please refer to: https://libxc.gitlab.io

 This ORCA versions uses:
   CBLAS   interface :  Fast vector & matrix operations
   LAPACKE interface :  Fast linear algebra routines
   SCALAPACK package :  Parallel linear algebra routines
   Shared memory     :  Shared parallel matrices
   BLAS/LAPACK       :  OpenBLAS 0.3.29  USE64BITINT DYNAMIC_ARCH NO_AFFINITY Cooperlake SINGLE_THREADED
        Core in use  :  Cooperlake
   Copyright (c) 2011-2014, The OpenBLAS Project


  ***********************************
  * Starting time: Wed May 20 12:40:04 2026
  * Host name:     c1-43
  * Process ID:    3491581
  * Working dir.:  /cluster/projects/nn14654k/ylvaos/basis_set_n_funcs/functionals/pbe/PO2/out
  ***********************************

================================================================================

----- Orbital basis set information -----
Your calculation utilizes the basis: aug-cc-pVQZ 
    H, B-Ne : Obtained from the ccRepo (grant-hill.group.shef.ac.uk/ccrepo) Feb. 2017
              R. A. Kendall, T. H. Dunning, Jr., R. J. Harrison, J. Chem. Phys. 96, 6796 (1992)
         He : Obtained from the ccRepo (grant-hill.group.shef.ac.uk/ccrepo) Feb. 2017
              D. E. Woon, T. H. Dunning, Jr., J. Chem. Phys. 100, 2975 (1994)
  Li-Be, Na : Obtained from the ccRepo (grant-hill.group.shef.ac.uk/ccrepo) Feb. 2017
              B. P. Prascher, D. E. Woon, K. A. Peterson, T. H. Dunning, Jr., A. K. Wilson, Theor. Chem. Acc. 128, 69 (2011)
         Mg : Obtained from the Peterson Research Group Website (tyr0.chem.wsu.edu/~kipeters) Feb. 2017
              B. P. Prascher, D. E. Woon, K. A. Peterson, T. H. Dunning, Jr., A. K. Wilson, Theor. Chem. Acc. 128, 69 (2011)
      Al-Ar : Obtained from the ccRepo (grant-hill.group.shef.ac.uk/ccrepo) Feb. 2017
              D. E. Woon, T. H. Dunning, Jr., J. Chem. Phys. 98, 1358 (1993)
      Sc-Zn : Obtained from the ccRepo (grant-hill.group.shef.ac.uk/ccrepo) Feb. 2017
              N. B. Balabanov, K. A. Peterson, J. Chem. Phys. 123, 064107 (2005)
              N. B. Balabanov, K. A. Peterson, J. Chem. Phys. 125, 074110 (2006)
      Ga-Kr : Obtained from the ccRepo (grant-hill.group.shef.ac.uk/ccrepo) Feb. 2017
              A. K. Wilson, D. E. Woon, K. A. Peterson, T. H. Dunning, Jr., J. Chem. Phys. 110, 7667 (1999)

================================================================================
                                        WARNINGS
                       Please study these warnings very carefully!
================================================================================


WARNING: your system is open-shell and RHF/RKS was chosen
  ===> : WILL SWITCH to UHF/UKS


================================================================================
                                       INPUT FILE
================================================================================
NAME = /cluster/projects/nn14654k/ylvaos/basis_set_n_funcs/functionals/pbe/PO2/inp/PO2_pbe_augccpvqz.inp
|  1> ! dft aug-cc-pVQZ TightSCF
|  2> %pal nprocs 8 end
|  3> 
|  4> %loc
|  5>   LocMet NewBoys
|  6>   Occ true
|  7> end
|  8> 
|  9> %method
| 10>   
| 11>   functional pbe
| 12> end
| 13> 
| 14> %elprop
| 15>   Dipole true
| 16>   Quadrupole true
| 17> end
| 18> 
| 19> * xyz 0 2
| 20> P    0.000000000000   0.000000000000   0.287900000000
| 21> O    0.000000000000   1.356300000000  -0.269900000000
| 22> O    0.000000000000  -1.356300000000  -0.269900000000
| 23> *
| 24> 
| 25> 
| 26>                          ****END OF INPUT****
================================================================================

                       ****************************
                       * Single Point Calculation *
                       ****************************

---------------------------------
CARTESIAN COORDINATES (ANGSTROEM)
---------------------------------
  P      0.000000    0.000000    0.287900
  O      0.000000    1.356300   -0.269900
  O      0.000000   -1.356300   -0.269900

----------------------------
CARTESIAN COORDINATES (A.U.)
----------------------------
  NO LB      ZA    FRAG     MASS         X           Y           Z
   0 P    15.0000    0    30.974    0.000000    0.000000    0.544052
   1 O     8.0000    0    15.999    0.000000    2.563036   -0.510037
   2 O     8.0000    0    15.999    0.000000   -2.563036   -0.510037

--------------------------------
INTERNAL COORDINATES (ANGSTROEM)
--------------------------------
 P      0   0   0     0.000000000000     0.00000000     0.00000000
 O      1   0   0     1.466523279733     0.00000000     0.00000000
 O      1   2   0     1.466523279733   135.28860674     0.00000000

---------------------------
INTERNAL COORDINATES (A.U.)
---------------------------
 P      0   0   0     0.000000000000     0.00000000     0.00000000
 O      1   0   0     2.771327367716     0.00000000     0.00000000
 O      1   2   0     2.771327367716   135.28860674     0.00000000

---------------------
BASIS SET INFORMATION
---------------------
There are 2 groups of distinct atoms

 Group   1 Type P   : 43s20p4d3f2g contracted to 7s6p4d3f2g pattern {1313131111/881111/1111/111/11}
 Group   2 Type O   : 22s7p4d3f2g contracted to 6s5p4d3f2g pattern {991111/31111/1111/111/11}

Atom   0P    basis set group =>   1
Atom   1O    basis set group =>   2
Atom   2O    basis set group =>   2


           ************************************************************
           *        Program running with 8 parallel MPI-processes     *
           *              working on a common directory               *
           ************************************************************
------------------------------------------------------------------------------
                             ORCA STARTUP CALCULATIONS
------------------------------------------------------------------------------
------------------------------------------------------------------------------
                   ___                                                        
                  /   \      - P O W E R E D   B Y -                         
                 /     \                                                     
                 |  |  |   _    _      __       _____    __    __             
                 |  |  |  | |  | |    /  \     |  _  \  |  |  /  |          
                  \  \/   | |  | |   /    \    | | | |  |  | /  /          
                 / \  \   | |__| |  /  /\  \   | |_| |  |  |/  /          
                |  |  |   |  __  | /  /__\  \  |    /   |      \           
                |  |  |   | |  | | |   __   |  |    \   |  |\   \          
                \     /   | |  | | |  |  |  |  | |\  \  |  | \   \       
                 \___/    |_|  |_| |__|  |__|  |_| \__\ |__|  \__/        
                                                                              
                      - O R C A' S   B I G   F R I E N D -                    
                                      &                                       
                       - I N T E G R A L  F E E D E R -                       
                                                                              
 v1 FN, 2020, v2 2021, v3 2022-2024                                           
------------------------------------------------------------------------------


----------------------
SHARK INTEGRAL PACKAGE
----------------------

Number of atoms                             ...      3
Number of basis functions                   ...    286
Number of shells                            ...     92
Maximum angular momentum                    ...      4
Integral batch strategy                     ... SHARK/LIBINT Hybrid
RI-J (if used) integral strategy            ... SPLIT-RIJ (Revised 2003 algorithm where possible)
Printlevel                                  ...      1
Contraction scheme used                     ... PARTIAL GENERAL contraction
Prescreening option                         ... SCHWARTZ
   Thresh                                   ... 2.500e-11
   Tcut                                     ... 2.500e-12
   Tpresel                                  ... 2.500e-12 
Coulomb Range Separation                    ... NOT USED
Exchange Range Separation                   ... NOT USED
Multipole approximations                    ... NOT USED
Finite Nucleus Model                        ... NOT USED
CABS basis                                  ... NOT available
Auxiliary Coulomb fitting basis             ... NOT available
Auxiliary J/K fitting basis                 ... NOT available
Auxiliary Correlation fitting basis         ... NOT available
Auxiliary 'external' fitting basis          ... NOT available

Checking pre-screening integrals            ... done (  0.0 sec) Dimension = 92
Save PGC pre-screening integrals            ... done (  0.0 sec) Dimension = 92
Calculate PGC overlap integrals             ... done (  0.1 sec) Dimension = 62
Calculating pre-screening integrals (ORCA)  ... done (  0.1 sec) Dimension = 62
Shell pair information
Shell pair cut-off parameter TPreSel        ...   2.5e-12
Total number of shell pairs                 ...      4278
Shell pairs after pre-screening             ...      3704
Total number of primitive shell pairs       ...      4662
Primitive shell pairs kept                  ...      3954
          la=0 lb=0:    641 shell pairs
          la=1 lb=0:    786 shell pairs
          la=1 lb=1:    244 shell pairs
          la=2 lb=0:    472 shell pairs
          la=2 lb=1:    260 shell pairs
          la=2 lb=2:     77 shell pairs
          la=3 lb=0:    365 shell pairs
          la=3 lb=1:    196 shell pairs
          la=3 lb=2:    106 shell pairs
          la=3 lb=3:     45 shell pairs
          la=4 lb=0:    233 shell pairs
          la=4 lb=1:    132 shell pairs
          la=4 lb=2:     72 shell pairs
          la=4 lb=3:     54 shell pairs
          la=4 lb=4:     21 shell pairs

Checking whether 4 symmetric matrices of dimension 286 fit in memory
:Max Core in MB      =   4096.00
 MB in use           =      7.66
 MB left             =   4088.34
 MB needed           =      1.25
 Data fit in memory  = YES
Calculating Nuclear repulsion               ... done (  0.0 sec) ENN=     99.086296046297 Eh

Diagonalization of the overlap matrix:
Smallest eigenvalue                        ... 8.157e-05
Time for diagonalization                   ...    0.004 sec
Threshold for overlap eigenvalues          ... 1.000e-07
Number of eigenvalues below threshold      ... 0
Time for construction of square roots      ...    0.004 sec
Total time needed                          ...    0.012 sec

-------------------
DFT GRID GENERATION
-------------------

General Integration Accuracy     IntAcc      ... 4.388
Radial Grid Type                 RadialGrid  ... OptM3 with GC (2021)
Angular Grid (max. ang.)         AngularGrid ... 4 (Lebedev-302)
Angular grid pruning method      GridPruning ... 4 (adaptive)
Weight generation scheme         WeightScheme... mBecke (2022)
Basis function cutoff            BFCut       ... 1.0000e-11
Integration weight cutoff        WCut        ... 1.0000e-14
Partially contracted basis set               ... off
Rotationally invariant grid construction     ... off
Angular grids for H and He will be reduced by one unit
Diffuse basis detected: some atoms will have their outermost
                        angular grid increased by 1.

Total number of grid points                  ...    20582
Total number of batches                      ...      323
Average number of points per batch           ...       63
Average number of grid points per atom       ...     6861

---------------------
SHARK GRID GENERATION
---------------------

General Integration Accuracy     IntAcc      ... 4.388
Radial Grid Type                 RadialGrid  ... OptM3 with GC (2021)
Angular Grid (max. ang.)         AngularGrid ... 4 (Lebedev-302)
Angular grid pruning method      GridPruning ... 4 (adaptive)
Weight generation scheme         WeightScheme... mBecke (2022)
Basis function cutoff            BFCut       ... 1.0000e-11
Integration weight cutoff        WCut        ... 1.0000e-14
Partially contracted basis set               ... off
Rotationally invariant grid construction     ... off
Angular grids for H and He will be reduced by one unit
Diffuse basis detected: some atoms will have their outermost
                        angular grid increased by 1.
Core-polarized basis detected: some atoms will have their core
                               angular grid increased.
Steep s-basis detected: some atoms will have their radial
                        grid points doubled.

Total number of grid points                  ...    46090
Total number of batches                      ...      722
Average number of points per batch           ...       63
Average number of grid points per atom       ...    15363
Grids setup in   0.5 sec
Initializing property integral containers    ... done (  0.0 sec)

SHARK setup successfully completed in   0.8 seconds

Maximum memory used throughout the entire STARTUP-calculation: 61.2 MB


           ************************************************************
           *        Program running with 8 parallel MPI-processes     *
           *              working on a common directory               *
           ************************************************************
-------------------------------------------------------------------------------
                                 ORCA GUESS
                   Start orbitals & Density for SCF / CASSCF
-------------------------------------------------------------------------------

------------
SCF SETTINGS
------------
Hamiltonian:
 Density Functional     Method          .... DFT(GTOs)
 Exchange Functional    Exchange        .... PBE
   PBE kappa parameter   XKappa         ....  0.804000
   PBE mue parameter    XMuePBE         ....  0.219520
 Correlation Functional Correlation     .... PBE
   PBE beta parameter  CBetaPBE         ....  0.066725
 LDA part of GGA corr.  LDAOpt          .... PW91-LDA
 Gradients option       PostSCFGGA      .... off
   NL short-range parameter             ....  6.400000


General Settings:
 Integral files         IntName         .... /cluster/projects/nn14654k/ylvaos/basis_set_n_funcs/functionals/pbe/PO2/inp/PO2_pbe_augccpvqz
 Hartree-Fock type      HFTyp           .... UHF
 Total Charge           Charge          ....    0
 Multiplicity           Mult            ....    2
 Number of Electrons    NEL             ....   31
 Basis Dimension        Dim             ....  244
 Nuclear Repulsion      ENuc            ....     99.0862960463 Eh

Convergence Acceleration:
 AO-DIIS                CNVDIIS         .... on
   Start iteration      DIISMaxIt       ....    12
   Startup error        DIISStart       ....  0.200000
   # of expansion vecs  DIISMaxEq       ....     5
   Bias factor          DIISBfac        ....   1.050
   Max. coefficient     DIISMaxC        ....  10.000
 MO-DIIS                CNVKDIIS        .... off
 Trust-Rad. Augm. Hess. CNVTRAH         .... auto
   Auto Start mean grad. ratio tolernc. ....  1.125000
   Auto Start start iteration           ....    50
   Auto Start num. interpolation iter.  ....    10
   Max. Number of Micro iterations      ....    24
   Max. Number of Macro iterations      .... Maxiter - #DIIS iter
   Number of Davidson start vectors     ....     2
   Converg. threshold    (grad. norm)   ....   1.000e-05
   Grad. Scal. Fac. for Micro threshold ....   0.100
   Minimum threshold for Micro iter.    ....   1.000e-02
   NR start threshold (gradient norm)   ....   1.000e-04
   Initial trust radius                 ....   0.400
   Minimum AH scaling param. (alpha)    ....   1.000
   Maximum AH scaling param. (alpha)    .... 1000.000
   Quad. conv. algorithm                .... NR
   White noise on init. David. guess    .... on
   Maximum white noise                  ....   0.010
   Pseudo random numbers                .... off
   Inactive MOs                         .... canonical
   Orbital update algorithm             .... Taylor
   Preconditioner                       .... Diag
   Full preconditioner red. dimension   ....   250
 SOSCF                 CNVSOSCF           .... on
   Start iteration     SOSCFMaxIt         ....   150
   Startup grad/error  SOSCFStart         ....  0.003300
   Hessian update      SOSCFHessUp        .... L-BFGS
   Autom. constraints  SOSCFAutoConstrain .... off
 Level Shifting         CNVShift        .... on
   Level shift para.    LevelShift      ....    0.2500
   Turn off err/grad.   ShiftErr        ....    0.0010
 Zerner damping         CNVZerner       .... off
 Static damping         CNVDamp         .... on
   Fraction old density DampFac         ....    0.7000
   Max. Damping (<1)    DampMax         ....    0.9800
   Min. Damping (>=0)   DampMin         ....    0.0000
   Turn off err/grad.   DampErr         ....    0.1000

SCF Procedure:
 Maximum # iterations   MaxIter         ....   125
 SCF integral mode      SCFMode         .... Direct
   Integral package                     .... SHARK and LIBINT hybrid scheme
 Reset frequency        DirectResetFreq ....    20
 Integral Threshold     Thresh          ....  2.500e-11 Eh
 Primitive CutOff       TCut            ....  2.500e-12 Eh

Convergence Tolerance:
 Convergence Check Mode ConvCheckMode   .... Total+1el-Energy
 Convergence forced     ConvForced      .... 0
 Energy Change          TolE            ....  1.000e-08 Eh
 1-El. energy change                    ....  1.000e-05 Eh
 Orbital Gradient       TolG            ....  1.000e-05
 Orbital Rotation angle TolX            ....  1.000e-05
 DIIS Error             TolErr          ....  5.000e-07

------------------------------
INITIAL GUESS: MODEL POTENTIAL
------------------------------
Loading Hartree-Fock densities                     ... done
Calculating cut-offs                               ... done
Initializing the effective Hamiltonian             ... done
Setting up the integral package (SHARK)            ... done
Starting the Coulomb interaction                   ... done (   0.0 sec)
Making the grid                                    ... done (   0.1 sec)
Mapping shells                                     ... done
Starting the XC term evaluation                    ... done (   0.0 sec)
  promolecular density results
     # of electrons  =     31.000240993
     EX              =    -38.797036636
     EC              =     -1.107803539
     EX+EC           =    -39.904840176
Transforming the Hamiltonian                       ... done (   0.0 sec)
Diagonalizing the Hamiltonian                      ... done (   0.0 sec)
Back transforming the eigenvectors                 ... done (   0.0 sec)
Now organizing SCF variables                       ... done
                      ------------------
                      INITIAL GUESS DONE (   0.2 sec)
                      ------------------
             **** ENERGY FILE WAS UPDATED (/cluster/projects/nn14654k/ylvaos/basis_set_n_funcs/functionals/pbe/PO2/inp/PO2_pbe_augccpvqz.en.tmp) ****
Finished Guess after   0.4 sec
Maximum memory used throughout the entire GUESS-calculation: 15.6 MB


           ************************************************************
           *        Program running with 8 parallel MPI-processes     *
           *              working on a common directory               *
           ************************************************************

-------------------------------------------------------------------------------------------
                                      ORCA LEAN-SCF
                              memory conserving SCF solver
-------------------------------------------------------------------------------------------

----------------------------------------D-I-I-S--------------------------------------------
Iteration    Energy (Eh)           Delta-E    RMSDP     MaxDP     DIISErr   Damp  Time(sec)
-------------------------------------------------------------------------------------------
               ***  Starting incremental Fock matrix formation  ***
    1    -491.3344762340022385     0.00e+00  2.76e-03  5.54e-02  1.56e-01  0.700   1.3
Warning: op=1 Small HOMO/LUMO gap (   0.061) - skipping pre-diagonalization
         Will do a full diagonalization
    2    -491.4784057637788806    -1.44e-01  1.06e-03  2.41e-02  3.80e-02  0.700   1.3
                               ***Turning on AO-DIIS***
    3    -491.5064630441470968    -2.81e-02  4.02e-04  6.76e-03  1.56e-02  0.700   1.4
    4    -491.5275211161943503    -2.11e-02  7.28e-04  9.54e-03  2.02e-02  0.000   1.3
    5    -491.5870901224060958    -5.96e-02  2.33e-04  4.19e-03  1.49e-02  0.000   1.2
    6    -491.5891519091960049    -2.06e-03  1.01e-04  1.73e-03  5.90e-03  0.000   1.2
                              *** Initializing SOSCF ***
---------------------------------------S-O-S-C-F--------------------------------------
Iteration    Energy (Eh)           Delta-E    RMSDP     MaxDP     MaxGrad    Time(sec)
--------------------------------------------------------------------------------------
    7    -491.5894759771229587    -3.24e-04  4.46e-05  7.36e-04  2.35e-03     1.2
               *** Restarting incremental Fock matrix formation ***
    8    -491.5895300413887412    -5.41e-05  8.81e-05  1.61e-03  1.51e-03     1.2
    9    -491.5894814609150103     4.86e-05  5.63e-05  1.29e-03  3.20e-03     1.1
   10    -491.5895447816531600    -6.33e-05  1.00e-05  1.20e-04  1.09e-04     1.0
   11    -491.5895450253220247    -2.44e-07  3.67e-06  7.42e-05  6.94e-05     1.0
   12    -491.5895451065755992    -8.13e-08  1.11e-06  2.85e-05  1.13e-05     0.9
   13    -491.5895451092753206    -2.70e-09  2.68e-07  4.25e-06  5.80e-06     0.9
                 **** Energy Check signals convergence ****

               *****************************************************
               *                     SUCCESS                       *
               *           SCF CONVERGED AFTER  13 CYCLES          *
               *****************************************************

             **** ENERGY FILE WAS UPDATED (/cluster/projects/nn14654k/ylvaos/basis_set_n_funcs/functionals/pbe/PO2/inp/PO2_pbe_augccpvqz.en.tmp) ****

----------------
TOTAL SCF ENERGY
----------------

Total Energy       :       -491.58954511016321 Eh          -13376.83159 eV

Components:
Nuclear Repulsion  :         99.08629604629714 Eh            2696.27519 eV
Electronic Energy  :       -590.67584115646036 Eh          -16073.10678 eV
One Electron Energy:       -875.18254245292246 Eh          -23814.92771 eV
Two Electron Energy:        284.50670129646204 Eh            7741.82093 eV

Virial components:
Potential Energy   :       -981.73396919001675 Eh          -26714.33943 eV
Kinetic Energy     :        490.14442407985348 Eh           13337.50785 eV
Virial Ratio       :          2.00294835758465

DFT components:
N(Alpha)           :       15.999949745164 electrons
N(Beta)            :       14.999977734831 electrons
N(Total)           :       30.999927479996 electrons
E(X)               :      -38.991506616518 Eh       
E(C)               :       -1.111342073350 Eh       
E(XC)              :      -40.102848689868 Eh       

---------------
SCF CONVERGENCE
---------------

  Last Energy change         ...    2.6997e-09  Tolerance :   1.0000e-08
  Last MAX-Density change    ...    4.2478e-06  Tolerance :   1.0000e-07
  Last RMS-Density change    ...    2.6814e-07  Tolerance :   5.0000e-09
  Last DIIS Error            ...    2.3519e-03  Tolerance :   5.0000e-07
  Last Orbital Gradient      ...    5.7989e-06  Tolerance :   1.0000e-05
  Last Orbital Rotation      ...    1.1333e-05  Tolerance :   1.0000e-05


----------------------
UHF SPIN CONTAMINATION
----------------------

Warning: in a DFT calculation there is little theoretical justification to 
         calculate <S**2> as in Hartree-Fock theory. We will do it anyways
         but you should keep in mind that the values have only limited relevance

Expectation value of <S**2>     :     0.752912
Ideal value S*(S+1) for S=0.5   :     0.750000
Deviation                       :     0.002912

----------------
ORBITAL ENERGIES
----------------
                 SPIN UP ORBITALS
  NO   OCC          E(Eh)            E(eV) 
   0   1.0000     -76.453345     -2080.4013 
   1   1.0000     -18.806697      -511.7562 
   2   1.0000     -18.806691      -511.7561 
   3   1.0000      -6.422720      -174.7711 
   4   1.0000      -4.643918      -126.3674 
   5   1.0000      -4.640847      -126.2839 
   6   1.0000      -4.637332      -126.1882 
   7   1.0000      -0.992833       -27.0164 
   8   1.0000      -0.947727       -25.7890 
   9   1.0000      -0.515860       -14.0373 
  10   1.0000      -0.420041       -11.4299 
  11   1.0000      -0.405242       -11.0272 
  12   1.0000      -0.404715       -11.0129 
  13   1.0000      -0.337796        -9.1919 
  14   1.0000      -0.329280        -8.9602 
  15   1.0000      -0.271962        -7.4005 
  16   0.0000      -0.125392        -3.4121 
  17   0.0000      -0.034970        -0.9516 
  18   0.0000       0.003558         0.0968 
  19   0.0000       0.013835         0.3765 
  20   0.0000       0.024783         0.6744 
  21   0.0000       0.039611         1.0779 
  22   0.0000       0.075904         2.0655 
  23   0.0000       0.080138         2.1807 
  24   0.0000       0.085967         2.3393 
  25   0.0000       0.093919         2.5557 
  26   0.0000       0.094556         2.5730 

                 SPIN DOWN ORBITALS
  NO   OCC          E(Eh)            E(eV) 
   0   1.0000     -76.451699     -2080.3565 
   1   1.0000     -18.800547      -511.5889 
   2   1.0000     -18.800542      -511.5888 
   3   1.0000      -6.420439      -174.7090 
   4   1.0000      -4.641776      -126.3091 
   5   1.0000      -4.636455      -126.1644 
   6   1.0000      -4.635995      -126.1519 
   7   1.0000      -0.979157       -26.6442 
   8   1.0000      -0.933250       -25.3950 
   9   1.0000      -0.494289       -13.4503 
  10   1.0000      -0.400878       -10.9084 
  11   1.0000      -0.397657       -10.8208 
  12   1.0000      -0.389816       -10.6074 
  13   1.0000      -0.333540        -9.0761 
  14   1.0000      -0.319828        -8.7030 
  15   0.0000      -0.224529        -6.1097 
  16   0.0000      -0.102374        -2.7857 
  17   0.0000      -0.021160        -0.5758 
  18   0.0000       0.015548         0.4231 
  19   0.0000       0.018768         0.5107 
  20   0.0000       0.030665         0.8344 
  21   0.0000       0.047597         1.2952 
  22   0.0000       0.084529         2.3002 
  23   0.0000       0.089647         2.4394 
  24   0.0000       0.090455         2.4614 
  25   0.0000       0.096597         2.6285 
*Only the first 10 virtual orbitals were printed.

                    ********************************
                    * MULLIKEN POPULATION ANALYSIS *
                    ********************************

--------------------------------------------
MULLIKEN ATOMIC CHARGES AND SPIN POPULATIONS
--------------------------------------------
   0 P :    1.439538    0.572247
   1 O :   -0.719769    0.213877
   2 O :   -0.719769    0.213877
Sum of atomic charges         :   -0.0000000
Sum of atomic spin populations:    1.0000000

-----------------------------------------------------
MULLIKEN REDUCED ORBITAL CHARGES AND SPIN POPULATIONS
-----------------------------------------------------
CHARGE
  0 P s       :     5.261569  s :     5.261569
      pz      :     2.800568  p :     7.965051
      px      :     2.641382
      py      :     2.523100
      dz2     :     0.043906  d :     0.298554
      dxz     :     0.008288
      dyz     :     0.072415
      dx2y2   :     0.065583
      dxy     :     0.108362
      f0      :     0.003765  f :     0.030949
      f+1     :     0.000123
      f-1     :     0.002175
      f+2     :     0.010134
      f-2     :     0.000042
      f+3     :     0.001900
      f-3     :     0.012810
      g0      :     0.000970  g :     0.004340
      g+1     :     0.000055
      g-1     :     0.003267
      g+2     :     0.000566
      g-2     :     0.000001
      g+3     :     0.000302
      g-3     :     0.001927
      g+4     :    -0.000369
      g-4     :    -0.002378

  1 O s       :     3.977139  s :     3.977139
      pz      :     1.595092  p :     4.675715
      px      :     1.595927
      py      :     1.484697
      dz2     :     0.005993  d :     0.058274
      dxz     :     0.003644
      dyz     :     0.018892
      dx2y2   :     0.011773
      dxy     :     0.017972
      f0      :     0.000566  f :     0.007014
      f+1     :     0.000029
      f-1     :     0.001026
      f+2     :     0.001276
      f-2     :     0.001130
      f+3     :     0.001831
      f-3     :     0.001156
      g0      :     0.000119  g :     0.001627
      g+1     :     0.000014
      g-1     :     0.000281
      g+2     :     0.000218
      g-2     :     0.000005
      g+3     :     0.000182
      g-3     :     0.000335
      g+4     :     0.000245
      g-4     :     0.000228

  2 O s       :     3.977139  s :     3.977139
      pz      :     1.595092  p :     4.675716
      px      :     1.595927
      py      :     1.484697
      dz2     :     0.005993  d :     0.058274
      dxz     :     0.003644
      dyz     :     0.018892
      dx2y2   :     0.011773
      dxy     :     0.017972
      f0      :     0.000566  f :     0.007014
      f+1     :     0.000029
      f-1     :     0.001026
      f+2     :     0.001276
      f-2     :     0.001130
      f+3     :     0.001831
      f-3     :     0.001156
      g0      :     0.000119  g :     0.001627
      g+1     :     0.000014
      g-1     :     0.000281
      g+2     :     0.000218
      g-2     :     0.000005
      g+3     :     0.000182
      g-3     :     0.000335
      g+4     :     0.000245
      g-4     :     0.000228


SPIN
  0 P s       :     0.350723  s :     0.350723
      pz      :     0.186408  p :     0.186170
      px      :     0.023580
      py      :    -0.023817
      dz2     :     0.019323  d :     0.043438
      dxz     :    -0.003655
      dyz     :    -0.004877
      dx2y2   :     0.037619
      dxy     :    -0.004972
      f0      :     0.000315  f :    -0.006808
      f+1     :    -0.000127
      f-1     :    -0.003855
      f+2     :     0.001821
      f-2     :    -0.001219
      f+3     :    -0.002986
      f-3     :    -0.000757
      g0      :     0.000236  g :    -0.001277
      g+1     :     0.000006
      g-1     :     0.000156
      g+2     :    -0.000115
      g-2     :     0.000001
      g+3     :     0.000172
      g-3     :    -0.000132
      g+4     :    -0.000652
      g-4     :    -0.000950

  1 O s       :    -0.000323  s :    -0.000323
      pz      :     0.178470  p :     0.219658
      px      :    -0.005247
      py      :     0.046435
      dz2     :    -0.000990  d :    -0.004256
      dxz     :     0.000092
      dyz     :    -0.003862
      dx2y2   :     0.000410
      dxy     :     0.000094
      f0      :     0.000001  f :    -0.001084
      f+1     :    -0.000012
      f-1     :    -0.000926
      f+2     :    -0.000105
      f-2     :     0.000100
      f+3     :     0.000034
      f-3     :    -0.000176
      g0      :    -0.000017  g :    -0.000119
      g+1     :     0.000001
      g-1     :    -0.000029
      g+2     :    -0.000044
      g-2     :    -0.000000
      g+3     :     0.000008
      g-3     :     0.000004
      g+4     :    -0.000045
      g-4     :     0.000005

  2 O s       :    -0.000323  s :    -0.000323
      pz      :     0.178470  p :     0.219658
      px      :    -0.005247
      py      :     0.046435
      dz2     :    -0.000990  d :    -0.004256
      dxz     :     0.000092
      dyz     :    -0.003862
      dx2y2   :     0.000410
      dxy     :     0.000094
      f0      :     0.000001  f :    -0.001084
      f+1     :    -0.000012
      f-1     :    -0.000926
      f+2     :    -0.000105
      f-2     :     0.000100
      f+3     :     0.000034
      f-3     :    -0.000176
      g0      :    -0.000017  g :    -0.000119
      g+1     :     0.000001
      g-1     :    -0.000029
      g+2     :    -0.000044
      g-2     :    -0.000000
      g+3     :     0.000008
      g-3     :     0.000004
      g+4     :    -0.000045
      g-4     :     0.000005



                     *******************************
                     * LOEWDIN POPULATION ANALYSIS *
                     *******************************

-------------------------------------------
LOEWDIN ATOMIC CHARGES AND SPIN POPULATIONS
-------------------------------------------
   0 P :   -0.072613    0.481818
   1 O :    0.036307    0.259091
   2 O :    0.036307    0.259091

----------------------------------------------------
LOEWDIN REDUCED ORBITAL CHARGES AND SPIN POPULATIONS
----------------------------------------------------
CHARGE
  0 P s       :     4.722187  s :     4.722187
      pz      :     2.674760  p :     7.951362
      px      :     2.524812
      py      :     2.751789
      dz2     :     0.177486  d :     1.430664
      dxz     :     0.019314
      dyz     :     0.455643
      dx2y2   :     0.406428
      dxy     :     0.371793
      f0      :     0.055483  f :     0.618454
      f+1     :     0.000905
      f-1     :     0.163815
      f+2     :     0.126408
      f-2     :     0.069415
      f+3     :     0.081245
      f-3     :     0.121182
      g0      :     0.033154  g :     0.349946
      g+1     :     0.003597
      g-1     :     0.041273
      g+2     :     0.056954
      g-2     :     0.000041
      g+3     :     0.037282
      g-3     :     0.059223
      g+4     :     0.046880
      g-4     :     0.071543

  1 O s       :     3.356413  s :     3.356413
      pz      :     1.384175  p :     4.225826
      px      :     1.317789
      py      :     1.523862
      dz2     :     0.027374  d :     0.244474
      dxz     :     0.007144
      dyz     :     0.094121
      dx2y2   :     0.063080
      dxy     :     0.052755
      f0      :     0.009353  f :     0.104123
      f+1     :     0.000108
      f-1     :     0.023066
      f+2     :     0.023718
      f-2     :     0.007182
      f+3     :     0.019712
      f-3     :     0.020984
      g0      :     0.001769  g :     0.032858
      g+1     :     0.000183
      g-1     :     0.006755
      g+2     :     0.003070
      g-2     :     0.000009
      g+3     :     0.002082
      g-3     :     0.008863
      g+4     :     0.007064
      g-4     :     0.003062

  2 O s       :     3.356413  s :     3.356413
      pz      :     1.384175  p :     4.225826
      px      :     1.317789
      py      :     1.523862
      dz2     :     0.027374  d :     0.244474
      dxz     :     0.007144
      dyz     :     0.094121
      dx2y2   :     0.063080
      dxy     :     0.052755
      f0      :     0.009353  f :     0.104123
      f+1     :     0.000108
      f-1     :     0.023066
      f+2     :     0.023718
      f-2     :     0.007182
      f+3     :     0.019712
      f-3     :     0.020984
      g0      :     0.001769  g :     0.032858
      g+1     :     0.000183
      g-1     :     0.006755
      g+2     :     0.003070
      g-2     :     0.000009
      g+3     :     0.002082
      g-3     :     0.008863
      g+4     :     0.007064
      g-4     :     0.003062


SPIN
  0 P s       :     0.145930  s :     0.145930
      pz      :     0.135136  p :     0.140388
      px      :     0.015394
      py      :    -0.010142
      dz2     :     0.072923  d :     0.172142
      dxz     :    -0.003472
      dyz     :    -0.004240
      dx2y2   :     0.108466
      dxy     :    -0.001535
      f0      :     0.002335  f :     0.005134
      f+1     :    -0.000182
      f-1     :    -0.001138
      f+2     :     0.008031
      f-2     :    -0.000518
      f+3     :    -0.003976
      f-3     :     0.000583
      g0      :     0.005154  g :     0.018224
      g+1     :    -0.000022
      g-1     :     0.000406
      g+2     :     0.009135
      g-2     :     0.000008
      g+3     :    -0.000041
      g-3     :     0.000257
      g+4     :     0.003449
      g-4     :    -0.000122

  1 O s       :     0.036542  s :     0.036542
      pz      :     0.142138  p :     0.192640
      px      :    -0.005629
      py      :     0.056131
      dz2     :     0.002623  d :     0.022614
      dxz     :     0.000463
      dyz     :     0.017124
      dx2y2   :     0.001020
      dxy     :     0.001384
      f0      :     0.000095  f :     0.006599
      f+1     :    -0.000019
      f-1     :     0.004207
      f+2     :     0.001162
      f-2     :     0.000484
      f+3     :     0.000478
      f-3     :     0.000192
      g0      :     0.000128  g :     0.000696
      g+1     :     0.000002
      g-1     :     0.000093
      g+2     :     0.000264
      g-2     :    -0.000001
      g+3     :     0.000046
      g-3     :     0.000008
      g+4     :     0.000131
      g-4     :     0.000025

  2 O s       :     0.036542  s :     0.036542
      pz      :     0.142138  p :     0.192640
      px      :    -0.005629
      py      :     0.056131
      dz2     :     0.002623  d :     0.022614
      dxz     :     0.000463
      dyz     :     0.017124
      dx2y2   :     0.001020
      dxy     :     0.001384
      f0      :     0.000095  f :     0.006599
      f+1     :    -0.000019
      f-1     :     0.004207
      f+2     :     0.001162
      f-2     :     0.000484
      f+3     :     0.000478
      f-3     :     0.000192
      g0      :     0.000128  g :     0.000696
      g+1     :     0.000002
      g-1     :     0.000093
      g+2     :     0.000264
      g-2     :    -0.000001
      g+3     :     0.000046
      g-3     :     0.000008
      g+4     :     0.000131
      g-4     :     0.000025



                      *****************************
                      * MAYER POPULATION ANALYSIS *
                      *****************************

  NA   - Mulliken gross atomic population
  ZA   - Total nuclear charge
  QA   - Mulliken gross atomic charge
  VA   - Mayer's total valence
  BVA  - Mayer's bonded valence
  FA   - Mayer's free valence

  ATOM       NA         ZA         QA         VA         BVA        FA
  0 P     13.5605    15.0000     1.4395     3.9273     3.5248     0.4025
  1 O      8.7198     8.0000    -0.7198     1.8538     1.8119     0.0419
  2 O      8.7198     8.0000    -0.7198     1.8538     1.8119     0.0419

  Mayer bond orders larger than 0.100000
B(  0-P ,  1-O ) :   1.7624 B(  0-P ,  2-O ) :   1.7624 

-------
TIMINGS
-------

Total SCF time: 0 days 0 hours 0 min 15 sec 

Total time                  ....      15.978 sec
Sum of individual times     ....      15.164 sec  ( 94.9%)

SCF preparation             ....       0.099 sec  (  0.6%)
Fock matrix formation       ....      13.912 sec  ( 87.1%)
  Startup                   ....       0.031 sec  (  0.2% of F)
  Coulomb formation         ....      12.607 sec  ( 90.6% of F)
  XC integration            ....       1.256 sec  (  9.0% of F)
    XC Preparation          ....       0.000 sec  (  0.0% of XC)
    Basis function eval.    ....       0.086 sec  (  6.8% of XC)
    Density eval.           ....       0.180 sec  ( 14.3% of XC)
    XC-Functional eval.     ....       0.012 sec  (  0.9% of XC)
    XC-Potential eval.      ....       0.506 sec  ( 40.3% of XC)
Diagonalization             ....       0.000 sec  (  0.0%)
Density matrix formation    ....       0.214 sec  (  1.3%)
Total Energy calculation    ....       0.052 sec  (  0.3%)
Population analysis         ....       0.030 sec  (  0.2%)
Orbital Transformation      ....       0.078 sec  (  0.5%)
Orbital Orthonormalization  ....       0.000 sec  (  0.0%)
DIIS solution               ....       0.618 sec  (  3.9%)
SOSCF solution              ....       0.161 sec  (  1.0%)
Finished LeanSCF after  16.0 sec

Maximum memory used throughout the entire LEANSCF-calculation: 26.5 MB


           ************************************************************
           *        Program running with 8 parallel MPI-processes     *
           *              working on a common directory               *
           ************************************************************

------------------------------------------------------------------------------
                         ORCA PROPERTY INTEGRAL CALCULATIONS
------------------------------------------------------------------------------

GBWName                                   ... /cluster/projects/nn14654k/ylvaos/basis_set_n_funcs/functionals/pbe/PO2/inp/PO2_pbe_augccpvqz.gbw
Number of atoms                           ...      3
Number of basis functions                 ...    286
Max core memory                           ...   4096 MB

Dipole integrals                          ... YES
Quadrupole integrals                      ... YES
Linear momentum integrals                 ...  NO
Angular momentum integrals                ...  NO
Higher moments length integrals           ...  NO
Higher moments velocity integrals         ...  NO
Kinetic energy integrals                  ...  NO
GIAO right hand sides                     ...  NO
GIAO dipole derivative integrals          ...  NO
SOC integrals                             ...  NO
EPR diamagnetic integrals (GIAO)          ...  NO
EPR gauge integrals                       ...  NO
Field gradient integrals                  ...  NO (   0 nuclei)
Spin-dipole/Fermi contact integrals       ...  NO (   0 nuclei)
Contact density integrals                 ...  NO (   0 nuclei)
Nucleus-orbit integrals                   ...  NO (   0 nuclei)
Geometric perturbations                   ...  NO (   3 nuclei)

Choice of electric origin   ... Center of mass
Position of electric origin ... (  0.0000,  0.0000,  0.0084) 
Choice of magnetic origin   ... GIAO
Position of magnetic origin ... (  0.0000,  0.0000,  0.0000) 

Calculating integrals                     ... Electric Dipole (Length)     done (  0.0 sec)
Calculating integrals                     ... Electric Quadrupole (Length) done (  0.0 sec)

Property integrals calculated in   0.0 sec

Maximum memory used throughout the entire PROPINT-calculation: 17.5 MB
------------------------------------------------------------------------------
                           ORCA ORBITAL LOCALIZATION
------------------------------------------------------------------------------

Input orbitals are from                  ... /cluster/projects/nn14654k/ylvaos/basis_set_n_funcs/functionals/pbe/PO2/inp/PO2_pbe_augccpvqz.gbw
Output orbitals are to                   ... /cluster/projects/nn14654k/ylvaos/basis_set_n_funcs/functionals/pbe/PO2/inp/PO2_pbe_augccpvqz.loc
Max. number of iterations                ... 128
Localizations seeded randomly            ... on
Convergence tolerance                    ... 1.000e-06
Threshold for strong local MOs           ... 9.500e-01
Threshold for bond MOs                   ... 8.500e-01
Operator                                 ... 0
Orbital range for localization           ... 4 to 15
Localization criterion                   ... NEW-BOYS
Doing the dipole integrals               ... o.k.
Initial value of the localization sum :    42.293391
ITERATION   0 : L=   49.3491109899 DL=  7.06e+00 (AVERGE_DL)=    0.3269630757 
ITERATION   1 : L=   49.9583029543 DL=  6.09e-01 (AVERGE_DL)=    0.0960738324 
ITERATION   2 : L=   50.0015116188 DL=  4.32e-02 (AVERGE_DL)=    0.0255866515 
ITERATION   3 : L=   50.0506839698 DL=  4.92e-02 (AVERGE_DL)=    0.0272953406 
ITERATION   4 : L=   50.1177949561 DL=  6.71e-02 (AVERGE_DL)=    0.0318878209 
ITERATION   5 : L=   50.1730742123 DL=  5.53e-02 (AVERGE_DL)=    0.0289407064 
ITERATION   6 : L=   50.2006009669 DL=  2.75e-02 (AVERGE_DL)=    0.0204223417 
ITERATION   7 : L=   50.2108066960 DL=  1.02e-02 (AVERGE_DL)=    0.0124351220 
ITERATION   8 : L=   50.2142044917 DL=  3.40e-03 (AVERGE_DL)=    0.0071750786 
ITERATION   9 : L=   50.2153156017 DL=  1.11e-03 (AVERGE_DL)=    0.0041030478 
ITERATION  10 : L=   50.2156812972 DL=  3.66e-04 (AVERGE_DL)=    0.0023538991 
ITERATION  11 : L=   50.2158019485 DL=  1.21e-04 (AVERGE_DL)=    0.0013520538 
ITERATION  12 : L=   50.2158413553 DL=  3.94e-05 (AVERGE_DL)=    0.0007727050 
ITERATION  13 : L=   50.2158539610 DL=  1.26e-05 (AVERGE_DL)=    0.0004370300 
ITERATION  14 : L=   50.2158578848 DL=  3.92e-06 (AVERGE_DL)=    0.0002438250 
ITERATION  15 : L=   50.2158590704 DL=  1.19e-06 (AVERGE_DL)=    0.0001340305 
ITERATION  16 : L=   50.2158594181 DL=  3.48e-07 (AVERGE_DL)=    0.0000725847 
LOCALIZATION SUM CONVERGED


--------------------------------------------------------------------------------
                    LOCALIZED MOLECULAR ORBITAL COMPOSITIONS
--------------------------------------------------------------------------------

The Mulliken populations for each LMO on each atom are computed
The LMO`s will be ordered according to atom index and type
  (A) Strongly localized MO`s have populations of >=0.950 on one atom
  (B) Two center bond orbitals have populations of >=0.850 on two atoms
  (C) Other MO`s are considered to be `delocalized`

FOUND  -   6 strongly local MO`s
       -   6 two center bond MO`s
       -   0 significantly delocalized MO`s

Rather strongly localized orbitals:
MO   9:   2O  -   0.967457
MO   8:   1O  -   0.967454
MO   7:   0P  -   1.037110
MO   6:   0P  -   0.997370
MO   5:   0P  -   0.997369
MO   4:   0P  -   0.990672
Bond-like localized orbitals:
MO  15:   2O  -   0.805385  and   0P  -   0.205701
MO  14:   2O  -   0.929114  and   0P  -   0.074403
MO  13:   2O  -   0.805364  and   0P  -   0.205706
MO  12:   1O  -   0.805386  and   0P  -   0.205699
MO  11:   1O  -   0.929110  and   0P  -   0.074406
MO  10:   1O  -   0.805371  and   0P  -   0.205703
Localized MO's were stored in: /cluster/projects/nn14654k/ylvaos/basis_set_n_funcs/functionals/pbe/PO2/inp/PO2_pbe_augccpvqz.loc
------------------------------------------------------------------------------
                           ORCA ORBITAL LOCALIZATION
------------------------------------------------------------------------------

Input orbitals are from                  ... /cluster/projects/nn14654k/ylvaos/basis_set_n_funcs/functionals/pbe/PO2/inp/PO2_pbe_augccpvqz.loc
Output orbitals are to                   ... /cluster/projects/nn14654k/ylvaos/basis_set_n_funcs/functionals/pbe/PO2/inp/PO2_pbe_augccpvqz.loc
Max. number of iterations                ... 128
Localizations seeded randomly            ... on
Convergence tolerance                    ... 1.000e-06
Threshold for strong local MOs           ... 9.500e-01
Threshold for bond MOs                   ... 8.500e-01
Operator                                 ... 1
Orbital range for localization           ... 4 to 14
Localization criterion                   ... NEW-BOYS
Doing the dipole integrals               ... o.k.
Initial value of the localization sum :    29.111454
ITERATION   0 : L=   39.6465963590 DL=  1.05e+01 (AVERGE_DL)=    0.4376620100 
ITERATION   1 : L=   42.4382087429 DL=  2.79e+00 (AVERGE_DL)=    0.2252922298 
ITERATION   2 : L=   42.9521963815 DL=  5.14e-01 (AVERGE_DL)=    0.0966707287 
ITERATION   3 : L=   42.9842694441 DL=  3.21e-02 (AVERGE_DL)=    0.0241484284 
ITERATION   4 : L=   42.9880345255 DL=  3.77e-03 (AVERGE_DL)=    0.0082738156 
ITERATION   5 : L=   42.9882512046 DL=  2.17e-04 (AVERGE_DL)=    0.0019848477 
ITERATION   6 : L=   42.9882768042 DL=  2.56e-05 (AVERGE_DL)=    0.0006822363 
ITERATION   7 : L=   42.9882878793 DL=  1.11e-05 (AVERGE_DL)=    0.0004487386 
ITERATION   8 : L=   42.9882957752 DL=  7.90e-06 (AVERGE_DL)=    0.0003788955 
ITERATION   9 : L=   42.9883015153 DL=  5.74e-06 (AVERGE_DL)=    0.0003230570 
ITERATION  10 : L=   42.9883056737 DL=  4.16e-06 (AVERGE_DL)=    0.0002749667 
ITERATION  11 : L=   42.9883086858 DL=  3.01e-06 (AVERGE_DL)=    0.0002340205 
ITERATION  12 : L=   42.9883108686 DL=  2.18e-06 (AVERGE_DL)=    0.0001992161 
ITERATION  13 : L=   42.9883124505 DL=  1.58e-06 (AVERGE_DL)=    0.0001695914 
ITERATION  14 : L=   42.9883135973 DL=  1.15e-06 (AVERGE_DL)=    0.0001443995 
ITERATION  15 : L=   42.9883144286 DL=  8.31e-07 (AVERGE_DL)=    0.0001229429 
LOCALIZATION SUM CONVERGED


--------------------------------------------------------------------------------
                    LOCALIZED MOLECULAR ORBITAL COMPOSITIONS
--------------------------------------------------------------------------------

The Mulliken populations for each LMO on each atom are computed
The LMO`s will be ordered according to atom index and type
  (A) Strongly localized MO`s have populations of >=0.950 on one atom
  (B) Two center bond orbitals have populations of >=0.850 on two atoms
  (C) Other MO`s are considered to be `delocalized`

FOUND  -   5 strongly local MO`s
       -   6 two center bond MO`s
       -   0 significantly delocalized MO`s

Rather strongly localized orbitals:
MO   8:   2O  -   0.963606
MO   7:   1O  -   0.963609
MO   6:   0P  -   0.998599
MO   5:   0P  -   0.994097
MO   4:   0P  -   0.994098
Bond-like localized orbitals:
MO  14:   2O  -   0.607952  and   0P  -   0.369923
MO  13:   2O  -   0.840381  and   0P  -   0.172106
MO  12:   2O  -   0.839948  and   0P  -   0.172455
MO  11:   1O  -   0.607929  and   0P  -   0.369945
MO  10:   1O  -   0.839931  and   0P  -   0.172463
MO   9:   1O  -   0.840419  and   0P  -   0.172073
Localized MO's were stored in: /cluster/projects/nn14654k/ylvaos/basis_set_n_funcs/functionals/pbe/PO2/inp/PO2_pbe_augccpvqz.loc

-------------------------   --------------------
FINAL SINGLE POINT ENERGY      -491.589545110163
-------------------------   --------------------



           ************************************************************
           *        Program running with 8 parallel MPI-processes     *
           *              working on a common directory               *
           ************************************************************

------------------------------------------------------------------------------
                              ORCA PROPERTY CALCULATIONS
------------------------------------------------------------------------------

GBWName                                 ... /cluster/projects/nn14654k/ylvaos/basis_set_n_funcs/functionals/pbe/PO2/inp/PO2_pbe_augccpvqz.gbw
Number of atoms                         ...      3
Number of basis functions               ...    286
Max core memory                         ...   4096 MB

Electric properties:
Dipole moment                           ... YES
Quadrupole moment                       ... YES
Static polarizability (Dipole/Dipole)   ...  NO
Static polarizability (Dipole/Quad.)    ...  NO
Static polarizability (Quad./Quad.)     ...  NO
Static polarizability (Velocity)        ...  NO
Static hyperpolarizability              ...  NO

Atomic electric properties:
Dipole moment                           ...  NO
Quadrupole moment                       ...  NO
Static polarizability                   ...  NO

Choice of electric origin               ... Center of mass
Position of electric origin             ...     0.000000     0.000000     0.008437

General magnetic properties:
Magnetizability                         ...  NO

EPR properties:
g-Tensor (aka g-matrix)                 ...  NO
Zero-Field splitting spin-orbit         ...  NO
Zero-field splitting spin-spin          ...  NO
Hyperfine couplings                     ...  NO (   0 nuclei)
Quadrupole couplings                    ...  NO (   0 nuclei)
Contact density                         ...  NO (   0 nuclei)

NMR properties:
Chemical shifts                         ...  NO (   0 nuclei)
Spin-rotation constants                 ...  NO (   0 nuclei)
Spin-spin couplings                     ...  NO (   0 nuclei,    0 pairs)

Choice of magnetic origin               ... GIAO
Position of magnetic origin             ...     0.000000     0.000000     0.000000

Properties with geometric perturbations:
SCF Hessian                             ...  NO
IR spectrum                             ...  NO
VCD spectrum                            ...  NO
X-ray spectroscopy properties:
SCF XES/XAS/RIXS spectra                ...  NO

SCF SOC stabilization energy            ...  NO
Diagonal Born-Oppenheimer correction    ...  NO

-------------
DIPOLE MOMENT
-------------

Method             : SCF
Type of density    : Electron Density
Multiplicity       :   2
Irrep              :   0
Energy             :  -491.5895451101632148 Eh
Basis              : AO
                                X                 Y                 Z
Electronic contribution:      0.000000000       0.000000002       0.753317850
Nuclear contribution   :      0.000000000       0.000000000      -0.261362976
                        -----------------------------------------
Total Dipole Moment    :      0.000000000       0.000000002       0.491954874
                        -----------------------------------------
Magnitude (a.u.)       :      0.491954874
Magnitude (Debye)      :      1.250449914



--------------------
Rotational spectrum 
--------------------
 
Rotational constants in cm-1:             3.442444             0.286393             0.264396 
Rotational constants in MHz :        103201.869580          8585.841533          7926.407020 

Dipole components along the rotational axes: 
x,y,z [a.u.] :     0.000000     0.491955     0.000000 
x,y,z [Debye]:     0.000000     1.250450     0.000000 

 

Dipole moment calculation done in   0.0 sec 

-----------------
QUADRUPOLE MOMENT
-----------------

Method             : SCF
Type of density    : Electron Density
Multiplicity       :   2
Irrep              :   0
Energy             :  -491.5895451101632148 Eh
Basis              : AO

                XX              YY              ZZ              XY              XZ              YZ
  NUC        0.000000000   105.106420135     8.604299986     0.000000000     0.000000000     0.000000000
  EL       -15.694867601  -126.039335848   -24.996779215     0.000000001     0.000000000    -0.000000005
  TOT      -15.694867601   -20.932915713   -16.392479229     0.000000001     0.000000000    -0.000000005 (a.u.)
           -21.110133687   -28.155487539   -22.048445186     0.000000001     0.000000000    -0.000000007 (Buckingham)

diagonalized tensor:
           -20.932915713   -16.392479229   -15.694867601 (a.u.)
           -28.155487539   -22.048445186   -21.110133687 (Buckingham)
           -13.152396205     5.168730855     7.983665351 (traceless form in Buckingham)

            -0.000000000     0.000000000     1.000000000
             1.000000000     0.000000001     0.000000000
             0.000000001    -1.000000000     0.000000000
        
Isotropic quadrupole :   -17.673420847

Quadrupole moment calculation done in   0.0 sec (  0.0 sec for integrals)

Maximum memory used throughout the entire PROP-calculation: 12.3 MB

--------------------------------
SUGGESTED CITATIONS FOR THIS RUN
--------------------------------

Below you find a list of papers that are relevant to this ORCA run
We neither can nor want to force you to cite these papers, but we appreciate if you do
You receive ORCA, which is the product of decades of hard work by many enthusiastic individuals, for free
The only thing we kindly ask in return is that you cite our papers,
We deeply appreciate it, if you show your appreciation for ORCA by not just citing the generic ORCA reference.

Please note that relegating all ORCA citations to the supporting information does *not* help us.
SI sections are not indexed - citations you put there will not count into any citation statistics
But we need these citations in order to attract the funding resources that allow us to do what we are doing

Therefore, if you are a happy ORCA user, please consider citing a few of the papers listed below in the main body of your paper

In addition to the list printed below, the program has created the file /cluster/projects/nn14654k/ylvaos/basis_set_n_funcs/functionals/pbe/PO2/inp/PO2_pbe_augccpvqz.bibtex that contains the list in bibtex format
You can import this file easily into all common literature databanks and citation aid programs

It goes without saying that in many instances, there are alternative algorithms to achieve similar
results as the ones you have gotten from ORCA. It is, of course, also the case that in some instances
ORCA just re-implements algorithms worked out by others. We are fully aware of that and we are also
fully appreciative of our colleagues work. Hence this citation list should not be read as indicating
that the listed papers, which are focused on our own work, are the only ones worth citing. It simply
meant to make it easier for users to cite ORCA specific papers. It is not a substitute for doing your
own literature research and citing the relevant literature in a scientifically appropriate manner.

List of essential papers. We consider these as the minimum necessary citations

  1. Neese, F.
     Software update: the ORCA program system, version 6.0
     WIRES Comput. Molec. Sci. 2025 15(1), e70019
     doi.org/10.1002/wcms.70019

List of papers to cite with high priority. The work reported in these papers was absolutely
necessary for this run to complete.
Our perspective: the developers of density functionals and basis sets usually get cited in chemistry papers
Good! But without the algorithms to do something with them, the functionals or basis sets would not do anything.
Hence, in our opinion, the algorithm design and method developments papers are equally worthy of getting cited

  1. Neese, F.
     The SHARK Integral Generation and Digestion System
     J. Comp. Chem. 2022 44(3), 381
     doi.org/10.1002/jcc.26942

List of suggested additional citations. These are papers that are important in the 'surrounding' of 
of this run, or papers that preceded the highly important papers. If you like your results we are grateful for a citation.

  1. Neese, F.
     The ORCA program system
     WIRES Comput. Molec. Sci. 2012 2(1), 73-78
     doi.org/10.1002/wcms.81
  2. Neese, F.
     Software update: the ORCA program system, version 4.0
     WIRES Comput. Molec. Sci. 2018 8(1), 1-6
     doi.org/10.1002/wcms.1327
  3. Neese, F.; Wennmohs, F.; Becker, U.; Riplinger, C.
     The ORCA quantum chemistry program package
     J. Chem. Phys. 2020 152(22), 224108
     doi.org/10.1063/5.0004608
  4. Neese, F.
     Software update: The ORCA program system—Version 5.0
     WIRES Comput. Molec. Sci. 2022 12(1), e1606
     doi.org/10.1002/wcms.1606

List of optional additional citations

  1. Neese, F.
     Approximate second-order SCF convergence for spin unrestricted wavefunctions
     Chem. Phys. Lett. 2000 325(1-3), 93-98
     doi.org/10.1016/s0009-2614(00)00662-x

Timings for individual modules:

Sum of individual times          ...       18.380 sec (=   0.306 min)
Startup calculation              ...        0.983 sec (=   0.016 min)   5.3 %
SCF iterations                   ...       16.831 sec (=   0.281 min)  91.6 %
Property integrals               ...        0.266 sec (=   0.004 min)   1.4 %
Property calculations            ...        0.279 sec (=   0.005 min)   1.5 %
Orbital localization             ...        0.022 sec (=   0.000 min)   0.1 %
                             ****ORCA TERMINATED NORMALLY****
TOTAL RUN TIME: 0 days 0 hours 0 minutes 19 seconds 442 msec
