
                                 *****************
                                 * O   R   C   A *
                                 *****************

                                            #,                                       
                                            ###                                      
                                            ####                                     
                                            #####                                    
                                            ######                                   
                                           ########,                                 
                                     ,,################,,,,,                         
                               ,,#################################,,                 
                          ,,##########################################,,             
                       ,#########################################, ''#####,          
                    ,#############################################,,   '####,        
                  ,##################################################,,,,####,       
                ,###########''''           ''''###############################       
              ,#####''   ,,,,##########,,,,          '''####'''          '####       
            ,##' ,,,,###########################,,,                        '##       
           ' ,,###''''                  '''############,,,                           
         ,,##''                                '''############,,,,        ,,,,,,###''
      ,#''                                            '''#######################'''  
     '                                                          ''''####''''         
             ,#######,   #######,   ,#######,      ##                                
            ,#'     '#,  ##    ##  ,#'     '#,    #''#        ,####,    ,#,          
            ##       ##  ##   ,#'  ##            #'  '#       #'       ,# #          
            ##       ##  #######   ##           ,######,      #####,      #          
            '#,     ,#'  ##    ##  '#,     ,#' ,#      #,     #,   #      #          
             '#######'   ##     ##  '#######'  #'      '#     '####' #    #          



                #########################################################
                #                        -***-                          #
                #          Department of theory and spectroscopy        #
                #                                                       #
                #                      Frank Neese                      #
                #                                                       #
                #     Directorship, Architecture, Infrastructure        #
                #                    SHARK, DRIVERS                     #
                #        Core code/Algorithms in most modules           #
                #                                                       #
                #        Max Planck Institute fuer Kohlenforschung      #
                #                Kaiser Wilhelm Platz 1                 #
                #                 D-45470 Muelheim/Ruhr                 #
                #                      Germany                          #
                #                                                       #
                #                  All rights reserved                  #
                #                        -***-                          #
                #########################################################


                         Program Version 6.1.1  -  RELEASE   -
                                (GIT: $487d211c$)
                          ($2025-11-21 10:33:24 +0100$)


 With contributions from (in alphabetic order):
[Max-Planck-Institut fuer Kohlenforschung]                               
  Daniel Aravena         : Magnetic Suceptibility                        
  Michael Atanasov       : Ab Initio Ligand Field Theory (pilot matlab implementation)
  Alexander A. Auer      : GIAO ZORA, VPT2 properties, NMR spectrum      
  Ute Becker             : All parallelization in ORCA, NUMFREQ, NUMCALC 
  Giovanni Bistoni       : ED, misc. LED, open-shell LED, HFLD           
  Dmytro Bykov           : pre 5.0 version of the SCF Hessian            
  Marcos Casanova-Páez   : Triplet and SCS-CIS(D). UHF-(DLPNO)-IP/EA/STEOM-CCSD. UHF-CVS-IP/STEOM-CCSD   
  Vijay G. Chilkuri      : MRCI spin determinant printing, contributions to CSF-ICE 
  Pauline Colinet        : FMM embedding                                 
  Dipayan Datta          : RHF DLPNO-CCSD density                        
  Achintya Kumar Dutta   : EOM-CC, STEOM-CC                              
  Nicolas Foglia         : Exact transition moments, OPA infrastructure, MCD improvements    
  Dmitry Ganyushin       : Spin-Orbit,Spin-Spin,Magnetic field MRCI      
  Miquel Garcia-Rates    : C-PCM and meta-GGA Hessian, CCSD/C-PCM, Gaussian charge scheme 
  Tiago L. C. Gouveia    : GS-ROHF, GS-ROCIS                             
  Yang Guo               : DLPNO-NEVPT2, F12-NEVPT2, CIM, IAO-localization        
  Andreas Hansen         : Spin unrestricted coupled pair/coupled cluster methods 
  Ingolf Harden          : AUTO-CI MPn and infrastructure                
  Benjamin Helmich-Paris : MC-RPA, TRAH-(SCF,CASSCF), AVAS, COSX integrals, SCF dyn. polar., MC-PDFT, srDFT 
  Lee Huntington         : MR-EOM, pCC                                   
  Robert Izsak           : Overlap fitted RIJCOSX, COSX-SCS-MP3, EOM     
  Riya Kayal             : Wick's Theorem for AUTO-CI, AUTO-CI UHF-CCSDT 
  Emily Kempfer          : AUTO-CI RHF CISDT and CCSDT, approximate NEVPT4
  Christian Kollmar      : KDIIS, OOCD, Brueckner-CCSD(T), CCSD density, CASPT2, CASPT2-K, improved NEVPT2 
  Axel Koslowski         : Symmetry handling                             
  Simone Kossmann        : meta-GGA functionals, TD-DFT gradient, OOMP2, (MP2 Hessian; deprecated post 5.0) 
  Lucas Lang             : DCDCAS, Hyperfine gauge corrections, ICE-SOC+SSC
  Marvin Lechner         : AUTO-CI (C++ implementation), FIC-MRCC        
  Spencer Leger          : CASSCF response                               
  Dagmar Lenk            : GEPOL surface, SMD, ORCA-2-JSON               
  Dimitrios Liakos       : Extrapolation schemes; Compound Job, Property file
  Dimitrios Manganas     : Further ROCIS development; embedding schemes. LFT, Crystal Embedding 
  Dimitrios Pantazis     : SARC Basis sets                               
  Anastasios Papadopoulos: AUTO-CI, single reference methods and gradients 
  Taras Petrenko         : pre 6.0 DFT Hessian and TD-DFT gradient,  ECA, NRVS 
  Petra Pikulova         : Analytic Raman intensities                    
  Peter Pinski           : DLPNO-MP2, DLPNO-MP2 Gradient                 
  Shashank Vittal Rao    : ES-AILFT, MagRelax                            
  Christoph Reimann      : Effective Core Potentials                     
  Marius Retegan         : Local ZFS, SOC                                
  Christoph Riplinger    : Optimizer, TS searches, QM/MM, DLPNO-CCSD(T), (RO)-DLPNO pert. Triples 
  Michael Roemelt        : Original ROCIS implementation, recursive CI coupling coefficients
  Masaaki Saitow         : Open-shell DLPNO-CCSD energy and density      
  Barbara Sandhoefer     : DKH picture change effects                    
  Yorick L. A. Schmerwitz: GMF and freeze-and-release deltaSCF, NEB S-IDPP initial path                    
  Kantharuban Sivalingam : CASSCF convergence/infrastructure, NEVPT2, NEVPT3, NEVPT4(SD), FIC-MRCI and CEPA variants
  Bernardo de Souza      : ESD, SOC TD-DFT                               
  Georgi L. Stoychev     : AutoAux, RI-MP2 NMR, DLPNO-MP2 response, X2C  
  Van Anh Tran           : RI-MP2 g-tensors                              
  Willem Van den Heuvel  : Paramagnetic NMR                              
  Zikuan Wang            : NOTCH, Electric field optimization            
  Frank Wennmohs         : Technical directorship and infrastructure     
  Hang Xu                : AUTO-CI-Response properties                   
                                                                         
[FACCTs GmbH]                                                            
  Markus Bursch, Nicolas Foglia, Miquel Garcia-Rates, Ingolf Harden, Hagen Neugebauer, Anastasios Papadopoulos, 
  Christoph Riplinger, Bernardo de Souza, Georgi L. Stoychev                                                    
                                                                 
  APM, various basis sets, CI-OPT, improved COSX, DLPNO-Multilevel,           
  DOCKER, DRACO, updates on ESD, Fragmentator, GOAT, IRC, LR-CPCM, L-BFGS, MBIS, meta-GGA TD-DFT gradient, ML-optimized integration grids, 
  MM, NACMEs, nearIR, NEB, NEB-TS, NL-DFT gradient (VV10), 2- and 3-layer-ONIOM, interface openCOSMO-RS, QMMM,   
  Crystal-QMMM, RESP, rigid body optimization, SF, symmetry and pop. for TD-DFT, various functionals, SOLVATOR                                   
                                                                         
[Other institutions]                                                     
  V. Asgeirsson          : NEB                                           
  Christoph Bannwarth    : sTDA-DFT, sTD-DFT, PBEh-3c, B97-3c, D3        
  Giovanni Bistoni       : ETS/NOCV, ADLD/ADEX, COVALED                  
  Martin Brehm           : Molecular dynamics                            
  Ronald Cardenas        : ETS/NOCV                                      
  Martina Colucci        : COVALED                                       
  Sebastian Ehlert       : rSCAN, r2SCAN, r2SCAN-3c, D4, dhf basis sets  
  Marvin Friede          : D4 for Fr, Ra, Ac-Lr                          
  Lars Goerigk           : TD-DFT with DH, B97 family of functionals     
  Stefan Grimme          : VdW corrections, initial TS optimization, DFT functionals, gCP, sTDA/sTD-DF 
  Waldemar Hujo          : DFT-NL                                        
  H. Jonsson             : NEB                                           
  Holger Kruse           : gCP                                           
  Marcel Mueller         : wB97X-3c, vDZP basis set                      
  Hagen Neugebauer       : wr2SCAN, Native XTB                           
  Gianluca Regni         : ADLD/ADEX                                     
  Tobias Risthaus        : pre 6.0 range-separated hybrid DFT and stability analysis
  Lukas Wittmann         : regularized MP2, r2SCAN double-hybrids, wr2SCAN        
                                                                         
We gratefully acknowledge several colleagues who have allowed us to      
interface, adapt or use parts of their codes:                            
  Ed Valeev, F. Pavosevic, A. Kumar             : LibInt (2-el integral package), F12 methods 
  Garnet Chan, S. Sharma, J. Yang, R. Olivares  : DMRG                   
  Ulf Ekstrom                                   : XCFun DFT Library      
  Mihaly Kallay                                 : mrcc  (arbitrary order and MRCC methods)
  Frank Weinhold                                : gennbo (NPA and NBO analysis)           
  Simon Mueller                                 : openCOSMO-RS                            
  Christopher J. Cramer and Donald G. Truhlar   : smd solvation model                     
  S Lehtola, MJT Oliveira, MAL Marques          : LibXC Library                           
  Liviu Ungur et al                             : ANISO software                          


 Your calculation uses the libint2 library for the computation of 2-el integrals
 For citations please refer to: http://libint.valeyev.net

 Your ORCA version has been built with support for libXC version: 7.0.0
 For citations please refer to: https://libxc.gitlab.io

 This ORCA versions uses:
   CBLAS   interface :  Fast vector & matrix operations
   LAPACKE interface :  Fast linear algebra routines
   SCALAPACK package :  Parallel linear algebra routines
   Shared memory     :  Shared parallel matrices
   BLAS/LAPACK       :  OpenBLAS 0.3.29  USE64BITINT DYNAMIC_ARCH NO_AFFINITY Cooperlake SINGLE_THREADED
        Core in use  :  Cooperlake
   Copyright (c) 2011-2014, The OpenBLAS Project


  ***********************************
  * Starting time: Wed May 20 12:37:34 2026
  * Host name:     c1-41
  * Process ID:    4081969
  * Working dir.:  /cluster/projects/nn14654k/ylvaos/basis_set_n_funcs/functionals/gga_x_b88/PCl/out
  ***********************************

Using LibXC functional ID 106 : Becke 88
[ 1]  A. D. Becke.,  Phys. Rev. A 38, 3098 (1988)
Using LibXC functional ID 106 : Becke 88
[ 1]  A. D. Becke.,  Phys. Rev. A 38, 3098 (1988)
Your calculation utilizes LibXC
by S. Lehtola, C. Steigemann, M. J. T. Oliveira & M. A. L. Marques
Please cite in your paper:
Lehtola, S.; Steigemann, C.; Oliveira, M.J.T.; Marques, M. A. L. Software X, 7, (2018), 1.
   

================================================================================

----- Orbital basis set information -----
Your calculation utilizes the basis: pc-4
   H, C-F              : F. Jensen, J. Chem. Phys. 115, 9113 (2001).
                         F. Jensen, J. Chem. Phys. 116, 7372 (2002).
                         F. Jensen, J. Chem. Phys. 117, 9234 (2002).
   Si-Cl               : F. Jensen, T. Helgaker, J. Chem. Phys. 121, 3463 (2004).
   He-B, Ne-Mg, Al, Ar : F. Jensen, J. Phys. Chem. A 111, 11198 (2007).
   K, Ca, Ga-Kr        : F. Jensen, J. Chem. Phys. 136, 094110 (2012).
   Sc-Zn               : F. Jensen, J. Chem. Phys. 138, 014107 (2013).

================================================================================
                                        WARNINGS
                       Please study these warnings very carefully!
================================================================================


WARNING: The basis set has functions with high angular momentum (Lmax>4).
         We might need to increase small grids for safety reasons and
         in general, DEFGRID3 is recommend for such cases.
  ===> : GRIDX1, TD-DFT and the CP-SCF AngGrids will be increased to at least 2


WARNING: your system is open-shell and RHF/RKS was chosen
  ===> : WILL SWITCH to UHF/UKS


================================================================================
                                       INPUT FILE
================================================================================
NAME = /cluster/projects/nn14654k/ylvaos/basis_set_n_funcs/functionals/gga_x_b88/PCl/inp/PCl_gga_x_b88_pc4.inp
|  1> ! dft pc-4 TightSCF
|  2> %pal nprocs 8 end
|  3> 
|  4> %loc
|  5>   LocMet NewBoys
|  6>   Occ true
|  7> end
|  8> 
|  9> %method
| 10>   exchange gga_x_b88
| 11>   correlation None
| 12> end
| 13> 
| 14> %elprop
| 15>   Dipole true
| 16>   Quadrupole true
| 17> end
| 18> 
| 19> * xyz 0 3
| 20> P    0.000000000000   0.000000000000  -1.008800000000
| 21> Cl    0.000000000000   0.000000000000   1.008800000000
| 22> *
| 23> 
| 24> 
| 25>                          ****END OF INPUT****
================================================================================

                       ****************************
                       * Single Point Calculation *
                       ****************************

---------------------------------
CARTESIAN COORDINATES (ANGSTROEM)
---------------------------------
  P      0.000000    0.000000   -1.008800
  Cl     0.000000    0.000000    1.008800

----------------------------
CARTESIAN COORDINATES (A.U.)
----------------------------
  NO LB      ZA    FRAG     MASS         X           Y           Z
   0 P    15.0000    0    30.974    0.000000    0.000000   -1.906356
   1 Cl   17.0000    0    35.453    0.000000    0.000000    1.906356

--------------------------------
INTERNAL COORDINATES (ANGSTROEM)
--------------------------------
 P      0   0   0     0.000000000000     0.00000000     0.00000000
 Cl     1   0   0     2.017600000000     0.00000000     0.00000000

---------------------------
INTERNAL COORDINATES (A.U.)
---------------------------
 P      0   0   0     0.000000000000     0.00000000     0.00000000
 Cl     1   0   0     3.812711447800     0.00000000     0.00000000

---------------------
BASIS SET INFORMATION
---------------------
There are 2 groups of distinct atoms

 Group   1 Type P   : 43s26p6d3f2g1h contracted to 7s6p6d3f2g1h pattern {1512121111/11111111/111111/111/11/1}
 Group   2 Type Cl  : 43s26p6d3f2g1h contracted to 7s6p6d3f2g1h pattern {1512121111/11111111/111111/111/11/1}

Atom   0P    basis set group =>   1
Atom   1Cl   basis set group =>   2


           ************************************************************
           *        Program running with 8 parallel MPI-processes     *
           *              working on a common directory               *
           ************************************************************
------------------------------------------------------------------------------
                             ORCA STARTUP CALCULATIONS
------------------------------------------------------------------------------
------------------------------------------------------------------------------
                   ___                                                        
                  /   \      - P O W E R E D   B Y -                         
                 /     \                                                     
                 |  |  |   _    _      __       _____    __    __             
                 |  |  |  | |  | |    /  \     |  _  \  |  |  /  |          
                  \  \/   | |  | |   /    \    | | | |  |  | /  /          
                 / \  \   | |__| |  /  /\  \   | |_| |  |  |/  /          
                |  |  |   |  __  | /  /__\  \  |    /   |      \           
                |  |  |   | |  | | |   __   |  |    \   |  |\   \          
                \     /   | |  | | |  |  |  |  | |\  \  |  | \   \       
                 \___/    |_|  |_| |__|  |__|  |_| \__\ |__|  \__/        
                                                                              
                      - O R C A' S   B I G   F R I E N D -                    
                                      &                                       
                       - I N T E G R A L  F E E D E R -                       
                                                                              
 v1 FN, 2020, v2 2021, v3 2022-2024                                           
------------------------------------------------------------------------------


----------------------
SHARK INTEGRAL PACKAGE
----------------------

Number of atoms                             ...      2
Number of basis functions                   ...    210
Number of shells                            ...     50
Maximum angular momentum                    ...      5
Integral batch strategy                     ... SHARK/LIBINT Hybrid
RI-J (if used) integral strategy            ... SPLIT-RIJ (Revised 2003 algorithm where possible)
Printlevel                                  ...      1
Contraction scheme used                     ... SEGMENTED contraction
Prescreening option                         ... SCHWARTZ
   Thresh                                   ... 2.500e-11
   Tcut                                     ... 2.500e-12
   Tpresel                                  ... 2.500e-12 
Coulomb Range Separation                    ... NOT USED
Exchange Range Separation                   ... NOT USED
Multipole approximations                    ... NOT USED
Finite Nucleus Model                        ... NOT USED
CABS basis                                  ... NOT available
Auxiliary Coulomb fitting basis             ... NOT available
Auxiliary J/K fitting basis                 ... NOT available
Auxiliary Correlation fitting basis         ... NOT available
Auxiliary 'external' fitting basis          ... NOT available

Checking pre-screening integrals            ... done (  0.0 sec) Dimension = 50
   => SHARK Basis and OBASIS are compatible. Storing Pre-screening
Shell pair information
Shell pair cut-off parameter TPreSel        ...   2.5e-12
Total number of shell pairs                 ...      1275
Shell pairs after pre-screening             ...      1252
Total number of primitive shell pairs       ...     13897
Primitive shell pairs kept                  ...     10128
          la=0 lb=0:    101 shell pairs
          la=1 lb=0:    167 shell pairs
          la=1 lb=1:     78 shell pairs
          la=2 lb=0:    159 shell pairs
          la=2 lb=1:    143 shell pairs
          la=2 lb=2:     74 shell pairs
          la=3 lb=0:     82 shell pairs
          la=3 lb=1:     72 shell pairs
          la=3 lb=2:     70 shell pairs
          la=3 lb=3:     21 shell pairs
          la=4 lb=0:     56 shell pairs
          la=4 lb=1:     48 shell pairs
          la=4 lb=2:     48 shell pairs
          la=4 lb=3:     24 shell pairs
          la=4 lb=4:     10 shell pairs
          la=5 lb=0:     28 shell pairs
          la=5 lb=1:     24 shell pairs
          la=5 lb=2:     24 shell pairs
          la=5 lb=3:     12 shell pairs
          la=5 lb=4:      8 shell pairs
          la=5 lb=5:      3 shell pairs

Checking whether 4 symmetric matrices of dimension 210 fit in memory
:Max Core in MB      =   4096.00
 MB in use           =      8.92
 MB left             =   4087.08
 MB needed           =      0.68
 Data fit in memory  = YES
Calculating Nuclear repulsion               ... done (  0.0 sec) ENN=     66.881536536727 Eh

Diagonalization of the overlap matrix:
Smallest eigenvalue                        ... 1.343e-04
Time for diagonalization                   ...    0.002 sec
Threshold for overlap eigenvalues          ... 1.000e-07
Number of eigenvalues below threshold      ... 0
Time for construction of square roots      ...    0.002 sec
Total time needed                          ...    0.007 sec

-------------------
DFT GRID GENERATION
-------------------

General Integration Accuracy     IntAcc      ... 4.388
Radial Grid Type                 RadialGrid  ... OptM3 with GC (2021)
Angular Grid (max. ang.)         AngularGrid ... 4 (Lebedev-302)
Angular grid pruning method      GridPruning ... 4 (adaptive)
Weight generation scheme         WeightScheme... mBecke (2022)
Basis function cutoff            BFCut       ... 1.0000e-11
Integration weight cutoff        WCut        ... 1.0000e-14
Partially contracted basis set               ... off
Rotationally invariant grid construction     ... off
Angular grids for H and He will be reduced by one unit
Core-polarized basis detected: some atoms will have their core
                               angular grid increased.

Total number of grid points                  ...    19258
Total number of batches                      ...      301
Average number of points per batch           ...       63
Average number of grid points per atom       ...     9629
Grids setup in   0.1 sec
Initializing property integral containers    ... done (  0.0 sec)

SHARK setup successfully completed in   0.4 seconds

Maximum memory used throughout the entire STARTUP-calculation: 99.9 MB


           ************************************************************
           *        Program running with 8 parallel MPI-processes     *
           *              working on a common directory               *
           ************************************************************
-------------------------------------------------------------------------------
                                 ORCA GUESS
                   Start orbitals & Density for SCF / CASSCF
-------------------------------------------------------------------------------

------------
SCF SETTINGS
------------
Hamiltonian:
 Density Functional     Method          .... DFT(GTOs)
  Functional kind                       .... Exchange
  Functional name                       .... Becke 88
  Functional family                     .... GGA
  Functional refs                              
    [ 0] A. D. Becke.,  Phys. Rev. A 38, 3098 (1988), doi: 10.1103/PhysRevA.38.3098
  Functional external parameters        .... 2
    Parameter  0 _beta      =  4.200000e-03 : beta/X_FACTOR_C is the coefficient of the gradient expansion
    Parameter  1 _gamma     =  6.000000e+00 : gamma should be 6 to get the right asymptotics of Ex
 Correlation Functional Correlation     .... No Correlation
 Gradients option       PostSCFGGA      .... off


General Settings:
 Integral files         IntName         .... /cluster/projects/nn14654k/ylvaos/basis_set_n_funcs/functionals/gga_x_b88/PCl/inp/PCl_gga_x_b88_pc4
 Hartree-Fock type      HFTyp           .... UHF
 Total Charge           Charge          ....    0
 Multiplicity           Mult            ....    3
 Number of Electrons    NEL             ....   32
 Basis Dimension        Dim             ....  210
 Nuclear Repulsion      ENuc            ....     66.8815365367 Eh

Convergence Acceleration:
 AO-DIIS                CNVDIIS         .... on
   Start iteration      DIISMaxIt       ....    12
   Startup error        DIISStart       ....  0.200000
   # of expansion vecs  DIISMaxEq       ....     5
   Bias factor          DIISBfac        ....   1.050
   Max. coefficient     DIISMaxC        ....  10.000
 MO-DIIS                CNVKDIIS        .... off
 Trust-Rad. Augm. Hess. CNVTRAH         .... auto
   Auto Start mean grad. ratio tolernc. ....  1.125000
   Auto Start start iteration           ....    50
   Auto Start num. interpolation iter.  ....    10
   Max. Number of Micro iterations      ....    24
   Max. Number of Macro iterations      .... Maxiter - #DIIS iter
   Number of Davidson start vectors     ....     2
   Converg. threshold    (grad. norm)   ....   1.000e-05
   Grad. Scal. Fac. for Micro threshold ....   0.100
   Minimum threshold for Micro iter.    ....   1.000e-02
   NR start threshold (gradient norm)   ....   1.000e-04
   Initial trust radius                 ....   0.400
   Minimum AH scaling param. (alpha)    ....   1.000
   Maximum AH scaling param. (alpha)    .... 1000.000
   Quad. conv. algorithm                .... NR
   White noise on init. David. guess    .... on
   Maximum white noise                  ....   0.010
   Pseudo random numbers                .... off
   Inactive MOs                         .... canonical
   Orbital update algorithm             .... Taylor
   Preconditioner                       .... Diag
   Full preconditioner red. dimension   ....   250
 SOSCF                 CNVSOSCF           .... on
   Start iteration     SOSCFMaxIt         ....   150
   Startup grad/error  SOSCFStart         ....  0.003300
   Hessian update      SOSCFHessUp        .... L-BFGS
   Autom. constraints  SOSCFAutoConstrain .... off
 Level Shifting         CNVShift        .... on
   Level shift para.    LevelShift      ....    0.2500
   Turn off err/grad.   ShiftErr        ....    0.0010
 Zerner damping         CNVZerner       .... off
 Static damping         CNVDamp         .... on
   Fraction old density DampFac         ....    0.7000
   Max. Damping (<1)    DampMax         ....    0.9800
   Min. Damping (>=0)   DampMin         ....    0.0000
   Turn off err/grad.   DampErr         ....    0.1000

SCF Procedure:
 Maximum # iterations   MaxIter         ....   125
 SCF integral mode      SCFMode         .... Direct
   Integral package                     .... SHARK and LIBINT hybrid scheme
 Reset frequency        DirectResetFreq ....    20
 Integral Threshold     Thresh          ....  2.500e-11 Eh
 Primitive CutOff       TCut            ....  2.500e-12 Eh

Convergence Tolerance:
 Convergence Check Mode ConvCheckMode   .... Total+1el-Energy
 Convergence forced     ConvForced      .... 0
 Energy Change          TolE            ....  1.000e-08 Eh
 1-El. energy change                    ....  1.000e-05 Eh
 Orbital Gradient       TolG            ....  1.000e-05
 Orbital Rotation angle TolX            ....  1.000e-05
 DIIS Error             TolErr          ....  5.000e-07

------------------------------
INITIAL GUESS: MODEL POTENTIAL
------------------------------
Loading Hartree-Fock densities                     ... done
Calculating cut-offs                               ... done
Initializing the effective Hamiltonian             ... done
Setting up the integral package (SHARK)            ... done
Starting the Coulomb interaction                   ... done (   0.0 sec)
Making the grid                                    ... done (   0.0 sec)
Mapping shells                                     ... done
Starting the XC term evaluation                    ... done (   0.0 sec)
  promolecular density results
     # of electrons  =     32.000075440
     EX              =    -50.105982831
     EC              =      0.000000000
     EX+EC           =    -50.105982831
Transforming the Hamiltonian                       ... done (   0.0 sec)
Diagonalizing the Hamiltonian                      ... done (   0.0 sec)
Back transforming the eigenvectors                 ... done (   0.0 sec)
Now organizing SCF variables                       ... done
                      ------------------
                      INITIAL GUESS DONE (   0.1 sec)
                      ------------------
             **** ENERGY FILE WAS UPDATED (/cluster/projects/nn14654k/ylvaos/basis_set_n_funcs/functionals/gga_x_b88/PCl/inp/PCl_gga_x_b88_pc4.en.tmp) ****
Finished Guess after   0.3 sec
Maximum memory used throughout the entire GUESS-calculation: 19.8 MB


           ************************************************************
           *        Program running with 8 parallel MPI-processes     *
           *              working on a common directory               *
           ************************************************************

-------------------------------------------------------------------------------------------
                                      ORCA LEAN-SCF
                              memory conserving SCF solver
-------------------------------------------------------------------------------------------

----------------------------------------D-I-I-S--------------------------------------------
Iteration    Energy (Eh)           Delta-E    RMSDP     MaxDP     DIISErr   Damp  Time(sec)
-------------------------------------------------------------------------------------------
               ***  Starting incremental Fock matrix formation  ***
    1    -800.2685327802497568     0.00e+00  5.49e-04  1.15e-02  2.05e-02  0.700   2.5
    2    -800.2703135193521575    -1.78e-03  4.27e-04  9.49e-03  1.55e-02  0.700   2.4
                               ***Turning on AO-DIIS***
    3    -800.2713392723063635    -1.03e-03  3.13e-04  8.39e-03  1.25e-02  0.700   2.3
    4    -800.2721438240600946    -8.05e-04  8.75e-04  2.40e-02  9.85e-03  0.000   2.3
                              *** Initializing SOSCF ***
---------------------------------------S-O-S-C-F--------------------------------------
Iteration    Energy (Eh)           Delta-E    RMSDP     MaxDP     MaxGrad    Time(sec)
--------------------------------------------------------------------------------------
    5    -800.2743303438494422    -2.19e-03  1.43e-04  2.66e-03  2.65e-03     2.4
               *** Restarting incremental Fock matrix formation ***
    6    -800.2744224876805674    -9.21e-05  8.54e-05  1.49e-03  7.88e-04     2.5
    7    -800.2744429510408963    -2.05e-05  7.75e-05  1.06e-03  6.73e-04     2.3
    8    -800.2744390318719070     3.92e-06  4.28e-05  5.29e-04  9.78e-04     2.2
    9    -800.2744478086658546    -8.78e-06  8.34e-06  1.55e-04  6.20e-05     2.3
   10    -800.2744478359311415    -2.73e-08  2.91e-06  3.91e-05  5.35e-05     2.2
   11    -800.2744478941501711    -5.82e-08  1.96e-06  5.88e-05  1.15e-05     2.1
   12    -800.2744478953281941    -1.18e-09  9.63e-07  2.57e-05  8.28e-06     2.1
                 **** Energy Check signals convergence ****

               *****************************************************
               *                     SUCCESS                       *
               *           SCF CONVERGED AFTER  12 CYCLES          *
               *****************************************************

             **** ENERGY FILE WAS UPDATED (/cluster/projects/nn14654k/ylvaos/basis_set_n_funcs/functionals/gga_x_b88/PCl/inp/PCl_gga_x_b88_pc4.en.tmp) ****

----------------
TOTAL SCF ENERGY
----------------

Total Energy       :       -800.27444789719721 Eh          -21776.57483 eV

Components:
Nuclear Repulsion  :         66.88153653672681 Eh            1819.93913 eV
Electronic Energy  :       -867.15598443392400 Eh          -23596.51396 eV
One Electron Energy:      -1239.90072982024139 Eh          -33739.41414 eV
Two Electron Energy:        372.74474538631739 Eh           10142.90018 eV

Virial components:
Potential Energy   :      -1600.67723082709949 Eh          -43556.64183 eV
Kinetic Energy     :        800.40278292990229 Eh           21780.06700 eV
Virial Ratio       :          1.99983966193591

DFT components:
N(Alpha)           :       17.000002162048 electrons
N(Beta)            :       15.000000868659 electrons
N(Total)           :       32.000003030707 electrons
E(X)               :      -50.133507910027 Eh       
E(C)               :        0.000000000000 Eh       
E(XC)              :      -50.133507910027 Eh       

---------------
SCF CONVERGENCE
---------------

  Last Energy change         ...    1.1780e-09  Tolerance :   1.0000e-08
  Last MAX-Density change    ...    2.5688e-05  Tolerance :   1.0000e-07
  Last RMS-Density change    ...    9.6262e-07  Tolerance :   5.0000e-09
  Last DIIS Error            ...    2.6484e-03  Tolerance :   5.0000e-07
  Last Orbital Gradient      ...    8.2807e-06  Tolerance :   1.0000e-05
  Last Orbital Rotation      ...    1.0283e-05  Tolerance :   1.0000e-05


----------------------
UHF SPIN CONTAMINATION
----------------------

Warning: in a DFT calculation there is little theoretical justification to 
         calculate <S**2> as in Hartree-Fock theory. We will do it anyways
         but you should keep in mind that the values have only limited relevance

Expectation value of <S**2>     :     2.009249
Ideal value S*(S+1) for S=1.0   :     2.000000
Deviation                       :     0.009249

----------------
ORBITAL ENERGIES
----------------
                 SPIN UP ORBITALS
  NO   OCC          E(Eh)            E(eV) 
   0   1.0000    -100.705963     -2740.3486 
   1   1.0000     -76.367338     -2078.0609 
   2   1.0000      -9.161469      -249.2962 
   3   1.0000      -6.988324      -190.1620 
   4   1.0000      -6.983044      -190.0183 
   5   1.0000      -6.983044      -190.0183 
   6   1.0000      -6.316990      -171.8940 
   7   1.0000      -4.540572      -123.5552 
   8   1.0000      -4.540572      -123.5552 
   9   1.0000      -4.539336      -123.5216 
  10   1.0000      -0.758531       -20.6407 
  11   1.0000      -0.514456       -13.9991 
  12   1.0000      -0.325456        -8.8561 
  13   1.0000      -0.307064        -8.3556 
  14   1.0000      -0.307064        -8.3556 
  15   1.0000      -0.182239        -4.9590 
  16   1.0000      -0.182239        -4.9590 
  17   0.0000      -0.044089        -1.1997 
  18   0.0000       0.039966         1.0875 
  19   0.0000       0.043970         1.1965 
  20   0.0000       0.043970         1.1965 
  21   0.0000       0.058814         1.6004 
  22   0.0000       0.074237         2.0201 
  23   0.0000       0.107324         2.9204 
  24   0.0000       0.107324         2.9204 
  25   0.0000       0.128320         3.4918 
  26   0.0000       0.128320         3.4918 
  27   0.0000       0.163505         4.4492 

                 SPIN DOWN ORBITALS
  NO   OCC          E(Eh)            E(eV) 
   0   1.0000    -100.704613     -2740.3118 
   1   1.0000     -76.360292     -2077.8692 
   2   1.0000      -9.160027      -249.2570 
   3   1.0000      -6.987817      -190.1482 
   4   1.0000      -6.980401      -189.9464 
   5   1.0000      -6.980401      -189.9464 
   6   1.0000      -6.308707      -171.6686 
   7   1.0000      -4.534631      -123.3936 
   8   1.0000      -4.526490      -123.1721 
   9   1.0000      -4.526490      -123.1721 
  10   1.0000      -0.747584       -20.3428 
  11   1.0000      -0.459464       -12.5027 
  12   1.0000      -0.296104        -8.0574 
  13   1.0000      -0.287332        -7.8187 
  14   1.0000      -0.287332        -7.8187 
  15   0.0000      -0.099779        -2.7151 
  16   0.0000      -0.099779        -2.7151 
  17   0.0000      -0.019797        -0.5387 
  18   0.0000       0.056547         1.5387 
  19   0.0000       0.060635         1.6500 
  20   0.0000       0.060635         1.6500 
  21   0.0000       0.067687         1.8418 
  22   0.0000       0.087145         2.3713 
  23   0.0000       0.114662         3.1201 
  24   0.0000       0.114662         3.1201 
  25   0.0000       0.179030         4.8717 
*Only the first 10 virtual orbitals were printed.

                    ********************************
                    * MULLIKEN POPULATION ANALYSIS *
                    ********************************

--------------------------------------------
MULLIKEN ATOMIC CHARGES AND SPIN POPULATIONS
--------------------------------------------
   0 P :    0.126789    1.872060
   1 Cl:   -0.126789    0.127940
Sum of atomic charges         :    0.0000000
Sum of atomic spin populations:    2.0000000

-----------------------------------------------------
MULLIKEN REDUCED ORBITAL CHARGES AND SPIN POPULATIONS
-----------------------------------------------------
CHARGE
  0 P s       :     5.961866  s :     5.961866
      pz      :     2.632003  p :     8.769521
      px      :     3.068759
      py      :     3.068759
      dz2     :     0.042004  d :     0.119635
      dxz     :     0.038815
      dyz     :     0.038815
      dx2y2   :     0.000000
      dxy     :     0.000000
      f0      :     0.004821  f :     0.019598
      f+1     :     0.007389
      f-1     :     0.007389
      f+2     :     0.000000
      f-2     :     0.000000
      f+3     :     0.000000
      f-3     :     0.000000
      g0      :     0.000831  g :     0.002398
      g+1     :     0.000784
      g-1     :     0.000784
      g+2     :     0.000000
      g-2     :     0.000000
      g+3     :     0.000000
      g-3     :     0.000000
      g+4     :     0.000000
      g-4     :     0.000000
      h0      :     0.000080  h :     0.000193
      h+1     :     0.000056
      h-1     :     0.000056
      h+2     :     0.000000
      h-2     :     0.000000
      h+3     :     0.000000
      h-3     :     0.000000
      h+4     :     0.000000
      h-4     :     0.000000
      h+5     :     0.000000
      h-5     :     0.000000

  1 Cls       :     5.930295  s :     5.930295
      pz      :     3.400009  p :    11.114002
      px      :     3.856996
      py      :     3.856996
      dz2     :     0.024858  d :     0.073784
      dxz     :     0.024463
      dyz     :     0.024463
      dx2y2   :     0.000000
      dxy     :     0.000000
      f0      :     0.002884  f :     0.007854
      f+1     :     0.002485
      f-1     :     0.002485
      f+2     :     0.000000
      f-2     :     0.000000
      f+3     :     0.000000
      f-3     :     0.000000
      g0      :     0.000324  g :     0.000796
      g+1     :     0.000236
      g-1     :     0.000236
      g+2     :     0.000000
      g-2     :     0.000000
      g+3     :     0.000000
      g-3     :     0.000000
      g+4     :     0.000000
      g-4     :     0.000000
      h0      :     0.000026  h :     0.000059
      h+1     :     0.000017
      h-1     :     0.000017
      h+2     :     0.000000
      h-2     :     0.000000
      h+3     :     0.000000
      h-3     :     0.000000
      h+4     :     0.000000
      h-4     :     0.000000
      h+5     :     0.000000
      h-5     :     0.000000


SPIN
  0 P s       :    -0.001498  s :    -0.001498
      pz      :     0.032938  p :     1.847544
      px      :     0.907303
      py      :     0.907303
      dz2     :     0.010795  d :     0.027986
      dxz     :     0.008595
      dyz     :     0.008595
      dx2y2   :     0.000000
      dxy     :     0.000000
      f0      :    -0.002223  f :    -0.001577
      f+1     :     0.000323
      f-1     :     0.000323
      f+2     :     0.000000
      f-2     :     0.000000
      f+3     :     0.000000
      f-3     :     0.000000
      g0      :    -0.000081  g :    -0.000380
      g+1     :    -0.000150
      g-1     :    -0.000150
      g+2     :    -0.000000
      g-2     :     0.000000
      g+3     :     0.000000
      g-3     :     0.000000
      g+4     :     0.000000
      g-4     :     0.000000
      h0      :    -0.000001  h :    -0.000015
      h+1     :    -0.000007
      h-1     :    -0.000007
      h+2     :     0.000000
      h-2     :     0.000000
      h+3     :     0.000000
      h-3     :     0.000000
      h+4     :     0.000000
      h-4     :     0.000000
      h+5     :     0.000000
      h-5     :     0.000000

  1 Cls       :    -0.001929  s :    -0.001929
      pz      :    -0.036149  p :     0.103279
      px      :     0.069714
      py      :     0.069714
      dz2     :    -0.001289  d :     0.025059
      dxz     :     0.013174
      dyz     :     0.013174
      dx2y2   :    -0.000000
      dxy     :     0.000000
      f0      :    -0.000582  f :     0.001228
      f+1     :     0.000905
      f-1     :     0.000905
      f+2     :     0.000000
      f-2     :    -0.000000
      f+3     :     0.000000
      f-3     :     0.000000
      g0      :     0.000018  g :     0.000288
      g+1     :     0.000135
      g-1     :     0.000135
      g+2     :     0.000000
      g-2     :     0.000000
      g+3     :     0.000000
      g-3     :     0.000000
      g+4     :     0.000000
      g-4     :     0.000000
      h0      :     0.000001  h :     0.000015
      h+1     :     0.000007
      h-1     :     0.000007
      h+2     :     0.000000
      h-2     :     0.000000
      h+3     :    -0.000000
      h-3     :    -0.000000
      h+4     :     0.000000
      h-4     :     0.000000
      h+5     :     0.000000
      h-5     :     0.000000



                     *******************************
                     * LOEWDIN POPULATION ANALYSIS *
                     *******************************

-------------------------------------------
LOEWDIN ATOMIC CHARGES AND SPIN POPULATIONS
-------------------------------------------
   0 P :   -0.055033    1.682162
   1 Cl:    0.055033    0.317838

----------------------------------------------------
LOEWDIN REDUCED ORBITAL CHARGES AND SPIN POPULATIONS
----------------------------------------------------
CHARGE
  0 P s       :     5.611658  s :     5.611658
      pz      :     2.884979  p :     8.902775
      px      :     3.008898
      py      :     3.008898
      dz2     :     0.171887  d :     0.389120
      dxz     :     0.108617
      dyz     :     0.108617
      dx2y2   :     0.000000
      dxy     :     0.000000
      f0      :     0.047239  f :     0.124513
      f+1     :     0.038637
      f-1     :     0.038637
      f+2     :     0.000000
      f-2     :     0.000000
      f+3     :     0.000000
      f-3     :     0.000000
      g0      :     0.009328  g :     0.024598
      g+1     :     0.007635
      g-1     :     0.007635
      g+2     :     0.000000
      g-2     :     0.000000
      g+3     :     0.000000
      g-3     :     0.000000
      g+4     :     0.000000
      g-4     :     0.000000
      h0      :     0.000955  h :     0.002368
      h+1     :     0.000707
      h-1     :     0.000707
      h+2     :     0.000000
      h-2     :     0.000000
      h+3     :     0.000000
      h-3     :     0.000000
      h+4     :     0.000000
      h-4     :     0.000000
      h+5     :     0.000000
      h-5     :     0.000000

  1 Cls       :     5.637732  s :     5.637732
      pz      :     3.502415  p :    11.006371
      px      :     3.751978
      py      :     3.751978
      dz2     :     0.116175  d :     0.257559
      dxz     :     0.070692
      dyz     :     0.070692
      dx2y2   :     0.000000
      dxy     :     0.000000
      f0      :     0.015846  f :     0.038476
      f+1     :     0.011315
      f-1     :     0.011315
      f+2     :     0.000000
      f-2     :     0.000000
      f+3     :     0.000000
      f-3     :     0.000000
      g0      :     0.001673  g :     0.004506
      g+1     :     0.001416
      g-1     :     0.001416
      g+2     :     0.000000
      g-2     :     0.000000
      g+3     :     0.000000
      g-3     :     0.000000
      g+4     :     0.000000
      g-4     :     0.000000
      h0      :     0.000113  h :     0.000323
      h+1     :     0.000105
      h-1     :     0.000105
      h+2     :     0.000000
      h-2     :     0.000000
      h+3     :     0.000000
      h-3     :     0.000000
      h+4     :     0.000000
      h-4     :     0.000000
      h+5     :     0.000000
      h-5     :     0.000000


SPIN
  0 P s       :     0.009733  s :     0.009733
      pz      :    -0.003387  p :     1.611525
      px      :     0.807456
      py      :     0.807456
      dz2     :     0.009650  d :     0.054340
      dxz     :     0.022345
      dyz     :     0.022345
      dx2y2   :     0.000000
      dxy     :     0.000000
      f0      :    -0.003596  f :     0.005771
      f+1     :     0.004683
      f-1     :     0.004683
      f+2     :     0.000000
      f-2     :     0.000000
      f+3     :     0.000000
      f-3     :     0.000000
      g0      :    -0.000236  g :     0.000704
      g+1     :     0.000470
      g-1     :     0.000470
      g+2     :    -0.000000
      g-2     :     0.000000
      g+3     :     0.000000
      g-3     :     0.000000
      g+4     :     0.000000
      g-4     :     0.000000
      h0      :    -0.000013  h :     0.000088
      h+1     :     0.000050
      h-1     :     0.000050
      h+2     :     0.000000
      h-2     :     0.000000
      h+3     :     0.000000
      h-3     :     0.000000
      h+4     :     0.000000
      h-4     :     0.000000
      h+5     :     0.000000
      h-5     :     0.000000

  1 Cls       :     0.001033  s :     0.001033
      pz      :    -0.016817  p :     0.157253
      px      :     0.087035
      py      :     0.087035
      dz2     :     0.003088  d :     0.134296
      dxz     :     0.065604
      dyz     :     0.065604
      dx2y2   :    -0.000000
      dxy     :     0.000000
      f0      :     0.000478  f :     0.022185
      f+1     :     0.010854
      f-1     :     0.010854
      f+2     :     0.000000
      f-2     :    -0.000000
      f+3     :     0.000000
      f-3     :     0.000000
      g0      :     0.000068  g :     0.002865
      g+1     :     0.001398
      g-1     :     0.001398
      g+2     :     0.000000
      g-2     :     0.000000
      g+3     :     0.000000
      g-3     :     0.000000
      g+4     :     0.000000
      g-4     :     0.000000
      h0      :    -0.000001  h :     0.000206
      h+1     :     0.000104
      h-1     :     0.000104
      h+2     :     0.000000
      h-2     :     0.000000
      h+3     :    -0.000000
      h-3     :    -0.000000
      h+4     :     0.000000
      h-4     :     0.000000
      h+5     :     0.000000
      h-5     :     0.000000



                      *****************************
                      * MAYER POPULATION ANALYSIS *
                      *****************************

  NA   - Mulliken gross atomic population
  ZA   - Total nuclear charge
  QA   - Mulliken gross atomic charge
  VA   - Mayer's total valence
  BVA  - Mayer's bonded valence
  FA   - Mayer's free valence

  ATOM       NA         ZA         QA         VA         BVA        FA
  0 P     14.8732    15.0000     0.1268     2.9258     1.2437     1.6821
  1 Cl    17.1268    17.0000    -0.1268     1.2832     1.2437     0.0395

  Mayer bond orders larger than 0.100000
B(  0-P ,  1-Cl) :   1.2437 

-------
TIMINGS
-------

Total SCF time: 0 days 0 hours 0 min 30 sec 

Total time                  ....      30.252 sec
Sum of individual times     ....      28.012 sec  ( 92.6%)

SCF preparation             ....       0.106 sec  (  0.4%)
Fock matrix formation       ....      27.144 sec  ( 89.7%)
  Startup                   ....       0.067 sec  (  0.2% of F)
  Coulomb formation         ....      27.476 sec  (101.2% of F)
  XC integration            ....       1.042 sec  (  3.8% of F)
    Basis function eval.    ....       0.061 sec  (  5.8% of XC)
    Density eval.           ....       0.102 sec  (  9.8% of XC)
    XC-Functional eval.     ....       0.010 sec  (  1.0% of XC)
    XC-Potential eval.      ....       0.276 sec  ( 26.4% of XC)
Diagonalization             ....       0.000 sec  (  0.0%)
Density matrix formation    ....       0.246 sec  (  0.8%)
Total Energy calculation    ....       0.031 sec  (  0.1%)
Population analysis         ....       0.037 sec  (  0.1%)
Orbital Transformation      ....       0.076 sec  (  0.3%)
Orbital Orthonormalization  ....       0.000 sec  (  0.0%)
DIIS solution               ....       0.181 sec  (  0.6%)
SOSCF solution              ....       0.190 sec  (  0.6%)
Finished LeanSCF after  30.4 sec

Maximum memory used throughout the entire LEANSCF-calculation: 101.7 MB


           ************************************************************
           *        Program running with 8 parallel MPI-processes     *
           *              working on a common directory               *
           ************************************************************

------------------------------------------------------------------------------
                         ORCA PROPERTY INTEGRAL CALCULATIONS
------------------------------------------------------------------------------

GBWName                                   ... /cluster/projects/nn14654k/ylvaos/basis_set_n_funcs/functionals/gga_x_b88/PCl/inp/PCl_gga_x_b88_pc4.gbw
Number of atoms                           ...      2
Number of basis functions                 ...    210
Max core memory                           ...   4096 MB

Dipole integrals                          ... YES
Quadrupole integrals                      ... YES
Linear momentum integrals                 ...  NO
Angular momentum integrals                ...  NO
Higher moments length integrals           ...  NO
Higher moments velocity integrals         ...  NO
Kinetic energy integrals                  ...  NO
GIAO right hand sides                     ...  NO
GIAO dipole derivative integrals          ...  NO
SOC integrals                             ...  NO
EPR diamagnetic integrals (GIAO)          ...  NO
EPR gauge integrals                       ...  NO
Field gradient integrals                  ...  NO (   0 nuclei)
Spin-dipole/Fermi contact integrals       ...  NO (   0 nuclei)
Contact density integrals                 ...  NO (   0 nuclei)
Nucleus-orbit integrals                   ...  NO (   0 nuclei)
Geometric perturbations                   ...  NO (   2 nuclei)

Choice of electric origin   ... Center of mass
Position of electric origin ... (  0.0000,  0.0000,  0.1285) 
Choice of magnetic origin   ... GIAO
Position of magnetic origin ... (  0.0000,  0.0000,  0.0000) 

Calculating integrals                     ... Electric Dipole (Length)     done (  0.1 sec)
Calculating integrals                     ... Electric Quadrupole (Length) done (  0.0 sec)

Property integrals calculated in   0.1 sec

Maximum memory used throughout the entire PROPINT-calculation: 21.1 MB
------------------------------------------------------------------------------
                           ORCA ORBITAL LOCALIZATION
------------------------------------------------------------------------------

Input orbitals are from                  ... /cluster/projects/nn14654k/ylvaos/basis_set_n_funcs/functionals/gga_x_b88/PCl/inp/PCl_gga_x_b88_pc4.gbw
Output orbitals are to                   ... /cluster/projects/nn14654k/ylvaos/basis_set_n_funcs/functionals/gga_x_b88/PCl/inp/PCl_gga_x_b88_pc4.loc
Max. number of iterations                ... 128
Localizations seeded randomly            ... on
Convergence tolerance                    ... 1.000e-06
Threshold for strong local MOs           ... 9.500e-01
Threshold for bond MOs                   ... 8.500e-01
Operator                                 ... 0
Orbital range for localization           ... 7 to 16
Localization criterion                   ... NEW-BOYS
Doing the dipole integrals               ... o.k.
Initial value of the localization sum :    35.522649
ITERATION   0 : L=   43.2415202095 DL=  7.72e+00 (AVERGE_DL)=    0.4141623823 
ITERATION   1 : L=   43.9420705462 DL=  7.01e-01 (AVERGE_DL)=    0.1247709311 
ITERATION   2 : L=   43.9629419083 DL=  2.09e-02 (AVERGE_DL)=    0.0215362032 
ITERATION   3 : L=   43.9631820367 DL=  2.40e-04 (AVERGE_DL)=    0.0023100185 
ITERATION   4 : L=   43.9631894214 DL=  7.38e-06 (AVERGE_DL)=    0.0004050989 
ITERATION   5 : L=   43.9631896409 DL=  2.20e-07 (AVERGE_DL)=    0.0000698450 
LOCALIZATION SUM CONVERGED


--------------------------------------------------------------------------------
                    LOCALIZED MOLECULAR ORBITAL COMPOSITIONS
--------------------------------------------------------------------------------

The Mulliken populations for each LMO on each atom are computed
The LMO`s will be ordered according to atom index and type
  (A) Strongly localized MO`s have populations of >=0.950 on one atom
  (B) Two center bond orbitals have populations of >=0.850 on two atoms
  (C) Other MO`s are considered to be `delocalized`

FOUND  -   9 strongly local MO`s
       -   1 two center bond MO`s
       -   0 significantly delocalized MO`s

Rather strongly localized orbitals:
MO  15:   1Cl -   0.993609
MO  14:   1Cl -   0.993609
MO  13:   1Cl -   0.993609
MO  12:   0P  -   1.011603
MO  11:   0P  -   1.011603
MO  10:   0P  -   1.000075
MO   9:   0P  -   1.000074
MO   8:   0P  -   1.000074
MO   7:   0P  -   1.011603
Bond-like localized orbitals:
MO  16:   1Cl -   0.681828  and   0P  -   0.318172
Localized MO's were stored in: /cluster/projects/nn14654k/ylvaos/basis_set_n_funcs/functionals/gga_x_b88/PCl/inp/PCl_gga_x_b88_pc4.loc
------------------------------------------------------------------------------
                           ORCA ORBITAL LOCALIZATION
------------------------------------------------------------------------------

Input orbitals are from                  ... /cluster/projects/nn14654k/ylvaos/basis_set_n_funcs/functionals/gga_x_b88/PCl/inp/PCl_gga_x_b88_pc4.loc
Output orbitals are to                   ... /cluster/projects/nn14654k/ylvaos/basis_set_n_funcs/functionals/gga_x_b88/PCl/inp/PCl_gga_x_b88_pc4.loc
Max. number of iterations                ... 128
Localizations seeded randomly            ... on
Convergence tolerance                    ... 1.000e-06
Threshold for strong local MOs           ... 9.500e-01
Threshold for bond MOs                   ... 8.500e-01
Operator                                 ... 1
Orbital range for localization           ... 7 to 14
Localization criterion                   ... NEW-BOYS
Doing the dipole integrals               ... o.k.
Initial value of the localization sum :    25.533991
ITERATION   0 : L=   29.8797736339 DL=  4.35e+00 (AVERGE_DL)=    0.3939625994 
ITERATION   1 : L=   30.2462329644 DL=  3.66e-01 (AVERGE_DL)=    0.1144020683 
ITERATION   2 : L=   30.2574510913 DL=  1.12e-02 (AVERGE_DL)=    0.0200161782 
ITERATION   3 : L=   30.2592878460 DL=  1.84e-03 (AVERGE_DL)=    0.0080992830 
ITERATION   4 : L=   30.2600560112 DL=  7.68e-04 (AVERGE_DL)=    0.0052377924 
ITERATION   5 : L=   30.2603279945 DL=  2.72e-04 (AVERGE_DL)=    0.0031166793 
ITERATION   6 : L=   30.2604351152 DL=  1.07e-04 (AVERGE_DL)=    0.0019559494 
ITERATION   7 : L=   30.2604782766 DL=  4.32e-05 (AVERGE_DL)=    0.0012415628 
ITERATION   8 : L=   30.2604964181 DL=  1.81e-05 (AVERGE_DL)=    0.0008049297 
ITERATION   9 : L=   30.2605042935 DL=  7.88e-06 (AVERGE_DL)=    0.0005303423 
ITERATION  10 : L=   30.2605077903 DL=  3.50e-06 (AVERGE_DL)=    0.0003533955 
ITERATION  11 : L=   30.2605093645 DL=  1.57e-06 (AVERGE_DL)=    0.0002371077 
ITERATION  12 : L=   30.2605100752 DL=  7.11e-07 (AVERGE_DL)=    0.0001593206 
LOCALIZATION SUM CONVERGED


--------------------------------------------------------------------------------
                    LOCALIZED MOLECULAR ORBITAL COMPOSITIONS
--------------------------------------------------------------------------------

The Mulliken populations for each LMO on each atom are computed
The LMO`s will be ordered according to atom index and type
  (A) Strongly localized MO`s have populations of >=0.950 on one atom
  (B) Two center bond orbitals have populations of >=0.850 on two atoms
  (C) Other MO`s are considered to be `delocalized`

FOUND  -   4 strongly local MO`s
       -   4 two center bond MO`s
       -   0 significantly delocalized MO`s

Rather strongly localized orbitals:
MO  10:   0P  -   1.027302
MO   9:   0P  -   1.000408
MO   8:   0P  -   1.000408
MO   7:   0P  -   1.000408
Bond-like localized orbitals:
MO  14:   1Cl -   0.728066  and   0P  -   0.271934
MO  13:   1Cl -   0.933100  and   0P  -   0.066900
MO  12:   1Cl -   0.933168  and   0P  -   0.066832
MO  11:   1Cl -   0.933078  and   0P  -   0.066922
Localized MO's were stored in: /cluster/projects/nn14654k/ylvaos/basis_set_n_funcs/functionals/gga_x_b88/PCl/inp/PCl_gga_x_b88_pc4.loc

-------------------------   --------------------
FINAL SINGLE POINT ENERGY      -800.274447897197
-------------------------   --------------------



           ************************************************************
           *        Program running with 8 parallel MPI-processes     *
           *              working on a common directory               *
           ************************************************************

------------------------------------------------------------------------------
                              ORCA PROPERTY CALCULATIONS
------------------------------------------------------------------------------

GBWName                                 ... /cluster/projects/nn14654k/ylvaos/basis_set_n_funcs/functionals/gga_x_b88/PCl/inp/PCl_gga_x_b88_pc4.gbw
Number of atoms                         ...      2
Number of basis functions               ...    210
Max core memory                         ...   4096 MB

Electric properties:
Dipole moment                           ... YES
Quadrupole moment                       ... YES
Static polarizability (Dipole/Dipole)   ...  NO
Static polarizability (Dipole/Quad.)    ...  NO
Static polarizability (Quad./Quad.)     ...  NO
Static polarizability (Velocity)        ...  NO
Static hyperpolarizability              ...  NO

Atomic electric properties:
Dipole moment                           ...  NO
Quadrupole moment                       ...  NO
Static polarizability                   ...  NO

Choice of electric origin               ... Center of mass
Position of electric origin             ...     0.000000     0.000000     0.128541

General magnetic properties:
Magnetizability                         ...  NO

EPR properties:
g-Tensor (aka g-matrix)                 ...  NO
Zero-Field splitting spin-orbit         ...  NO
Zero-field splitting spin-spin          ...  NO
Hyperfine couplings                     ...  NO (   0 nuclei)
Quadrupole couplings                    ...  NO (   0 nuclei)
Contact density                         ...  NO (   0 nuclei)

NMR properties:
Chemical shifts                         ...  NO (   0 nuclei)
Spin-rotation constants                 ...  NO (   0 nuclei)
Spin-spin couplings                     ...  NO (   0 nuclei,    0 pairs)

Choice of magnetic origin               ... GIAO
Position of magnetic origin             ...     0.000000     0.000000     0.000000

Properties with geometric perturbations:
SCF Hessian                             ...  NO
IR spectrum                             ...  NO
VCD spectrum                            ...  NO
X-ray spectroscopy properties:
SCF XES/XAS/RIXS spectra                ...  NO

SCF SOC stabilization energy            ...  NO
Diagonal Born-Oppenheimer correction    ...  NO

-------------
DIPOLE MOMENT
-------------

Method             : SCF
Type of density    : Electron Density
Multiplicity       :   3
Irrep              :   0
Energy             :  -800.2744478971972057 Eh
Basis              : AO
                                X                 Y                 Z
Electronic contribution:      0.000000001      -0.000000001       0.174760615
Nuclear contribution   :      0.000000000       0.000000000      -0.300588162
                        -----------------------------------------
Total Dipole Moment    :      0.000000001      -0.000000001      -0.125827547
                        -----------------------------------------
Magnitude (a.u.)       :      0.125827547
Magnitude (Debye)      :      0.319828207



--------------------
Rotational spectrum 
--------------------
 
Rotational constants in cm-1:             0.000000             0.250508             0.250508 
Rotational constants in MHz :             0.000000          7510.026026          7510.026026 

Dipole components along the rotational axes: 
x,y,z [a.u.] :    -0.125828    -0.000000     0.000000 
x,y,z [Debye]:    -0.319828    -0.000000     0.000000 

 

Dipole moment calculation done in   0.0 sec 

-----------------
QUADRUPOLE MOMENT
-----------------

Method             : SCF
Type of density    : Electron Density
Multiplicity       :   3
Irrep              :   0
Energy             :  -800.2744478971972057 Eh
Basis              : AO

                XX              YY              ZZ              XY              XZ              YZ
  NUC        0.000000000     0.000000000   115.842698194     0.000000000     0.000000000     0.000000000
  EL       -19.609072653   -19.609072654  -134.610491533    -0.000000000    -0.000000006     0.000000004
  TOT      -19.609072653   -19.609072654   -18.767793339    -0.000000000    -0.000000006     0.000000004 (a.u.)
           -26.374873349   -26.374873350   -25.243323899    -0.000000000    -0.000000008     0.000000005 (Buckingham)

diagonalized tensor:
           -19.609072654   -19.609072653   -18.767793339 (a.u.)
           -26.374873350   -26.374873349   -25.243323899 (Buckingham)
            -1.131549452    -1.131549449     2.263098901 (traceless form in Buckingham)

            -0.055396231    -0.998464450    -0.000000007
            -0.998464450     0.055396231     0.000000005
             0.000000004    -0.000000008     1.000000000
        
Isotropic quadrupole :   -19.328646215

Quadrupole moment calculation done in   0.0 sec (  0.0 sec for integrals)

Maximum memory used throughout the entire PROP-calculation: 13.8 MB

--------------------------------
SUGGESTED CITATIONS FOR THIS RUN
--------------------------------

Below you find a list of papers that are relevant to this ORCA run
We neither can nor want to force you to cite these papers, but we appreciate if you do
You receive ORCA, which is the product of decades of hard work by many enthusiastic individuals, for free
The only thing we kindly ask in return is that you cite our papers,
We deeply appreciate it, if you show your appreciation for ORCA by not just citing the generic ORCA reference.

Please note that relegating all ORCA citations to the supporting information does *not* help us.
SI sections are not indexed - citations you put there will not count into any citation statistics
But we need these citations in order to attract the funding resources that allow us to do what we are doing

Therefore, if you are a happy ORCA user, please consider citing a few of the papers listed below in the main body of your paper

In addition to the list printed below, the program has created the file /cluster/projects/nn14654k/ylvaos/basis_set_n_funcs/functionals/gga_x_b88/PCl/inp/PCl_gga_x_b88_pc4.bibtex that contains the list in bibtex format
You can import this file easily into all common literature databanks and citation aid programs

It goes without saying that in many instances, there are alternative algorithms to achieve similar
results as the ones you have gotten from ORCA. It is, of course, also the case that in some instances
ORCA just re-implements algorithms worked out by others. We are fully aware of that and we are also
fully appreciative of our colleagues work. Hence this citation list should not be read as indicating
that the listed papers, which are focused on our own work, are the only ones worth citing. It simply
meant to make it easier for users to cite ORCA specific papers. It is not a substitute for doing your
own literature research and citing the relevant literature in a scientifically appropriate manner.

List of essential papers. We consider these as the minimum necessary citations

  1. Neese, F.
     Software update: the ORCA program system, version 6.0
     WIRES Comput. Molec. Sci. 2025 15(1), e70019
     doi.org/10.1002/wcms.70019

List of papers to cite with high priority. The work reported in these papers was absolutely
necessary for this run to complete.
Our perspective: the developers of density functionals and basis sets usually get cited in chemistry papers
Good! But without the algorithms to do something with them, the functionals or basis sets would not do anything.
Hence, in our opinion, the algorithm design and method developments papers are equally worthy of getting cited

  1. Lehtola, S.; Steigemann, C.; Oliveira, M.; Marques, M.
     Recent developments in Libxc - A comprehensive library of functionals for density functional theory
     Software X 2018 7 , 
     doi.org/10.1016/j.softx.2017.11.002
  2. Neese, F.
     The SHARK Integral Generation and Digestion System
     J. Comp. Chem. 2022 44(3), 381
     doi.org/10.1002/jcc.26942

List of suggested additional citations. These are papers that are important in the 'surrounding' of 
of this run, or papers that preceded the highly important papers. If you like your results we are grateful for a citation.

  1. Neese, F.
     The ORCA program system
     WIRES Comput. Molec. Sci. 2012 2(1), 73-78
     doi.org/10.1002/wcms.81
  2. Neese, F.
     Software update: the ORCA program system, version 4.0
     WIRES Comput. Molec. Sci. 2018 8(1), 1-6
     doi.org/10.1002/wcms.1327
  3. Neese, F.; Wennmohs, F.; Becker, U.; Riplinger, C.
     The ORCA quantum chemistry program package
     J. Chem. Phys. 2020 152(22), 224108
     doi.org/10.1063/5.0004608
  4. Neese, F.
     Software update: The ORCA program system—Version 5.0
     WIRES Comput. Molec. Sci. 2022 12(1), e1606
     doi.org/10.1002/wcms.1606

List of optional additional citations

  1. Neese, F.
     Approximate second-order SCF convergence for spin unrestricted wavefunctions
     Chem. Phys. Lett. 2000 325(1-3), 93-98
     doi.org/10.1016/s0009-2614(00)00662-x

Timings for individual modules:

Sum of individual times          ...       32.487 sec (=   0.541 min)
Startup calculation              ...        0.629 sec (=   0.010 min)   1.9 %
SCF iterations                   ...       31.180 sec (=   0.520 min)  96.0 %
Property integrals               ...        0.361 sec (=   0.006 min)   1.1 %
Property calculations            ...        0.290 sec (=   0.005 min)   0.9 %
Orbital localization             ...        0.028 sec (=   0.000 min)   0.1 %
                             ****ORCA TERMINATED NORMALLY****
TOTAL RUN TIME: 0 days 0 hours 0 minutes 34 seconds 226 msec
