
                                 *****************
                                 * O   R   C   A *
                                 *****************

                                            #,                                       
                                            ###                                      
                                            ####                                     
                                            #####                                    
                                            ######                                   
                                           ########,                                 
                                     ,,################,,,,,                         
                               ,,#################################,,                 
                          ,,##########################################,,             
                       ,#########################################, ''#####,          
                    ,#############################################,,   '####,        
                  ,##################################################,,,,####,       
                ,###########''''           ''''###############################       
              ,#####''   ,,,,##########,,,,          '''####'''          '####       
            ,##' ,,,,###########################,,,                        '##       
           ' ,,###''''                  '''############,,,                           
         ,,##''                                '''############,,,,        ,,,,,,###''
      ,#''                                            '''#######################'''  
     '                                                          ''''####''''         
             ,#######,   #######,   ,#######,      ##                                
            ,#'     '#,  ##    ##  ,#'     '#,    #''#        ,####,    ,#,          
            ##       ##  ##   ,#'  ##            #'  '#       #'       ,# #          
            ##       ##  #######   ##           ,######,      #####,      #          
            '#,     ,#'  ##    ##  '#,     ,#' ,#      #,     #,   #      #          
             '#######'   ##     ##  '#######'  #'      '#     '####' #    #          



                #########################################################
                #                        -***-                          #
                #          Department of theory and spectroscopy        #
                #                                                       #
                #                      Frank Neese                      #
                #                                                       #
                #     Directorship, Architecture, Infrastructure        #
                #                    SHARK, DRIVERS                     #
                #        Core code/Algorithms in most modules           #
                #                                                       #
                #        Max Planck Institute fuer Kohlenforschung      #
                #                Kaiser Wilhelm Platz 1                 #
                #                 D-45470 Muelheim/Ruhr                 #
                #                      Germany                          #
                #                                                       #
                #                  All rights reserved                  #
                #                        -***-                          #
                #########################################################


                         Program Version 6.1.1  -  RELEASE   -
                                (GIT: $487d211c$)
                          ($2025-11-21 10:33:24 +0100$)


 With contributions from (in alphabetic order):
[Max-Planck-Institut fuer Kohlenforschung]                               
  Daniel Aravena         : Magnetic Suceptibility                        
  Michael Atanasov       : Ab Initio Ligand Field Theory (pilot matlab implementation)
  Alexander A. Auer      : GIAO ZORA, VPT2 properties, NMR spectrum      
  Ute Becker             : All parallelization in ORCA, NUMFREQ, NUMCALC 
  Giovanni Bistoni       : ED, misc. LED, open-shell LED, HFLD           
  Dmytro Bykov           : pre 5.0 version of the SCF Hessian            
  Marcos Casanova-Páez   : Triplet and SCS-CIS(D). UHF-(DLPNO)-IP/EA/STEOM-CCSD. UHF-CVS-IP/STEOM-CCSD   
  Vijay G. Chilkuri      : MRCI spin determinant printing, contributions to CSF-ICE 
  Pauline Colinet        : FMM embedding                                 
  Dipayan Datta          : RHF DLPNO-CCSD density                        
  Achintya Kumar Dutta   : EOM-CC, STEOM-CC                              
  Nicolas Foglia         : Exact transition moments, OPA infrastructure, MCD improvements    
  Dmitry Ganyushin       : Spin-Orbit,Spin-Spin,Magnetic field MRCI      
  Miquel Garcia-Rates    : C-PCM and meta-GGA Hessian, CCSD/C-PCM, Gaussian charge scheme 
  Tiago L. C. Gouveia    : GS-ROHF, GS-ROCIS                             
  Yang Guo               : DLPNO-NEVPT2, F12-NEVPT2, CIM, IAO-localization        
  Andreas Hansen         : Spin unrestricted coupled pair/coupled cluster methods 
  Ingolf Harden          : AUTO-CI MPn and infrastructure                
  Benjamin Helmich-Paris : MC-RPA, TRAH-(SCF,CASSCF), AVAS, COSX integrals, SCF dyn. polar., MC-PDFT, srDFT 
  Lee Huntington         : MR-EOM, pCC                                   
  Robert Izsak           : Overlap fitted RIJCOSX, COSX-SCS-MP3, EOM     
  Riya Kayal             : Wick's Theorem for AUTO-CI, AUTO-CI UHF-CCSDT 
  Emily Kempfer          : AUTO-CI RHF CISDT and CCSDT, approximate NEVPT4
  Christian Kollmar      : KDIIS, OOCD, Brueckner-CCSD(T), CCSD density, CASPT2, CASPT2-K, improved NEVPT2 
  Axel Koslowski         : Symmetry handling                             
  Simone Kossmann        : meta-GGA functionals, TD-DFT gradient, OOMP2, (MP2 Hessian; deprecated post 5.0) 
  Lucas Lang             : DCDCAS, Hyperfine gauge corrections, ICE-SOC+SSC
  Marvin Lechner         : AUTO-CI (C++ implementation), FIC-MRCC        
  Spencer Leger          : CASSCF response                               
  Dagmar Lenk            : GEPOL surface, SMD, ORCA-2-JSON               
  Dimitrios Liakos       : Extrapolation schemes; Compound Job, Property file
  Dimitrios Manganas     : Further ROCIS development; embedding schemes. LFT, Crystal Embedding 
  Dimitrios Pantazis     : SARC Basis sets                               
  Anastasios Papadopoulos: AUTO-CI, single reference methods and gradients 
  Taras Petrenko         : pre 6.0 DFT Hessian and TD-DFT gradient,  ECA, NRVS 
  Petra Pikulova         : Analytic Raman intensities                    
  Peter Pinski           : DLPNO-MP2, DLPNO-MP2 Gradient                 
  Shashank Vittal Rao    : ES-AILFT, MagRelax                            
  Christoph Reimann      : Effective Core Potentials                     
  Marius Retegan         : Local ZFS, SOC                                
  Christoph Riplinger    : Optimizer, TS searches, QM/MM, DLPNO-CCSD(T), (RO)-DLPNO pert. Triples 
  Michael Roemelt        : Original ROCIS implementation, recursive CI coupling coefficients
  Masaaki Saitow         : Open-shell DLPNO-CCSD energy and density      
  Barbara Sandhoefer     : DKH picture change effects                    
  Yorick L. A. Schmerwitz: GMF and freeze-and-release deltaSCF, NEB S-IDPP initial path                    
  Kantharuban Sivalingam : CASSCF convergence/infrastructure, NEVPT2, NEVPT3, NEVPT4(SD), FIC-MRCI and CEPA variants
  Bernardo de Souza      : ESD, SOC TD-DFT                               
  Georgi L. Stoychev     : AutoAux, RI-MP2 NMR, DLPNO-MP2 response, X2C  
  Van Anh Tran           : RI-MP2 g-tensors                              
  Willem Van den Heuvel  : Paramagnetic NMR                              
  Zikuan Wang            : NOTCH, Electric field optimization            
  Frank Wennmohs         : Technical directorship and infrastructure     
  Hang Xu                : AUTO-CI-Response properties                   
                                                                         
[FACCTs GmbH]                                                            
  Markus Bursch, Nicolas Foglia, Miquel Garcia-Rates, Ingolf Harden, Hagen Neugebauer, Anastasios Papadopoulos, 
  Christoph Riplinger, Bernardo de Souza, Georgi L. Stoychev                                                    
                                                                 
  APM, various basis sets, CI-OPT, improved COSX, DLPNO-Multilevel,           
  DOCKER, DRACO, updates on ESD, Fragmentator, GOAT, IRC, LR-CPCM, L-BFGS, MBIS, meta-GGA TD-DFT gradient, ML-optimized integration grids, 
  MM, NACMEs, nearIR, NEB, NEB-TS, NL-DFT gradient (VV10), 2- and 3-layer-ONIOM, interface openCOSMO-RS, QMMM,   
  Crystal-QMMM, RESP, rigid body optimization, SF, symmetry and pop. for TD-DFT, various functionals, SOLVATOR                                   
                                                                         
[Other institutions]                                                     
  V. Asgeirsson          : NEB                                           
  Christoph Bannwarth    : sTDA-DFT, sTD-DFT, PBEh-3c, B97-3c, D3        
  Giovanni Bistoni       : ETS/NOCV, ADLD/ADEX, COVALED                  
  Martin Brehm           : Molecular dynamics                            
  Ronald Cardenas        : ETS/NOCV                                      
  Martina Colucci        : COVALED                                       
  Sebastian Ehlert       : rSCAN, r2SCAN, r2SCAN-3c, D4, dhf basis sets  
  Marvin Friede          : D4 for Fr, Ra, Ac-Lr                          
  Lars Goerigk           : TD-DFT with DH, B97 family of functionals     
  Stefan Grimme          : VdW corrections, initial TS optimization, DFT functionals, gCP, sTDA/sTD-DF 
  Waldemar Hujo          : DFT-NL                                        
  H. Jonsson             : NEB                                           
  Holger Kruse           : gCP                                           
  Marcel Mueller         : wB97X-3c, vDZP basis set                      
  Hagen Neugebauer       : wr2SCAN, Native XTB                           
  Gianluca Regni         : ADLD/ADEX                                     
  Tobias Risthaus        : pre 6.0 range-separated hybrid DFT and stability analysis
  Lukas Wittmann         : regularized MP2, r2SCAN double-hybrids, wr2SCAN        
                                                                         
We gratefully acknowledge several colleagues who have allowed us to      
interface, adapt or use parts of their codes:                            
  Ed Valeev, F. Pavosevic, A. Kumar             : LibInt (2-el integral package), F12 methods 
  Garnet Chan, S. Sharma, J. Yang, R. Olivares  : DMRG                   
  Ulf Ekstrom                                   : XCFun DFT Library      
  Mihaly Kallay                                 : mrcc  (arbitrary order and MRCC methods)
  Frank Weinhold                                : gennbo (NPA and NBO analysis)           
  Simon Mueller                                 : openCOSMO-RS                            
  Christopher J. Cramer and Donald G. Truhlar   : smd solvation model                     
  S Lehtola, MJT Oliveira, MAL Marques          : LibXC Library                           
  Liviu Ungur et al                             : ANISO software                          


 Your calculation uses the libint2 library for the computation of 2-el integrals
 For citations please refer to: http://libint.valeyev.net

 Your ORCA version has been built with support for libXC version: 7.0.0
 For citations please refer to: https://libxc.gitlab.io

 This ORCA versions uses:
   CBLAS   interface :  Fast vector & matrix operations
   LAPACKE interface :  Fast linear algebra routines
   SCALAPACK package :  Parallel linear algebra routines
   Shared memory     :  Shared parallel matrices
   BLAS/LAPACK       :  OpenBLAS 0.3.29  USE64BITINT DYNAMIC_ARCH NO_AFFINITY Cooperlake SINGLE_THREADED
        Core in use  :  Cooperlake
   Copyright (c) 2011-2014, The OpenBLAS Project


  ***********************************
  * Starting time: Wed May 20 12:41:04 2026
  * Host name:     c1-48
  * Process ID:    1493181
  * Working dir.:  /cluster/projects/nn14654k/ylvaos/basis_set_n_funcs/functionals/gga_x_pw91/SiH2/out
  ***********************************

Using LibXC functional ID 109 : Perdew & Wang 91
[ 1]  J. P. Perdew. In P. Ziesche and H. Eschrig, editors, Proceedings of the 75. WE-Heraeus-Seminar and 21st Annual International Symposium on Electronic Structure of Solids, 11. Berlin, 1991. Akademie Verlag.
[ 2]  J. P. Perdew, J. A. Chevary, S. H. Vosko, K. A. Jackson, M. R. Pederson, D. J. Singh, and C. Fiolhais.,  Phys. Rev. B 46, 6671 (1992)
[ 3]  J. P. Perdew, J. A. Chevary, S. H. Vosko, K. A. Jackson, M. R. Pederson, D. J. Singh, and C. Fiolhais.,  Phys. Rev. B 48, 4978 (1993)
Using LibXC functional ID 109 : Perdew & Wang 91
[ 1]  J. P. Perdew. In P. Ziesche and H. Eschrig, editors, Proceedings of the 75. WE-Heraeus-Seminar and 21st Annual International Symposium on Electronic Structure of Solids, 11. Berlin, 1991. Akademie Verlag.
[ 2]  J. P. Perdew, J. A. Chevary, S. H. Vosko, K. A. Jackson, M. R. Pederson, D. J. Singh, and C. Fiolhais.,  Phys. Rev. B 46, 6671 (1992)
[ 3]  J. P. Perdew, J. A. Chevary, S. H. Vosko, K. A. Jackson, M. R. Pederson, D. J. Singh, and C. Fiolhais.,  Phys. Rev. B 48, 4978 (1993)
Your calculation utilizes LibXC
by S. Lehtola, C. Steigemann, M. J. T. Oliveira & M. A. L. Marques
Please cite in your paper:
Lehtola, S.; Steigemann, C.; Oliveira, M.J.T.; Marques, M. A. L. Software X, 7, (2018), 1.
   

================================================================================

----- Orbital basis set information -----
Your calculation utilizes the basis: pcseg-0
   F. Jensen, J. Chem. Theory Comput. 10, 1074 (2014).

================================================================================
                                        WARNINGS
                       Please study these warnings very carefully!
================================================================================


================================================================================
                                       INPUT FILE
================================================================================
NAME = /cluster/projects/nn14654k/ylvaos/basis_set_n_funcs/functionals/gga_x_pw91/SiH2/inp/SiH2_gga_x_pw91_pcseg0.inp
|  1> ! dft pcseg-0 TightSCF
|  2> %pal nprocs 8 end
|  3> 
|  4> %loc
|  5>   LocMet NewBoys
|  6>   Occ true
|  7> end
|  8> 
|  9> %method
| 10>   exchange gga_x_pw91
| 11>   correlation None
| 12> end
| 13> 
| 14> %elprop
| 15>   Dipole true
| 16>   Quadrupole true
| 17> end
| 18> 
| 19> * xyz 0 1
| 20> Si    0.000000000000   0.000000000000   0.000000000000
| 21> H    0.000000000000   0.000000000000  -1.514100000000
| 22> H    0.000000000000   1.513200000000   0.052800000000
| 23> *
| 24> 
| 25> 
| 26>                          ****END OF INPUT****
================================================================================

                       ****************************
                       * Single Point Calculation *
                       ****************************

---------------------------------
CARTESIAN COORDINATES (ANGSTROEM)
---------------------------------
  Si     0.000000    0.000000    0.000000
  H      0.000000    0.000000   -1.514100
  H      0.000000    1.513200    0.052800

----------------------------
CARTESIAN COORDINATES (A.U.)
----------------------------
  NO LB      ZA    FRAG     MASS         X           Y           Z
   0 Si   14.0000    0    28.086    0.000000    0.000000    0.000000
   1 H     1.0000    0     1.008    0.000000    0.000000   -2.861234
   2 H     1.0000    0     1.008    0.000000    2.859534    0.099778

--------------------------------
INTERNAL COORDINATES (ANGSTROEM)
--------------------------------
 Si     0   0   0     0.000000000000     0.00000000     0.00000000
 H      1   0   0     1.514100000000     0.00000000     0.00000000
 H      1   2   0     1.514120893456    91.99840755     0.00000000

---------------------------
INTERNAL COORDINATES (A.U.)
---------------------------
 Si     0   0   0     0.000000000000     0.00000000     0.00000000
 H      1   0   0     2.861234339370     0.00000000     0.00000000
 H      1   2   0     2.861273822280    91.99840755     0.00000000

---------------------
BASIS SET INFORMATION
---------------------
There are 2 groups of distinct atoms

 Group   1 Type Si  : 9s6p contracted to 4s3p pattern {5211/411}
 Group   2 Type H   : 3s contracted to 2s pattern {21}

Atom   0Si   basis set group =>   1
Atom   1H    basis set group =>   2
Atom   2H    basis set group =>   2


           ************************************************************
           *        Program running with 8 parallel MPI-processes     *
           *              working on a common directory               *
           ************************************************************
------------------------------------------------------------------------------
                             ORCA STARTUP CALCULATIONS
------------------------------------------------------------------------------
------------------------------------------------------------------------------
                   ___                                                        
                  /   \      - P O W E R E D   B Y -                         
                 /     \                                                     
                 |  |  |   _    _      __       _____    __    __             
                 |  |  |  | |  | |    /  \     |  _  \  |  |  /  |          
                  \  \/   | |  | |   /    \    | | | |  |  | /  /          
                 / \  \   | |__| |  /  /\  \   | |_| |  |  |/  /          
                |  |  |   |  __  | /  /__\  \  |    /   |      \           
                |  |  |   | |  | | |   __   |  |    \   |  |\   \          
                \     /   | |  | | |  |  |  |  | |\  \  |  | \   \       
                 \___/    |_|  |_| |__|  |__|  |_| \__\ |__|  \__/        
                                                                              
                      - O R C A' S   B I G   F R I E N D -                    
                                      &                                       
                       - I N T E G R A L  F E E D E R -                       
                                                                              
 v1 FN, 2020, v2 2021, v3 2022-2024                                           
------------------------------------------------------------------------------


----------------------
SHARK INTEGRAL PACKAGE
----------------------

Number of atoms                             ...      3
Number of basis functions                   ...     17
Number of shells                            ...     11
Maximum angular momentum                    ...      1
Integral batch strategy                     ... SHARK/LIBINT Hybrid
RI-J (if used) integral strategy            ... SPLIT-RIJ (Revised 2003 algorithm where possible)
Printlevel                                  ...      1
Contraction scheme used                     ... SEGMENTED contraction
Prescreening option                         ... SCHWARTZ
   Thresh                                   ... 2.500e-11
   Tcut                                     ... 2.500e-12
   Tpresel                                  ... 2.500e-12 
Coulomb Range Separation                    ... NOT USED
Exchange Range Separation                   ... NOT USED
Multipole approximations                    ... NOT USED
Finite Nucleus Model                        ... NOT USED
CABS basis                                  ... NOT available
Auxiliary Coulomb fitting basis             ... NOT available
Auxiliary J/K fitting basis                 ... NOT available
Auxiliary Correlation fitting basis         ... NOT available
Auxiliary 'external' fitting basis          ... NOT available

Checking pre-screening integrals            ... done (  0.0 sec) Dimension = 11
   => SHARK Basis and OBASIS are compatible. Storing Pre-screening
Shell pair information
Shell pair cut-off parameter TPreSel        ...   2.5e-12
Total number of shell pairs                 ...        66
Shell pairs after pre-screening             ...        66
Total number of primitive shell pairs       ...       250
Primitive shell pairs kept                  ...       237
          la=0 lb=0:     36 shell pairs
          la=1 lb=0:     24 shell pairs
          la=1 lb=1:      6 shell pairs

Checking whether 4 symmetric matrices of dimension 17 fit in memory
:Max Core in MB      =   4096.00
 MB in use           =      0.83
 MB left             =   4095.17
 MB needed           =      0.00
 Data fit in memory  = YES
Calculating Nuclear repulsion               ... done (  0.0 sec) ENN=     10.028851096195 Eh

Diagonalization of the overlap matrix:
Smallest eigenvalue                        ... 3.857e-02
Time for diagonalization                   ...    0.000 sec
Threshold for overlap eigenvalues          ... 1.000e-07
Number of eigenvalues below threshold      ... 0
Time for construction of square roots      ...    0.001 sec
Total time needed                          ...    0.003 sec

-------------------
DFT GRID GENERATION
-------------------

General Integration Accuracy     IntAcc      ... 4.388
Radial Grid Type                 RadialGrid  ... OptM3 with GC (2021)
Angular Grid (max. ang.)         AngularGrid ... 4 (Lebedev-302)
Angular grid pruning method      GridPruning ... 4 (adaptive)
Weight generation scheme         WeightScheme... mBecke (2022)
Basis function cutoff            BFCut       ... 1.0000e-11
Integration weight cutoff        WCut        ... 1.0000e-14
Partially contracted basis set               ... off
Rotationally invariant grid construction     ... off
Angular grids for H and He will be reduced by one unit

Total number of grid points                  ...    13986
Total number of batches                      ...      220
Average number of points per batch           ...       63
Average number of grid points per atom       ...     4662
Grids setup in   0.0 sec
Initializing property integral containers    ... done (  0.0 sec)

SHARK setup successfully completed in   0.1 seconds

Maximum memory used throughout the entire STARTUP-calculation: 4.7 MB


           ************************************************************
           *        Program running with 8 parallel MPI-processes     *
           *              working on a common directory               *
           ************************************************************
-------------------------------------------------------------------------------
                                 ORCA GUESS
                   Start orbitals & Density for SCF / CASSCF
-------------------------------------------------------------------------------

------------
SCF SETTINGS
------------
Hamiltonian:
 Density Functional     Method          .... DFT(GTOs)
  Functional kind                       .... Exchange
  Functional name                       .... Perdew & Wang 91
  Functional family                     .... GGA
  Functional refs                              
    [ 0] J. P. Perdew. In P. Ziesche and H. Eschrig, editors, Proceedings of the 75. WE-Heraeus-Seminar and 21st Annual International Symposium on Electronic Structure of Solids, 11. Berlin, 1991. Akademie Verlag.
    [ 1] J. P. Perdew, J. A. Chevary, S. H. Vosko, K. A. Jackson, M. R. Pederson, D. J. Singh, and C. Fiolhais.,  Phys. Rev. B 46, 6671 (1992), doi: 10.1103/PhysRevB.46.6671
    [ 2] J. P. Perdew, J. A. Chevary, S. H. Vosko, K. A. Jackson, M. R. Pederson, D. J. Singh, and C. Fiolhais.,  Phys. Rev. B 48, 4978 (1993), doi: 10.1103/PhysRevB.48.4978.2
  Functional external parameters        .... 7
    Parameter  0 _a         =  1.964500e-01 : a parameter         
    Parameter  1 _b         =  7.795600e+00 : b parameter         
    Parameter  2 _c         =  2.743000e-01 : c parameter         
    Parameter  3 _d         = -1.508000e-01 : d parameter         
    Parameter  4 _f         =  4.000000e-03 : f parameter         
    Parameter  5 _alpha     =  1.000000e+02 : alpha parameter     
    Parameter  6 _expo      =  4.000000e+00 : exponent            
 Correlation Functional Correlation     .... No Correlation
 Gradients option       PostSCFGGA      .... off


General Settings:
 Integral files         IntName         .... /cluster/projects/nn14654k/ylvaos/basis_set_n_funcs/functionals/gga_x_pw91/SiH2/inp/SiH2_gga_x_pw91_pcseg0
 Hartree-Fock type      HFTyp           .... RHF
 Total Charge           Charge          ....    0
 Multiplicity           Mult            ....    1
 Number of Electrons    NEL             ....   16
 Basis Dimension        Dim             ....   17
 Nuclear Repulsion      ENuc            ....     10.0288510962 Eh

Convergence Acceleration:
 AO-DIIS                CNVDIIS         .... on
   Start iteration      DIISMaxIt       ....    12
   Startup error        DIISStart       ....  0.200000
   # of expansion vecs  DIISMaxEq       ....     5
   Bias factor          DIISBfac        ....   1.050
   Max. coefficient     DIISMaxC        ....  10.000
 MO-DIIS                CNVKDIIS        .... off
 Trust-Rad. Augm. Hess. CNVTRAH         .... auto
   Auto Start mean grad. ratio tolernc. ....  1.125000
   Auto Start start iteration           ....    50
   Auto Start num. interpolation iter.  ....    10
   Max. Number of Micro iterations      ....    24
   Max. Number of Macro iterations      .... Maxiter - #DIIS iter
   Number of Davidson start vectors     ....     2
   Converg. threshold    (grad. norm)   ....   1.000e-05
   Grad. Scal. Fac. for Micro threshold ....   0.100
   Minimum threshold for Micro iter.    ....   1.000e-02
   NR start threshold (gradient norm)   ....   1.000e-04
   Initial trust radius                 ....   0.400
   Minimum AH scaling param. (alpha)    ....   1.000
   Maximum AH scaling param. (alpha)    .... 1000.000
   Quad. conv. algorithm                .... NR
   White noise on init. David. guess    .... on
   Maximum white noise                  ....   0.010
   Pseudo random numbers                .... off
   Inactive MOs                         .... canonical
   Orbital update algorithm             .... Taylor
   Preconditioner                       .... Diag
   Full preconditioner red. dimension   ....   250
 SOSCF                 CNVSOSCF           .... on
   Start iteration     SOSCFMaxIt         ....   150
   Startup grad/error  SOSCFStart         ....  0.003300
   Hessian update      SOSCFHessUp        .... L-BFGS
   Autom. constraints  SOSCFAutoConstrain .... off
 Level Shifting         CNVShift        .... on
   Level shift para.    LevelShift      ....    0.2500
   Turn off err/grad.   ShiftErr        ....    0.0010
 Zerner damping         CNVZerner       .... off
 Static damping         CNVDamp         .... on
   Fraction old density DampFac         ....    0.7000
   Max. Damping (<1)    DampMax         ....    0.9800
   Min. Damping (>=0)   DampMin         ....    0.0000
   Turn off err/grad.   DampErr         ....    0.1000

SCF Procedure:
 Maximum # iterations   MaxIter         ....   125
 SCF integral mode      SCFMode         .... Direct
   Integral package                     .... SHARK and LIBINT hybrid scheme
 Reset frequency        DirectResetFreq ....    20
 Integral Threshold     Thresh          ....  2.500e-11 Eh
 Primitive CutOff       TCut            ....  2.500e-12 Eh

Convergence Tolerance:
 Convergence Check Mode ConvCheckMode   .... Total+1el-Energy
 Convergence forced     ConvForced      .... 0
 Energy Change          TolE            ....  1.000e-08 Eh
 1-El. energy change                    ....  1.000e-05 Eh
 Orbital Gradient       TolG            ....  1.000e-05
 Orbital Rotation angle TolX            ....  1.000e-05
 DIIS Error             TolErr          ....  5.000e-07

------------------------------
INITIAL GUESS: MODEL POTENTIAL
------------------------------
Loading Hartree-Fock densities                     ... done
Calculating cut-offs                               ... done
Initializing the effective Hamiltonian             ... done
Setting up the integral package (SHARK)            ... done
Starting the Coulomb interaction                   ... done (   0.0 sec)
Making the grid                                    ... done (   0.0 sec)
Mapping shells                                     ... done
Starting the XC term evaluation                    ... done (   0.0 sec)
  promolecular density results
     # of electrons  =     16.000308000
     EX              =    -20.826457293
     EC              =      0.000000000
     EX+EC           =    -20.826457293
Transforming the Hamiltonian                       ... done (   0.0 sec)
Diagonalizing the Hamiltonian                      ... done (   0.0 sec)
Back transforming the eigenvectors                 ... done (   0.0 sec)
Now organizing SCF variables                       ... done
                      ------------------
                      INITIAL GUESS DONE (   0.0 sec)
                      ------------------
             **** ENERGY FILE WAS UPDATED (/cluster/projects/nn14654k/ylvaos/basis_set_n_funcs/functionals/gga_x_pw91/SiH2/inp/SiH2_gga_x_pw91_pcseg0.en.tmp) ****
Finished Guess after   0.1 sec
Maximum memory used throughout the entire GUESS-calculation: 2.1 MB


           ************************************************************
           *        Program running with 8 parallel MPI-processes     *
           *              working on a common directory               *
           ************************************************************

-------------------------------------------------------------------------------------------
                                      ORCA LEAN-SCF
                              memory conserving SCF solver
-------------------------------------------------------------------------------------------

----------------------------------------D-I-I-S--------------------------------------------
Iteration    Energy (Eh)           Delta-E    RMSDP     MaxDP     DIISErr   Damp  Time(sec)
-------------------------------------------------------------------------------------------
               ***  Starting incremental Fock matrix formation  ***
    1    -289.6250423953123914     0.00e+00  1.08e-02  2.43e-02  6.90e-02  0.700   0.0
Warning: op=0 Small HOMO/LUMO gap (   0.052) - skipping pre-diagonalization
         Will do a full diagonalization
    2    -289.6284737650219654    -3.43e-03  1.13e-02  2.26e-02  4.48e-02  0.700   0.0
                               ***Turning on AO-DIIS***
    3    -289.6303934917086735    -1.92e-03  8.51e-03  2.61e-02  2.31e-02  0.700   0.0
    4    -289.6315068986831420    -1.11e-03  2.21e-02  7.19e-02  1.38e-02  0.000   0.0
                              *** Initializing SOSCF ***
---------------------------------------S-O-S-C-F--------------------------------------
Iteration    Energy (Eh)           Delta-E    RMSDP     MaxDP     MaxGrad    Time(sec)
--------------------------------------------------------------------------------------
    5    -289.6338153268964106    -2.31e-03  2.14e-03  6.48e-03  1.57e-03     0.0
               *** Restarting incremental Fock matrix formation ***
    6    -289.6338244809941216    -9.15e-06  6.36e-04  1.18e-03  2.33e-04     0.0
    7    -289.6338248619488240    -3.81e-07  2.78e-04  8.28e-04  1.27e-04     0.0
    8    -289.6338249740132369    -1.12e-07  9.48e-05  3.23e-04  2.14e-05     0.0
    9    -289.6338249787690415    -4.76e-09  1.70e-05  5.17e-05  6.16e-06     0.0
                 **** Energy Check signals convergence ****

               *****************************************************
               *                     SUCCESS                       *
               *           SCF CONVERGED AFTER   9 CYCLES          *
               *****************************************************

             **** ENERGY FILE WAS UPDATED (/cluster/projects/nn14654k/ylvaos/basis_set_n_funcs/functionals/gga_x_pw91/SiH2/inp/SiH2_gga_x_pw91_pcseg0.en.tmp) ****

----------------
TOTAL SCF ENERGY
----------------

Total Energy       :       -289.63382497904195 Eh           -7881.33706 eV

Components:
Nuclear Repulsion  :         10.02885109619548 Eh             272.89891 eV
Electronic Energy  :       -299.66267607523741 Eh           -8154.23597 eV
One Electron Energy:       -421.07524868213022 Eh          -11458.04003 eV
Two Electron Energy:        121.41257260689284 Eh            3303.80406 eV

Virial components:
Potential Energy   :       -579.38710980951032 Eh          -15765.92478 eV
Kinetic Energy     :        289.75328483046843 Eh            7884.58772 eV
Virial Ratio       :          1.99958771873286

DFT components:
N(Alpha)           :        8.000002892393 electrons
N(Beta)            :        8.000002892393 electrons
N(Total)           :       16.000005784786 electrons
E(X)               :      -20.893231337781 Eh       
E(C)               :        0.000000000000 Eh       
E(XC)              :      -20.893231337781 Eh       

---------------
SCF CONVERGENCE
---------------

  Last Energy change         ...    4.7558e-09  Tolerance :   1.0000e-08
  Last MAX-Density change    ...    5.1746e-05  Tolerance :   1.0000e-07
  Last RMS-Density change    ...    1.7005e-05  Tolerance :   5.0000e-09
  Last DIIS Error            ...    1.5676e-03  Tolerance :   5.0000e-07
  Last Orbital Gradient      ...    6.1608e-06  Tolerance :   1.0000e-05
  Last Orbital Rotation      ...    7.3765e-06  Tolerance :   1.0000e-05


----------------
ORBITAL ENERGIES
----------------

  NO   OCC          E(Eh)            E(eV) 
   0   2.0000     -65.424233     -1780.2839 
   1   2.0000      -4.974943      -135.3751 
   2   2.0000      -3.478806       -94.6631 
   3   2.0000      -3.468512       -94.3830 
   4   2.0000      -3.464650       -94.2779 
   5   2.0000      -0.443054       -12.0561 
   6   2.0000      -0.271620        -7.3912 
   7   2.0000      -0.178736        -4.8636 
   8   0.0000      -0.123101        -3.3498 
   9   0.0000       0.051318         1.3964 
  10   0.0000       0.095774         2.6061 
  11   0.0000       0.206051         5.6069 
  12   0.0000       0.524588        14.2748 
  13   0.0000       0.554195        15.0804 
  14   0.0000       0.596526        16.2323 
  15   0.0000       0.732274        19.9262 
  16   0.0000       0.741755        20.1842 
*Only the first 10 virtual orbitals were printed.

                    ********************************
                    * MULLIKEN POPULATION ANALYSIS *
                    ********************************

-----------------------
MULLIKEN ATOMIC CHARGES
-----------------------
   0 Si:    0.250638
   1 H :   -0.125321
   2 H :   -0.125317
Sum of atomic charges:   -0.0000000

--------------------------------
MULLIKEN REDUCED ORBITAL CHARGES
--------------------------------
  0 Sis       :     5.921632  s :     5.921632
      pz      :     2.907773  p :     7.827730
      px      :     2.000000
      py      :     2.919958

  1 H s       :     1.125321  s :     1.125321

  2 H s       :     1.125317  s :     1.125317



                     *******************************
                     * LOEWDIN POPULATION ANALYSIS *
                     *******************************

----------------------
LOEWDIN ATOMIC CHARGES
----------------------
   0 Si:    0.272607
   1 H :   -0.136305
   2 H :   -0.136303

-------------------------------
LOEWDIN REDUCED ORBITAL CHARGES
-------------------------------
  0 Sis       :     5.694262  s :     5.694262
      pz      :     3.009599  p :     8.033131
      px      :     2.000000
      py      :     3.023531

  1 H s       :     1.136305  s :     1.136305

  2 H s       :     1.136303  s :     1.136303



                      *****************************
                      * MAYER POPULATION ANALYSIS *
                      *****************************

  NA   - Mulliken gross atomic population
  ZA   - Total nuclear charge
  QA   - Mulliken gross atomic charge
  VA   - Mayer's total valence
  BVA  - Mayer's bonded valence
  FA   - Mayer's free valence

  ATOM       NA         ZA         QA         VA         BVA        FA
  0 Si    13.7494    14.0000     0.2506     1.8077     1.8077    -0.0000
  1 H      1.1253     1.0000    -0.1253     0.9076     0.9076    -0.0000
  2 H      1.1253     1.0000    -0.1253     0.9076     0.9076    -0.0000

  Mayer bond orders larger than 0.100000
B(  0-Si,  1-H ) :   0.9039 B(  0-Si,  2-H ) :   0.9039 

-------
TIMINGS
-------

Total SCF time: 0 days 0 hours 0 min 0 sec 

Total time                  ....       0.467 sec
Sum of individual times     ....       0.413 sec  ( 88.5%)

SCF preparation             ....       0.052 sec  ( 11.0%)
Fock matrix formation       ....       0.230 sec  ( 49.3%)
  Startup                   ....       0.014 sec  (  6.1% of F)
  Coulomb formation         ....       0.005 sec  (  2.4% of F)
  XC integration            ....       0.147 sec  ( 63.8% of F)
    Basis function eval.    ....       0.004 sec  (  2.7% of XC)
    Density eval.           ....       0.001 sec  (  0.8% of XC)
    XC-Functional eval.     ....       0.007 sec  (  4.9% of XC)
    XC-Potential eval.      ....       0.001 sec  (  0.7% of XC)
Diagonalization             ....       0.000 sec  (  0.0%)
Density matrix formation    ....       0.035 sec  (  7.4%)
Total Energy calculation    ....       0.008 sec  (  1.7%)
Population analysis         ....       0.008 sec  (  1.7%)
Orbital Transformation      ....       0.014 sec  (  3.0%)
Orbital Orthonormalization  ....       0.000 sec  (  0.0%)
DIIS solution               ....       0.023 sec  (  4.9%)
SOSCF solution              ....       0.044 sec  (  9.4%)
Finished LeanSCF after   0.5 sec

Maximum memory used throughout the entire LEANSCF-calculation: 4.3 MB


           ************************************************************
           *        Program running with 8 parallel MPI-processes     *
           *              working on a common directory               *
           ************************************************************

------------------------------------------------------------------------------
                         ORCA PROPERTY INTEGRAL CALCULATIONS
------------------------------------------------------------------------------

GBWName                                   ... /cluster/projects/nn14654k/ylvaos/basis_set_n_funcs/functionals/gga_x_pw91/SiH2/inp/SiH2_gga_x_pw91_pcseg0.gbw
Number of atoms                           ...      3
Number of basis functions                 ...     17
Max core memory                           ...   4096 MB

Dipole integrals                          ... YES
Quadrupole integrals                      ... YES
Linear momentum integrals                 ...  NO
Angular momentum integrals                ...  NO
Higher moments length integrals           ...  NO
Higher moments velocity integrals         ...  NO
Kinetic energy integrals                  ...  NO
GIAO right hand sides                     ...  NO
GIAO dipole derivative integrals          ...  NO
SOC integrals                             ...  NO
EPR diamagnetic integrals (GIAO)          ...  NO
EPR gauge integrals                       ...  NO
Field gradient integrals                  ...  NO (   0 nuclei)
Spin-dipole/Fermi contact integrals       ...  NO (   0 nuclei)
Contact density integrals                 ...  NO (   0 nuclei)
Nucleus-orbit integrals                   ...  NO (   0 nuclei)
Geometric perturbations                   ...  NO (   3 nuclei)

Choice of electric origin   ... Center of mass
Position of electric origin ... (  0.0000,  0.0958, -0.0925) 
Choice of magnetic origin   ... GIAO
Position of magnetic origin ... (  0.0000,  0.0000,  0.0000) 

Calculating integrals                     ... Electric Dipole (Length)     done (  0.0 sec)
Calculating integrals                     ... Electric Quadrupole (Length) done (  0.0 sec)

Property integrals calculated in   0.0 sec

Maximum memory used throughout the entire PROPINT-calculation: 2.2 MB
------------------------------------------------------------------------------
                           ORCA ORBITAL LOCALIZATION
------------------------------------------------------------------------------

Input orbitals are from                  ... /cluster/projects/nn14654k/ylvaos/basis_set_n_funcs/functionals/gga_x_pw91/SiH2/inp/SiH2_gga_x_pw91_pcseg0.gbw
Output orbitals are to                   ... /cluster/projects/nn14654k/ylvaos/basis_set_n_funcs/functionals/gga_x_pw91/SiH2/inp/SiH2_gga_x_pw91_pcseg0.loc
Max. number of iterations                ... 128
Localizations seeded randomly            ... on
Convergence tolerance                    ... 1.000e-06
Threshold for strong local MOs           ... 9.500e-01
Threshold for bond MOs                   ... 8.500e-01
Operator                                 ... 0
Orbital range for localization           ... 1 to 7
Localization criterion                   ... NEW-BOYS
Doing the dipole integrals               ... o.k.
Initial value of the localization sum :     4.546515
ITERATION   0 : L=   10.2098781967 DL=  5.66e+00 (AVERGE_DL)=    0.5193110622 
ITERATION   1 : L=   10.6811262802 DL=  4.71e-01 (AVERGE_DL)=    0.1498011513 
ITERATION   2 : L=   10.6873631404 DL=  6.24e-03 (AVERGE_DL)=    0.0172334948 
ITERATION   3 : L=   10.6873885408 DL=  2.54e-05 (AVERGE_DL)=    0.0010997933 
ITERATION   4 : L=   10.6874019945 DL=  1.35e-05 (AVERGE_DL)=    0.0008004064 
ITERATION   5 : L=   10.6874142374 DL=  1.22e-05 (AVERGE_DL)=    0.0007635401 
ITERATION   6 : L=   10.6874283222 DL=  1.41e-05 (AVERGE_DL)=    0.0008189662 
ITERATION   7 : L=   10.6874438387 DL=  1.55e-05 (AVERGE_DL)=    0.0008595828 
ITERATION   8 : L=   10.6874611057 DL=  1.73e-05 (AVERGE_DL)=    0.0009067726 
ITERATION   9 : L=   10.6874802472 DL=  1.91e-05 (AVERGE_DL)=    0.0009547261 
ITERATION  10 : L=   10.6875014486 DL=  2.12e-05 (AVERGE_DL)=    0.0010047832 
ITERATION  11 : L=   10.6875248881 DL=  2.34e-05 (AVERGE_DL)=    0.0010564887 
ITERATION  12 : L=   10.6875507535 DL=  2.59e-05 (AVERGE_DL)=    0.0011098117 
ITERATION  13 : L=   10.6875792333 DL=  2.85e-05 (AVERGE_DL)=    0.0011645521 
ITERATION  14 : L=   10.6876105160 DL=  3.13e-05 (AVERGE_DL)=    0.0012205134 
ITERATION  15 : L=   10.6876447848 DL=  3.43e-05 (AVERGE_DL)=    0.0012774383 
ITERATION  16 : L=   10.6876822131 DL=  3.74e-05 (AVERGE_DL)=    0.0013350273 
ITERATION  17 : L=   10.6877229583 DL=  4.07e-05 (AVERGE_DL)=    0.0013929285 
ITERATION  18 : L=   10.6877671557 DL=  4.42e-05 (AVERGE_DL)=    0.0014507376 
ITERATION  19 : L=   10.6878149109 DL=  4.78e-05 (AVERGE_DL)=    0.0015079965 
ITERATION  20 : L=   10.6878662918 DL=  5.14e-05 (AVERGE_DL)=    0.0015641972 
ITERATION  21 : L=   10.6879213216 DL=  5.50e-05 (AVERGE_DL)=    0.0016187855 
ITERATION  22 : L=   10.6879799705 DL=  5.86e-05 (AVERGE_DL)=    0.0016711682 
ITERATION  23 : L=   10.6880421489 DL=  6.22e-05 (AVERGE_DL)=    0.0017207193 
ITERATION  24 : L=   10.6881077018 DL=  6.56e-05 (AVERGE_DL)=    0.0017667957 
ITERATION  25 : L=   10.6881764051 DL=  6.87e-05 (AVERGE_DL)=    0.0018087523 
ITERATION  26 : L=   10.6882479638 DL=  7.16e-05 (AVERGE_DL)=    0.0018459578 
ITERATION  27 : L=   10.6883220138 DL=  7.40e-05 (AVERGE_DL)=    0.0018778150 
ITERATION  28 : L=   10.6883981257 DL=  7.61e-05 (AVERGE_DL)=    0.0019037800 
ITERATION  29 : L=   10.6884758134 DL=  7.77e-05 (AVERGE_DL)=    0.0019233855 
ITERATION  30 : L=   10.6885545439 DL=  7.87e-05 (AVERGE_DL)=    0.0019362518 
ITERATION  31 : L=   10.6886337516 DL=  7.92e-05 (AVERGE_DL)=    0.0019421117 
ITERATION  32 : L=   10.6887128538 DL=  7.91e-05 (AVERGE_DL)=    0.0019408174 
ITERATION  33 : L=   10.6887912671 DL=  7.84e-05 (AVERGE_DL)=    0.0019323475 
ITERATION  34 : L=   10.6888684246 DL=  7.72e-05 (AVERGE_DL)=    0.0019168105 
ITERATION  35 : L=   10.6889437917 DL=  7.54e-05 (AVERGE_DL)=    0.0018944423 
ITERATION  36 : L=   10.6890168808 DL=  7.31e-05 (AVERGE_DL)=    0.0018655917 
ITERATION  37 : L=   10.6890872625 DL=  7.04e-05 (AVERGE_DL)=    0.0018307130 
ITERATION  38 : L=   10.6891545744 DL=  6.73e-05 (AVERGE_DL)=    0.0017903433 
ITERATION  39 : L=   10.6892185264 DL=  6.40e-05 (AVERGE_DL)=    0.0017450889 
ITERATION  40 : L=   10.6892789023 DL=  6.04e-05 (AVERGE_DL)=    0.0016955939 
ITERATION  41 : L=   10.6893355586 DL=  5.67e-05 (AVERGE_DL)=    0.0016425357 
ITERATION  42 : L=   10.6893884212 DL=  5.29e-05 (AVERGE_DL)=    0.0015865889 
ITERATION  43 : L=   10.6894374783 DL=  4.91e-05 (AVERGE_DL)=    0.0015284145 
ITERATION  44 : L=   10.6894827731 DL=  4.53e-05 (AVERGE_DL)=    0.0014686380 
ITERATION  45 : L=   10.6895243968 DL=  4.16e-05 (AVERGE_DL)=    0.0014078635 
ITERATION  46 : L=   10.6895624785 DL=  3.81e-05 (AVERGE_DL)=    0.0013466317 
ITERATION  47 : L=   10.6895971777 DL=  3.47e-05 (AVERGE_DL)=    0.0012854332 
ITERATION  48 : L=   10.6896286754 DL=  3.15e-05 (AVERGE_DL)=    0.0012247011 
ITERATION  49 : L=   10.6896571681 DL=  2.85e-05 (AVERGE_DL)=    0.0011648155 
ITERATION  50 : L=   10.6896828598 DL=  2.57e-05 (AVERGE_DL)=    0.0011060795 
ITERATION  51 : L=   10.6897059587 DL=  2.31e-05 (AVERGE_DL)=    0.0010487841 
ITERATION  52 : L=   10.6897266705 DL=  2.07e-05 (AVERGE_DL)=    0.0009931142 
ITERATION  53 : L=   10.6897451970 DL=  1.85e-05 (AVERGE_DL)=    0.0009392632 
ITERATION  54 : L=   10.6897617318 DL=  1.65e-05 (AVERGE_DL)=    0.0008873396 
ITERATION  55 : L=   10.6897764593 DL=  1.47e-05 (AVERGE_DL)=    0.0008374419 
ITERATION  56 : L=   10.6897895527 DL=  1.31e-05 (AVERGE_DL)=    0.0007896191 
ITERATION  57 : L=   10.6898011745 DL=  1.16e-05 (AVERGE_DL)=    0.0007439190 
ITERATION  58 : L=   10.6898114742 DL=  1.03e-05 (AVERGE_DL)=    0.0007003298 
ITERATION  59 : L=   10.6898205898 DL=  9.12e-06 (AVERGE_DL)=    0.0006588450 
ITERATION  60 : L=   10.6898286478 DL=  8.06e-06 (AVERGE_DL)=    0.0006194465 
ITERATION  61 : L=   10.6898357624 DL=  7.11e-06 (AVERGE_DL)=    0.0005820577 
ITERATION  62 : L=   10.6898420384 DL=  6.28e-06 (AVERGE_DL)=    0.0005466803 
ITERATION  63 : L=   10.6898475693 DL=  5.53e-06 (AVERGE_DL)=    0.0005132007 
ITERATION  64 : L=   10.6898524399 DL=  4.87e-06 (AVERGE_DL)=    0.0004815958 
ITERATION  65 : L=   10.6898567259 DL=  4.29e-06 (AVERGE_DL)=    0.0004517690 
ITERATION  66 : L=   10.6898604951 DL=  3.77e-06 (AVERGE_DL)=    0.0004236539 
ITERATION  67 : L=   10.6898638076 DL=  3.31e-06 (AVERGE_DL)=    0.0003971671 
ITERATION  68 : L=   10.6898667178 DL=  2.91e-06 (AVERGE_DL)=    0.0003722620 
ITERATION  69 : L=   10.6898692731 DL=  2.56e-06 (AVERGE_DL)=    0.0003488279 
ITERATION  70 : L=   10.6898715161 DL=  2.24e-06 (AVERGE_DL)=    0.0003268182 
ITERATION  71 : L=   10.6898734842 DL=  1.97e-06 (AVERGE_DL)=    0.0003061347 
ITERATION  72 : L=   10.6898752108 DL=  1.73e-06 (AVERGE_DL)=    0.0002867369 
ITERATION  73 : L=   10.6898767250 DL=  1.51e-06 (AVERGE_DL)=    0.0002685294 
ITERATION  74 : L=   10.6898780529 DL=  1.33e-06 (AVERGE_DL)=    0.0002514600 
ITERATION  75 : L=   10.6898792172 DL=  1.16e-06 (AVERGE_DL)=    0.0002354600 
ITERATION  76 : L=   10.6898802378 DL=  1.02e-06 (AVERGE_DL)=    0.0002204587 
ITERATION  77 : L=   10.6898811327 DL=  8.95e-07 (AVERGE_DL)=    0.0002064250 
LOCALIZATION SUM CONVERGED


--------------------------------------------------------------------------------
                    LOCALIZED MOLECULAR ORBITAL COMPOSITIONS
--------------------------------------------------------------------------------

The Mulliken populations for each LMO on each atom are computed
The LMO`s will be ordered according to atom index and type
  (A) Strongly localized MO`s have populations of >=0.950 on one atom
  (B) Two center bond orbitals have populations of >=0.850 on two atoms
  (C) Other MO`s are considered to be `delocalized`

FOUND  -   5 strongly local MO`s
       -   2 two center bond MO`s
       -   0 significantly delocalized MO`s

Rather strongly localized orbitals:
MO   5:   0Si -   1.000474
MO   4:   0Si -   0.998997
MO   3:   0Si -   1.000651
MO   2:   0Si -   1.000555
MO   1:   0Si -   1.027690
Bond-like localized orbitals:
MO   7:   2H  -   0.587944  and   0Si -   0.423146
MO   6:   1H  -   0.587954  and   0Si -   0.423136
Localized MO's were stored in: /cluster/projects/nn14654k/ylvaos/basis_set_n_funcs/functionals/gga_x_pw91/SiH2/inp/SiH2_gga_x_pw91_pcseg0.loc

-------------------------   --------------------
FINAL SINGLE POINT ENERGY      -289.633824979042
-------------------------   --------------------



           ************************************************************
           *        Program running with 8 parallel MPI-processes     *
           *              working on a common directory               *
           ************************************************************

------------------------------------------------------------------------------
                              ORCA PROPERTY CALCULATIONS
------------------------------------------------------------------------------

GBWName                                 ... /cluster/projects/nn14654k/ylvaos/basis_set_n_funcs/functionals/gga_x_pw91/SiH2/inp/SiH2_gga_x_pw91_pcseg0.gbw
Number of atoms                         ...      3
Number of basis functions               ...     17
Max core memory                         ...   4096 MB

Electric properties:
Dipole moment                           ... YES
Quadrupole moment                       ... YES
Static polarizability (Dipole/Dipole)   ...  NO
Static polarizability (Dipole/Quad.)    ...  NO
Static polarizability (Quad./Quad.)     ...  NO
Static polarizability (Velocity)        ...  NO
Static hyperpolarizability              ...  NO

Atomic electric properties:
Dipole moment                           ...  NO
Quadrupole moment                       ...  NO
Static polarizability                   ...  NO

Choice of electric origin               ... Center of mass
Position of electric origin             ...     0.000000     0.095755    -0.092471

General magnetic properties:
Magnetizability                         ...  NO

EPR properties:
g-Tensor (aka g-matrix)                 ...  NO
Zero-Field splitting spin-orbit         ...  NO
Zero-field splitting spin-spin          ...  NO
Hyperfine couplings                     ...  NO (   0 nuclei)
Quadrupole couplings                    ...  NO (   0 nuclei)
Contact density                         ...  NO (   0 nuclei)

NMR properties:
Chemical shifts                         ...  NO (   0 nuclei)
Spin-rotation constants                 ...  NO (   0 nuclei)
Spin-spin couplings                     ...  NO (   0 nuclei,    0 pairs)

Choice of magnetic origin               ... GIAO
Position of magnetic origin             ...     0.000000     0.000000     0.000000

Properties with geometric perturbations:
SCF Hessian                             ...  NO
IR spectrum                             ...  NO
VCD spectrum                            ...  NO
X-ray spectroscopy properties:
SCF XES/XAS/RIXS spectra                ...  NO

SCF SOC stabilization energy            ...  NO
Diagonal Born-Oppenheimer correction    ...  NO

-------------
DIPOLE MOMENT
-------------

Method             : SCF
Type of density    : Electron Density
Multiplicity       :   1
Irrep              :   0
Energy             :  -289.6338249790419468 Eh
Basis              : AO
                                X                 Y                 Z
Electronic contribution:      0.000000001      -1.157070430       1.117372504
Nuclear contribution   :      0.000000000       1.327457389      -1.281928022
                        -----------------------------------------
Total Dipole Moment    :      0.000000001       0.170386959      -0.164555518
                        -----------------------------------------
Magnitude (a.u.)       :      0.236875989
Magnitude (Debye)      :      0.602090916



--------------------
Rotational spectrum 
--------------------
 
Rotational constants in cm-1:             8.101050             7.049111             3.769280 
Rotational constants in MHz :        242863.361200        211327.036298        113000.174884 

Dipole components along the rotational axes: 
x,y,z [a.u.] :    -0.000016    -0.236876     0.000000 
x,y,z [Debye]:    -0.000041    -0.602091     0.000000 

 

Dipole moment calculation done in   0.0 sec 

-----------------
QUADRUPOLE MOMENT
-----------------

Method             : SCF
Type of density    : Electron Density
Multiplicity       :   1
Irrep              :   0
Energy             :  -289.6338249790419468 Eh
Basis              : AO

                XX              YY              ZZ              XY              XZ              YZ
  NUC        0.000000000     7.776008003     7.822723490     0.000000000     0.000000000     0.672490579
  EL        -9.253321171   -21.225133853   -21.227766534    -0.000000001     0.000000001    -0.040960679
  TOT       -9.253321171   -13.449125850   -13.405043045    -0.000000001     0.000000001     0.631529900 (a.u.)
           -12.446033438   -18.089534228   -18.030241348    -0.000000002     0.000000001     0.849429314 (Buckingham)

diagonalized tensor:
           -14.058998870   -12.795170024    -9.253321171 (a.u.)
           -18.909834298   -17.209941277   -12.446033438 (Buckingham)
            -8.163693881    -3.064014818    11.227708699 (traceless form in Buckingham)

            -0.000000000     0.000000000     1.000000000
            -0.719333150     0.694665257    -0.000000000
             0.694665257     0.719333150     0.000000000
        
Isotropic quadrupole :   -12.035830022

Quadrupole moment calculation done in   0.0 sec (  0.0 sec for integrals)

Maximum memory used throughout the entire PROP-calculation: 0.9 MB

--------------------------------
SUGGESTED CITATIONS FOR THIS RUN
--------------------------------

Below you find a list of papers that are relevant to this ORCA run
We neither can nor want to force you to cite these papers, but we appreciate if you do
You receive ORCA, which is the product of decades of hard work by many enthusiastic individuals, for free
The only thing we kindly ask in return is that you cite our papers,
We deeply appreciate it, if you show your appreciation for ORCA by not just citing the generic ORCA reference.

Please note that relegating all ORCA citations to the supporting information does *not* help us.
SI sections are not indexed - citations you put there will not count into any citation statistics
But we need these citations in order to attract the funding resources that allow us to do what we are doing

Therefore, if you are a happy ORCA user, please consider citing a few of the papers listed below in the main body of your paper

In addition to the list printed below, the program has created the file /cluster/projects/nn14654k/ylvaos/basis_set_n_funcs/functionals/gga_x_pw91/SiH2/inp/SiH2_gga_x_pw91_pcseg0.bibtex that contains the list in bibtex format
You can import this file easily into all common literature databanks and citation aid programs

It goes without saying that in many instances, there are alternative algorithms to achieve similar
results as the ones you have gotten from ORCA. It is, of course, also the case that in some instances
ORCA just re-implements algorithms worked out by others. We are fully aware of that and we are also
fully appreciative of our colleagues work. Hence this citation list should not be read as indicating
that the listed papers, which are focused on our own work, are the only ones worth citing. It simply
meant to make it easier for users to cite ORCA specific papers. It is not a substitute for doing your
own literature research and citing the relevant literature in a scientifically appropriate manner.

List of essential papers. We consider these as the minimum necessary citations

  1. Neese, F.
     Software update: the ORCA program system, version 6.0
     WIRES Comput. Molec. Sci. 2025 15(1), e70019
     doi.org/10.1002/wcms.70019

List of papers to cite with high priority. The work reported in these papers was absolutely
necessary for this run to complete.
Our perspective: the developers of density functionals and basis sets usually get cited in chemistry papers
Good! But without the algorithms to do something with them, the functionals or basis sets would not do anything.
Hence, in our opinion, the algorithm design and method developments papers are equally worthy of getting cited

  1. Lehtola, S.; Steigemann, C.; Oliveira, M.; Marques, M.
     Recent developments in Libxc - A comprehensive library of functionals for density functional theory
     Software X 2018 7 , 
     doi.org/10.1016/j.softx.2017.11.002
  2. Neese, F.
     The SHARK Integral Generation and Digestion System
     J. Comp. Chem. 2022 44(3), 381
     doi.org/10.1002/jcc.26942

List of suggested additional citations. These are papers that are important in the 'surrounding' of 
of this run, or papers that preceded the highly important papers. If you like your results we are grateful for a citation.

  1. Neese, F.
     The ORCA program system
     WIRES Comput. Molec. Sci. 2012 2(1), 73-78
     doi.org/10.1002/wcms.81
  2. Neese, F.
     Software update: the ORCA program system, version 4.0
     WIRES Comput. Molec. Sci. 2018 8(1), 1-6
     doi.org/10.1002/wcms.1327
  3. Neese, F.; Wennmohs, F.; Becker, U.; Riplinger, C.
     The ORCA quantum chemistry program package
     J. Chem. Phys. 2020 152(22), 224108
     doi.org/10.1063/5.0004608
  4. Neese, F.
     Software update: The ORCA program system—Version 5.0
     WIRES Comput. Molec. Sci. 2022 12(1), e1606
     doi.org/10.1002/wcms.1606

List of optional additional citations

  1. Neese, F.
     Approximate second-order SCF convergence for spin unrestricted wavefunctions
     Chem. Phys. Lett. 2000 325(1-3), 93-98
     doi.org/10.1016/s0009-2614(00)00662-x

Timings for individual modules:

Sum of individual times          ...        1.843 sec (=   0.031 min)
Startup calculation              ...        0.381 sec (=   0.006 min)  20.7 %
SCF iterations                   ...        0.995 sec (=   0.017 min)  54.0 %
Property integrals               ...        0.240 sec (=   0.004 min)  13.0 %
Property calculations            ...        0.223 sec (=   0.004 min)  12.1 %
Orbital localization             ...        0.003 sec (=   0.000 min)   0.2 %
                             ****ORCA TERMINATED NORMALLY****
TOTAL RUN TIME: 0 days 0 hours 0 minutes 2 seconds 468 msec
