
                                 *****************
                                 * O   R   C   A *
                                 *****************

                                            #,                                       
                                            ###                                      
                                            ####                                     
                                            #####                                    
                                            ######                                   
                                           ########,                                 
                                     ,,################,,,,,                         
                               ,,#################################,,                 
                          ,,##########################################,,             
                       ,#########################################, ''#####,          
                    ,#############################################,,   '####,        
                  ,##################################################,,,,####,       
                ,###########''''           ''''###############################       
              ,#####''   ,,,,##########,,,,          '''####'''          '####       
            ,##' ,,,,###########################,,,                        '##       
           ' ,,###''''                  '''############,,,                           
         ,,##''                                '''############,,,,        ,,,,,,###''
      ,#''                                            '''#######################'''  
     '                                                          ''''####''''         
             ,#######,   #######,   ,#######,      ##                                
            ,#'     '#,  ##    ##  ,#'     '#,    #''#        ,####,    ,#,          
            ##       ##  ##   ,#'  ##            #'  '#       #'       ,# #          
            ##       ##  #######   ##           ,######,      #####,      #          
            '#,     ,#'  ##    ##  '#,     ,#' ,#      #,     #,   #      #          
             '#######'   ##     ##  '#######'  #'      '#     '####' #    #          



                #########################################################
                #                        -***-                          #
                #          Department of theory and spectroscopy        #
                #                                                       #
                #                      Frank Neese                      #
                #                                                       #
                #     Directorship, Architecture, Infrastructure        #
                #                    SHARK, DRIVERS                     #
                #        Core code/Algorithms in most modules           #
                #                                                       #
                #        Max Planck Institute fuer Kohlenforschung      #
                #                Kaiser Wilhelm Platz 1                 #
                #                 D-45470 Muelheim/Ruhr                 #
                #                      Germany                          #
                #                                                       #
                #                  All rights reserved                  #
                #                        -***-                          #
                #########################################################


                         Program Version 6.1.1  -  RELEASE   -
                                (GIT: $487d211c$)
                          ($2025-11-21 10:33:24 +0100$)


 With contributions from (in alphabetic order):
[Max-Planck-Institut fuer Kohlenforschung]                               
  Daniel Aravena         : Magnetic Suceptibility                        
  Michael Atanasov       : Ab Initio Ligand Field Theory (pilot matlab implementation)
  Alexander A. Auer      : GIAO ZORA, VPT2 properties, NMR spectrum      
  Ute Becker             : All parallelization in ORCA, NUMFREQ, NUMCALC 
  Giovanni Bistoni       : ED, misc. LED, open-shell LED, HFLD           
  Dmytro Bykov           : pre 5.0 version of the SCF Hessian            
  Marcos Casanova-Páez   : Triplet and SCS-CIS(D). UHF-(DLPNO)-IP/EA/STEOM-CCSD. UHF-CVS-IP/STEOM-CCSD   
  Vijay G. Chilkuri      : MRCI spin determinant printing, contributions to CSF-ICE 
  Pauline Colinet        : FMM embedding                                 
  Dipayan Datta          : RHF DLPNO-CCSD density                        
  Achintya Kumar Dutta   : EOM-CC, STEOM-CC                              
  Nicolas Foglia         : Exact transition moments, OPA infrastructure, MCD improvements    
  Dmitry Ganyushin       : Spin-Orbit,Spin-Spin,Magnetic field MRCI      
  Miquel Garcia-Rates    : C-PCM and meta-GGA Hessian, CCSD/C-PCM, Gaussian charge scheme 
  Tiago L. C. Gouveia    : GS-ROHF, GS-ROCIS                             
  Yang Guo               : DLPNO-NEVPT2, F12-NEVPT2, CIM, IAO-localization        
  Andreas Hansen         : Spin unrestricted coupled pair/coupled cluster methods 
  Ingolf Harden          : AUTO-CI MPn and infrastructure                
  Benjamin Helmich-Paris : MC-RPA, TRAH-(SCF,CASSCF), AVAS, COSX integrals, SCF dyn. polar., MC-PDFT, srDFT 
  Lee Huntington         : MR-EOM, pCC                                   
  Robert Izsak           : Overlap fitted RIJCOSX, COSX-SCS-MP3, EOM     
  Riya Kayal             : Wick's Theorem for AUTO-CI, AUTO-CI UHF-CCSDT 
  Emily Kempfer          : AUTO-CI RHF CISDT and CCSDT, approximate NEVPT4
  Christian Kollmar      : KDIIS, OOCD, Brueckner-CCSD(T), CCSD density, CASPT2, CASPT2-K, improved NEVPT2 
  Axel Koslowski         : Symmetry handling                             
  Simone Kossmann        : meta-GGA functionals, TD-DFT gradient, OOMP2, (MP2 Hessian; deprecated post 5.0) 
  Lucas Lang             : DCDCAS, Hyperfine gauge corrections, ICE-SOC+SSC
  Marvin Lechner         : AUTO-CI (C++ implementation), FIC-MRCC        
  Spencer Leger          : CASSCF response                               
  Dagmar Lenk            : GEPOL surface, SMD, ORCA-2-JSON               
  Dimitrios Liakos       : Extrapolation schemes; Compound Job, Property file
  Dimitrios Manganas     : Further ROCIS development; embedding schemes. LFT, Crystal Embedding 
  Dimitrios Pantazis     : SARC Basis sets                               
  Anastasios Papadopoulos: AUTO-CI, single reference methods and gradients 
  Taras Petrenko         : pre 6.0 DFT Hessian and TD-DFT gradient,  ECA, NRVS 
  Petra Pikulova         : Analytic Raman intensities                    
  Peter Pinski           : DLPNO-MP2, DLPNO-MP2 Gradient                 
  Shashank Vittal Rao    : ES-AILFT, MagRelax                            
  Christoph Reimann      : Effective Core Potentials                     
  Marius Retegan         : Local ZFS, SOC                                
  Christoph Riplinger    : Optimizer, TS searches, QM/MM, DLPNO-CCSD(T), (RO)-DLPNO pert. Triples 
  Michael Roemelt        : Original ROCIS implementation, recursive CI coupling coefficients
  Masaaki Saitow         : Open-shell DLPNO-CCSD energy and density      
  Barbara Sandhoefer     : DKH picture change effects                    
  Yorick L. A. Schmerwitz: GMF and freeze-and-release deltaSCF, NEB S-IDPP initial path                    
  Kantharuban Sivalingam : CASSCF convergence/infrastructure, NEVPT2, NEVPT3, NEVPT4(SD), FIC-MRCI and CEPA variants
  Bernardo de Souza      : ESD, SOC TD-DFT                               
  Georgi L. Stoychev     : AutoAux, RI-MP2 NMR, DLPNO-MP2 response, X2C  
  Van Anh Tran           : RI-MP2 g-tensors                              
  Willem Van den Heuvel  : Paramagnetic NMR                              
  Zikuan Wang            : NOTCH, Electric field optimization            
  Frank Wennmohs         : Technical directorship and infrastructure     
  Hang Xu                : AUTO-CI-Response properties                   
                                                                         
[FACCTs GmbH]                                                            
  Markus Bursch, Nicolas Foglia, Miquel Garcia-Rates, Ingolf Harden, Hagen Neugebauer, Anastasios Papadopoulos, 
  Christoph Riplinger, Bernardo de Souza, Georgi L. Stoychev                                                    
                                                                 
  APM, various basis sets, CI-OPT, improved COSX, DLPNO-Multilevel,           
  DOCKER, DRACO, updates on ESD, Fragmentator, GOAT, IRC, LR-CPCM, L-BFGS, MBIS, meta-GGA TD-DFT gradient, ML-optimized integration grids, 
  MM, NACMEs, nearIR, NEB, NEB-TS, NL-DFT gradient (VV10), 2- and 3-layer-ONIOM, interface openCOSMO-RS, QMMM,   
  Crystal-QMMM, RESP, rigid body optimization, SF, symmetry and pop. for TD-DFT, various functionals, SOLVATOR                                   
                                                                         
[Other institutions]                                                     
  V. Asgeirsson          : NEB                                           
  Christoph Bannwarth    : sTDA-DFT, sTD-DFT, PBEh-3c, B97-3c, D3        
  Giovanni Bistoni       : ETS/NOCV, ADLD/ADEX, COVALED                  
  Martin Brehm           : Molecular dynamics                            
  Ronald Cardenas        : ETS/NOCV                                      
  Martina Colucci        : COVALED                                       
  Sebastian Ehlert       : rSCAN, r2SCAN, r2SCAN-3c, D4, dhf basis sets  
  Marvin Friede          : D4 for Fr, Ra, Ac-Lr                          
  Lars Goerigk           : TD-DFT with DH, B97 family of functionals     
  Stefan Grimme          : VdW corrections, initial TS optimization, DFT functionals, gCP, sTDA/sTD-DF 
  Waldemar Hujo          : DFT-NL                                        
  H. Jonsson             : NEB                                           
  Holger Kruse           : gCP                                           
  Marcel Mueller         : wB97X-3c, vDZP basis set                      
  Hagen Neugebauer       : wr2SCAN, Native XTB                           
  Gianluca Regni         : ADLD/ADEX                                     
  Tobias Risthaus        : pre 6.0 range-separated hybrid DFT and stability analysis
  Lukas Wittmann         : regularized MP2, r2SCAN double-hybrids, wr2SCAN        
                                                                         
We gratefully acknowledge several colleagues who have allowed us to      
interface, adapt or use parts of their codes:                            
  Ed Valeev, F. Pavosevic, A. Kumar             : LibInt (2-el integral package), F12 methods 
  Garnet Chan, S. Sharma, J. Yang, R. Olivares  : DMRG                   
  Ulf Ekstrom                                   : XCFun DFT Library      
  Mihaly Kallay                                 : mrcc  (arbitrary order and MRCC methods)
  Frank Weinhold                                : gennbo (NPA and NBO analysis)           
  Simon Mueller                                 : openCOSMO-RS                            
  Christopher J. Cramer and Donald G. Truhlar   : smd solvation model                     
  S Lehtola, MJT Oliveira, MAL Marques          : LibXC Library                           
  Liviu Ungur et al                             : ANISO software                          


 Your calculation uses the libint2 library for the computation of 2-el integrals
 For citations please refer to: http://libint.valeyev.net

 Your ORCA version has been built with support for libXC version: 7.0.0
 For citations please refer to: https://libxc.gitlab.io

 This ORCA versions uses:
   CBLAS   interface :  Fast vector & matrix operations
   LAPACKE interface :  Fast linear algebra routines
   SCALAPACK package :  Parallel linear algebra routines
   Shared memory     :  Shared parallel matrices
   BLAS/LAPACK       :  OpenBLAS 0.3.29  USE64BITINT DYNAMIC_ARCH NO_AFFINITY Cooperlake SINGLE_THREADED
        Core in use  :  Cooperlake
   Copyright (c) 2011-2014, The OpenBLAS Project


  ***********************************
  * Starting time: Wed May 20 12:36:04 2026
  * Host name:     c1-14
  * Process ID:    1040786
  * Working dir.:  /cluster/projects/nn14654k/ylvaos/basis_set_n_funcs/functionals/gga_x_N12/LiS/out
  ***********************************

Using LibXC functional ID  82 : Minnesota N12 exchange functional
[ 1]  R. Peverati and D. G. Truhlar.,  J. Chem. Theory Comput. 8, 2310 (2012)
Using LibXC functional ID  82 : Minnesota N12 exchange functional
[ 1]  R. Peverati and D. G. Truhlar.,  J. Chem. Theory Comput. 8, 2310 (2012)
Your calculation utilizes LibXC
by S. Lehtola, C. Steigemann, M. J. T. Oliveira & M. A. L. Marques
Please cite in your paper:
Lehtola, S.; Steigemann, C.; Oliveira, M.J.T.; Marques, M. A. L. Software X, 7, (2018), 1.
   

================================================================================

----- Orbital basis set information -----
Your calculation utilizes the basis: def2-QZVP
   F. Weigend and R. Ahlrichs, Phys. Chem. Chem. Phys. 7, 3297 (2005).

================================================================================
                                        WARNINGS
                       Please study these warnings very carefully!
================================================================================


WARNING: your system is open-shell and RHF/RKS was chosen
  ===> : WILL SWITCH to UHF/UKS


================================================================================
                                       INPUT FILE
================================================================================
NAME = /cluster/projects/nn14654k/ylvaos/basis_set_n_funcs/functionals/gga_x_N12/LiS/inp/LiS_gga_x_N12_def2qzvp.inp
|  1> ! dft def2-QZVP TightSCF
|  2> %pal nprocs 8 end
|  3> 
|  4> %loc
|  5>   LocMet NewBoys
|  6>   Occ true
|  7> end
|  8> 
|  9> %method
| 10>   exchange gga_x_N12
| 11>   correlation None
| 12> end
| 13> 
| 14> %elprop
| 15>   Dipole true
| 16>   Quadrupole true
| 17> end
| 18> 
| 19> * xyz 0 2
| 20> Li    0.000000000000   0.000000000000  -1.074850000000
| 21> S    0.000000000000   0.000000000000   1.074850000000
| 22> *
| 23> 
| 24> 
| 25>                          ****END OF INPUT****
================================================================================

                       ****************************
                       * Single Point Calculation *
                       ****************************

---------------------------------
CARTESIAN COORDINATES (ANGSTROEM)
---------------------------------
  Li     0.000000    0.000000   -1.074850
  S      0.000000    0.000000    1.074850

----------------------------
CARTESIAN COORDINATES (A.U.)
----------------------------
  NO LB      ZA    FRAG     MASS         X           Y           Z
   0 Li    3.0000    0     6.941    0.000000    0.000000   -2.031172
   1 S    16.0000    0    32.060    0.000000    0.000000    2.031172

--------------------------------
INTERNAL COORDINATES (ANGSTROEM)
--------------------------------
 Li     0   0   0     0.000000000000     0.00000000     0.00000000
 S      1   0   0     2.149700000000     0.00000000     0.00000000

---------------------------
INTERNAL COORDINATES (A.U.)
---------------------------
 Li     0   0   0     0.000000000000     0.00000000     0.00000000
 S      1   0   0     4.062344270091     0.00000000     0.00000000

---------------------
BASIS SET INFORMATION
---------------------
There are 2 groups of distinct atoms

 Group   1 Type Li  : 15s6p2d1f contracted to 6s4p2d1f pattern {921111/3111/11/1}
 Group   2 Type S   : 20s14p4d2f1g contracted to 9s6p4d2f1g pattern {1031111111/821111/1111/11/1}

Atom   0Li   basis set group =>   1
Atom   1S    basis set group =>   2


           ************************************************************
           *        Program running with 8 parallel MPI-processes     *
           *              working on a common directory               *
           ************************************************************
------------------------------------------------------------------------------
                             ORCA STARTUP CALCULATIONS
------------------------------------------------------------------------------
------------------------------------------------------------------------------
                   ___                                                        
                  /   \      - P O W E R E D   B Y -                         
                 /     \                                                     
                 |  |  |   _    _      __       _____    __    __             
                 |  |  |  | |  | |    /  \     |  _  \  |  |  /  |          
                  \  \/   | |  | |   /    \    | | | |  |  | /  /          
                 / \  \   | |__| |  /  /\  \   | |_| |  |  |/  /          
                |  |  |   |  __  | /  /__\  \  |    /   |      \           
                |  |  |   | |  | | |   __   |  |    \   |  |\   \          
                \     /   | |  | | |  |  |  |  | |\  \  |  | \   \       
                 \___/    |_|  |_| |__|  |__|  |_| \__\ |__|  \__/        
                                                                              
                      - O R C A' S   B I G   F R I E N D -                    
                                      &                                       
                       - I N T E G R A L  F E E D E R -                       
                                                                              
 v1 FN, 2020, v2 2021, v3 2022-2024                                           
------------------------------------------------------------------------------


----------------------
SHARK INTEGRAL PACKAGE
----------------------

Number of atoms                             ...      2
Number of basis functions                   ...    105
Number of shells                            ...     35
Maximum angular momentum                    ...      4
Integral batch strategy                     ... SHARK/LIBINT Hybrid
RI-J (if used) integral strategy            ... SPLIT-RIJ (Revised 2003 algorithm where possible)
Printlevel                                  ...      1
Contraction scheme used                     ... SEGMENTED contraction
Prescreening option                         ... SCHWARTZ
   Thresh                                   ... 2.500e-11
   Tcut                                     ... 2.500e-12
   Tpresel                                  ... 2.500e-12 
Coulomb Range Separation                    ... NOT USED
Exchange Range Separation                   ... NOT USED
Multipole approximations                    ... NOT USED
Finite Nucleus Model                        ... NOT USED
CABS basis                                  ... NOT available
Auxiliary Coulomb fitting basis             ... NOT available
Auxiliary J/K fitting basis                 ... NOT available
Auxiliary Correlation fitting basis         ... NOT available
Auxiliary 'external' fitting basis          ... NOT available

Checking pre-screening integrals            ... done (  0.0 sec) Dimension = 35
   => SHARK Basis and OBASIS are compatible. Storing Pre-screening
Shell pair information
Shell pair cut-off parameter TPreSel        ...   2.5e-12
Total number of shell pairs                 ...       630
Shell pairs after pre-screening             ...       624
Total number of primitive shell pairs       ...      2262
Primitive shell pairs kept                  ...      1971
          la=0 lb=0:    120 shell pairs
          la=1 lb=0:    145 shell pairs
          la=1 lb=1:     54 shell pairs
          la=2 lb=0:     90 shell pairs
          la=2 lb=1:     60 shell pairs
          la=2 lb=2:     21 shell pairs
          la=3 lb=0:     45 shell pairs
          la=3 lb=1:     30 shell pairs
          la=3 lb=2:     18 shell pairs
          la=3 lb=3:      6 shell pairs
          la=4 lb=0:     15 shell pairs
          la=4 lb=1:     10 shell pairs
          la=4 lb=2:      6 shell pairs
          la=4 lb=3:      3 shell pairs
          la=4 lb=4:      1 shell pairs

Checking whether 4 symmetric matrices of dimension 105 fit in memory
:Max Core in MB      =   4096.00
 MB in use           =      4.03
 MB left             =   4091.97
 MB needed           =      0.17
 Data fit in memory  = YES
Calculating Nuclear repulsion               ... done (  0.0 sec) ENN=     11.815837557985 Eh

Diagonalization of the overlap matrix:
Smallest eigenvalue                        ... 1.354e-03
Time for diagonalization                   ...    0.001 sec
Threshold for overlap eigenvalues          ... 1.000e-07
Number of eigenvalues below threshold      ... 0
Time for construction of square roots      ...    0.001 sec
Total time needed                          ...    0.005 sec

-------------------
DFT GRID GENERATION
-------------------

General Integration Accuracy     IntAcc      ... 4.388
Radial Grid Type                 RadialGrid  ... OptM3 with GC (2021)
Angular Grid (max. ang.)         AngularGrid ... 4 (Lebedev-302)
Angular grid pruning method      GridPruning ... 4 (adaptive)
Weight generation scheme         WeightScheme... mBecke (2022)
Basis function cutoff            BFCut       ... 1.0000e-11
Integration weight cutoff        WCut        ... 1.0000e-14
Partially contracted basis set               ... off
Rotationally invariant grid construction     ... off
Angular grids for H and He will be reduced by one unit

Total number of grid points                  ...    13486
Total number of batches                      ...      212
Average number of points per batch           ...       63
Average number of grid points per atom       ...     6743
Grids setup in   0.0 sec
Initializing property integral containers    ... done (  0.0 sec)

SHARK setup successfully completed in   0.1 seconds

Maximum memory used throughout the entire STARTUP-calculation: 33.3 MB


           ************************************************************
           *        Program running with 8 parallel MPI-processes     *
           *              working on a common directory               *
           ************************************************************
-------------------------------------------------------------------------------
                                 ORCA GUESS
                   Start orbitals & Density for SCF / CASSCF
-------------------------------------------------------------------------------

------------
SCF SETTINGS
------------
Hamiltonian:
 Density Functional     Method          .... DFT(GTOs)
  Functional kind                       .... Exchange
  Functional name                       .... Minnesota N12 exchange functional
  Functional family                     .... GGA
  Functional refs                              
    [ 0] R. Peverati and D. G. Truhlar.,  J. Chem. Theory Comput. 8, 2310 (2012), doi: 10.1021/ct3002656
  Functional external parameters        .... 16
    Parameter  0 _CC00      =  1.000000e+00 : _CC00               
    Parameter  1 _CC01      =  5.078800e-01 : _CC01               
    Parameter  2 _CC02      =  1.682330e-01 : _CC02               
    Parameter  3 _CC03      =  1.288870e-01 : _CC03               
    Parameter  4 _CC10      =  8.602110e-02 : _CC10               
    Parameter  5 _CC11      = -1.710080e+01 : _CC11               
    Parameter  6 _CC12      =  6.508140e+01 : _CC12               
    Parameter  7 _CC13      = -7.017260e+01 : _CC13               
    Parameter  8 _CC20      = -3.907550e-01 : _CC20               
    Parameter  9 _CC21      =  5.133920e+01 : _CC21               
    Parameter 10 _CC22      = -1.662200e+02 : _CC22               
    Parameter 11 _CC23      =  1.427380e+02 : _CC23               
    Parameter 12 _CC30      =  4.036110e-01 : _CC30               
    Parameter 13 _CC31      = -3.446310e+01 : _CC31               
    Parameter 14 _CC32      =  7.616610e+01 : _CC32               
    Parameter 15 _CC33      = -2.418340e+00 : _CC33               
 Correlation Functional Correlation     .... No Correlation
 Gradients option       PostSCFGGA      .... off


General Settings:
 Integral files         IntName         .... /cluster/projects/nn14654k/ylvaos/basis_set_n_funcs/functionals/gga_x_N12/LiS/inp/LiS_gga_x_N12_def2qzvp
 Hartree-Fock type      HFTyp           .... UHF
 Total Charge           Charge          ....    0
 Multiplicity           Mult            ....    2
 Number of Electrons    NEL             ....   19
 Basis Dimension        Dim             ....  105
 Nuclear Repulsion      ENuc            ....     11.8158375580 Eh

Convergence Acceleration:
 AO-DIIS                CNVDIIS         .... on
   Start iteration      DIISMaxIt       ....    12
   Startup error        DIISStart       ....  0.200000
   # of expansion vecs  DIISMaxEq       ....     5
   Bias factor          DIISBfac        ....   1.050
   Max. coefficient     DIISMaxC        ....  10.000
 MO-DIIS                CNVKDIIS        .... off
 Trust-Rad. Augm. Hess. CNVTRAH         .... auto
   Auto Start mean grad. ratio tolernc. ....  1.125000
   Auto Start start iteration           ....    50
   Auto Start num. interpolation iter.  ....    10
   Max. Number of Micro iterations      ....    24
   Max. Number of Macro iterations      .... Maxiter - #DIIS iter
   Number of Davidson start vectors     ....     2
   Converg. threshold    (grad. norm)   ....   1.000e-05
   Grad. Scal. Fac. for Micro threshold ....   0.100
   Minimum threshold for Micro iter.    ....   1.000e-02
   NR start threshold (gradient norm)   ....   1.000e-04
   Initial trust radius                 ....   0.400
   Minimum AH scaling param. (alpha)    ....   1.000
   Maximum AH scaling param. (alpha)    .... 1000.000
   Quad. conv. algorithm                .... NR
   White noise on init. David. guess    .... on
   Maximum white noise                  ....   0.010
   Pseudo random numbers                .... off
   Inactive MOs                         .... canonical
   Orbital update algorithm             .... Taylor
   Preconditioner                       .... Diag
   Full preconditioner red. dimension   ....   250
 SOSCF                 CNVSOSCF           .... on
   Start iteration     SOSCFMaxIt         ....   150
   Startup grad/error  SOSCFStart         ....  0.003300
   Hessian update      SOSCFHessUp        .... L-BFGS
   Autom. constraints  SOSCFAutoConstrain .... off
 Level Shifting         CNVShift        .... on
   Level shift para.    LevelShift      ....    0.2500
   Turn off err/grad.   ShiftErr        ....    0.0010
 Zerner damping         CNVZerner       .... off
 Static damping         CNVDamp         .... on
   Fraction old density DampFac         ....    0.7000
   Max. Damping (<1)    DampMax         ....    0.9800
   Min. Damping (>=0)   DampMin         ....    0.0000
   Turn off err/grad.   DampErr         ....    0.1000

SCF Procedure:
 Maximum # iterations   MaxIter         ....   125
 SCF integral mode      SCFMode         .... Direct
   Integral package                     .... SHARK and LIBINT hybrid scheme
 Reset frequency        DirectResetFreq ....    20
 Integral Threshold     Thresh          ....  2.500e-11 Eh
 Primitive CutOff       TCut            ....  2.500e-12 Eh

Convergence Tolerance:
 Convergence Check Mode ConvCheckMode   .... Total+1el-Energy
 Convergence forced     ConvForced      .... 0
 Energy Change          TolE            ....  1.000e-08 Eh
 1-El. energy change                    ....  1.000e-05 Eh
 Orbital Gradient       TolG            ....  1.000e-05
 Orbital Rotation angle TolX            ....  1.000e-05
 DIIS Error             TolErr          ....  5.000e-07

------------------------------
INITIAL GUESS: MODEL POTENTIAL
------------------------------
Loading Hartree-Fock densities                     ... done
Calculating cut-offs                               ... done
Initializing the effective Hamiltonian             ... done
Setting up the integral package (SHARK)            ... done
Starting the Coulomb interaction                   ... done (   0.0 sec)
Making the grid                                    ... done (   0.0 sec)
Mapping shells                                     ... done
Starting the XC term evaluation                    ... done (   0.0 sec)
  promolecular density results
     # of electrons  =     18.999659774
     EX              =    -26.297695348
     EC              =      0.000000000
     EX+EC           =    -26.297695348
Transforming the Hamiltonian                       ... done (   0.0 sec)
Diagonalizing the Hamiltonian                      ... done (   0.0 sec)
Back transforming the eigenvectors                 ... done (   0.0 sec)
Now organizing SCF variables                       ... done
                      ------------------
                      INITIAL GUESS DONE (   0.1 sec)
                      ------------------
             **** ENERGY FILE WAS UPDATED (/cluster/projects/nn14654k/ylvaos/basis_set_n_funcs/functionals/gga_x_N12/LiS/inp/LiS_gga_x_N12_def2qzvp.en.tmp) ****
Finished Guess after   0.1 sec
Maximum memory used throughout the entire GUESS-calculation: 9.7 MB


           ************************************************************
           *        Program running with 8 parallel MPI-processes     *
           *              working on a common directory               *
           ************************************************************

-------------------------------------------------------------------------------------------
                                      ORCA LEAN-SCF
                              memory conserving SCF solver
-------------------------------------------------------------------------------------------

----------------------------------------D-I-I-S--------------------------------------------
Iteration    Energy (Eh)           Delta-E    RMSDP     MaxDP     DIISErr   Damp  Time(sec)
-------------------------------------------------------------------------------------------
               ***  Starting incremental Fock matrix formation  ***
    1    -404.5433493911112350     0.00e+00  2.56e-03  3.00e-02  6.57e-02  0.700   0.2
Warning: op=0 Small HOMO/LUMO gap (   0.026) - skipping pre-diagonalization
         Will do a full diagonalization
    2    -404.5662731482993308    -2.29e-02  2.29e-03  2.16e-02  3.62e-02  0.700   0.2
                               ***Turning on AO-DIIS***
    3    -404.5757719233638454    -9.50e-03  1.11e-03  1.07e-02  1.55e-02  0.700   0.2
    4    -404.5802768566297232    -4.50e-03  2.06e-03  1.95e-02  1.06e-02  0.000   0.2
    5    -404.5912981384539080    -1.10e-02  5.81e-04  5.67e-03  8.28e-03  0.000   0.2
    6    -404.5919853944749889    -6.87e-04  2.36e-04  2.13e-03  3.98e-03  0.000   0.2
                              *** Initializing SOSCF ***
---------------------------------------S-O-S-C-F--------------------------------------
Iteration    Energy (Eh)           Delta-E    RMSDP     MaxDP     MaxGrad    Time(sec)
--------------------------------------------------------------------------------------
    7    -404.5921474809758820    -1.62e-04  1.04e-04  8.33e-04  1.97e-03     0.2
               *** Restarting incremental Fock matrix formation ***
    8    -404.5921855990916356    -3.81e-05  1.80e-04  1.48e-03  1.14e-03     0.2
    9    -404.5921899549126692    -4.36e-06  9.76e-05  7.24e-04  9.98e-04     0.2
   10    -404.5922046660558067    -1.47e-05  3.19e-05  2.36e-04  1.10e-04     0.2
   11    -404.5922050236349037    -3.58e-07  1.36e-05  1.35e-04  6.69e-05     0.2
   12    -404.5922051023752601    -7.87e-08  4.95e-06  3.18e-05  1.83e-05     0.2
   13    -404.5922051148262426    -1.25e-08  2.95e-06  2.25e-05  1.13e-05     0.2
   14    -404.5922051181850634    -3.36e-09  1.01e-06  7.96e-06  8.35e-06     0.2
                 **** Energy Check signals convergence ****

               *****************************************************
               *                     SUCCESS                       *
               *           SCF CONVERGED AFTER  14 CYCLES          *
               *****************************************************

             **** ENERGY FILE WAS UPDATED (/cluster/projects/nn14654k/ylvaos/basis_set_n_funcs/functionals/gga_x_N12/LiS/inp/LiS_gga_x_N12_def2qzvp.en.tmp) ****

----------------
TOTAL SCF ENERGY
----------------

Total Energy       :       -404.59220511858200 Eh          -11009.51361 eV

Components:
Nuclear Repulsion  :         11.81583755798484 Eh             321.52529 eV
Electronic Energy  :       -416.40804267656682 Eh          -11331.03890 eV
One Electron Energy:       -584.85648333113249 Eh          -15914.75400 eV
Two Electron Energy:        168.44844065456567 Eh            4583.71510 eV

Virial components:
Potential Energy   :       -808.61291211623461 Eh          -22003.47597 eV
Kinetic Energy     :        404.02070699765261 Eh           10993.96236 eV
Virial Ratio       :          2.00141452680774

DFT components:
N(Alpha)           :        9.999977959924 electrons
N(Beta)            :        8.999972107397 electrons
N(Total)           :       18.999950067320 electrons
E(X)               :      -26.470203045358 Eh       
E(C)               :        0.000000000000 Eh       
E(XC)              :      -26.470203045358 Eh       

---------------
SCF CONVERGENCE
---------------

  Last Energy change         ...    3.3588e-09  Tolerance :   1.0000e-08
  Last MAX-Density change    ...    7.9644e-06  Tolerance :   1.0000e-07
  Last RMS-Density change    ...    1.0127e-06  Tolerance :   5.0000e-09
  Last DIIS Error            ...    1.9669e-03  Tolerance :   5.0000e-07
  Last Orbital Gradient      ...    8.3544e-06  Tolerance :   1.0000e-05
  Last Orbital Rotation      ...    3.1572e-05  Tolerance :   1.0000e-05


----------------------
UHF SPIN CONTAMINATION
----------------------

Warning: in a DFT calculation there is little theoretical justification to 
         calculate <S**2> as in Hartree-Fock theory. We will do it anyways
         but you should keep in mind that the values have only limited relevance

Expectation value of <S**2>     :     0.759915
Ideal value S*(S+1) for S=0.5   :     0.750000
Deviation                       :     0.009915

----------------
ORBITAL ENERGIES
----------------
                 SPIN UP ORBITALS
  NO   OCC          E(Eh)            E(eV) 
   0   1.0000     -87.779254     -2388.5949 
   1   1.0000      -7.577641      -206.1981 
   2   1.0000      -5.721733      -155.6963 
   3   1.0000      -5.705925      -155.2661 
   4   1.0000      -5.705248      -155.2477 
   5   1.0000      -1.882110       -51.2148 
   6   1.0000      -0.517453       -14.0806 
   7   1.0000      -0.190999        -5.1973 
   8   1.0000      -0.166404        -4.5281 
   9   1.0000      -0.144311        -3.9269 
  10   0.0000      -0.073433        -1.9982 
  11   0.0000      -0.013091        -0.3562 
  12   0.0000      -0.007551        -0.2055 
  13   0.0000       0.011206         0.3049 
  14   0.0000       0.028943         0.7876 
  15   0.0000       0.052882         1.4390 
  16   0.0000       0.057154         1.5552 
  17   0.0000       0.117816         3.2059 
  18   0.0000       0.132124         3.5953 
  19   0.0000       0.133374         3.6293 
  20   0.0000       0.163520         4.4496 

                 SPIN DOWN ORBITALS
  NO   OCC          E(Eh)            E(eV) 
   0   1.0000     -87.771471     -2388.3831 
   1   1.0000      -7.571583      -206.0333 
   2   1.0000      -5.706922      -155.2932 
   3   1.0000      -5.701812      -155.1542 
   4   1.0000      -5.701028      -155.1328 
   5   1.0000      -1.882591       -51.2279 
   6   1.0000      -0.467415       -12.7190 
   7   1.0000      -0.148475        -4.0402 
   8   1.0000      -0.126803        -3.4505 
   9   0.0000      -0.107745        -2.9319 
  10   0.0000      -0.077619        -2.1121 
  11   0.0000      -0.008166        -0.2222 
  12   0.0000      -0.004062        -0.1105 
  13   0.0000       0.014371         0.3910 
  14   0.0000       0.026098         0.7102 
  15   0.0000       0.056524         1.5381 
  16   0.0000       0.056966         1.5501 
  17   0.0000       0.117078         3.1859 
  18   0.0000       0.136514         3.7147 
  19   0.0000       0.137461         3.7405 
*Only the first 10 virtual orbitals were printed.

                    ********************************
                    * MULLIKEN POPULATION ANALYSIS *
                    ********************************

--------------------------------------------
MULLIKEN ATOMIC CHARGES AND SPIN POPULATIONS
--------------------------------------------
   0 Li:    0.374951   -0.020052
   1 S :   -0.374951    1.020052
Sum of atomic charges         :   -0.0000000
Sum of atomic spin populations:    1.0000000

-----------------------------------------------------
MULLIKEN REDUCED ORBITAL CHARGES AND SPIN POPULATIONS
-----------------------------------------------------
CHARGE
  0 Lis       :     2.210010  s :     2.210010
      pz      :     0.173993  p :     0.356254
      px      :     0.146158
      py      :     0.036103
      dz2     :     0.035989  d :     0.054869
      dxz     :     0.012559
      dyz     :     0.006256
      dx2y2   :     0.000065
      dxy     :     0.000000
      f0      :     0.002202  f :     0.003917
      f+1     :     0.001222
      f-1     :     0.000438
      f+2     :     0.000024
      f-2     :     0.000000
      f+3     :     0.000018
      f-3     :     0.000012

  1 S s       :     5.844074  s :     5.844074
      pz      :     3.722442  p :    10.512264
      px      :     3.834518
      py      :     2.955304
      dz2     :     0.008247  d :     0.016192
      dxz     :     0.004293
      dyz     :     0.002032
      dx2y2   :     0.001617
      dxy     :     0.000003
      f0      :     0.001060  f :     0.002359
      f+1     :     0.000449
      f-1     :    -0.000005
      f+2     :     0.000234
      f-2     :     0.000000
      f+3     :     0.000342
      f-3     :     0.000279
      g0      :     0.000034  g :     0.000061
      g+1     :     0.000017
      g-1     :     0.000004
      g+2     :     0.000003
      g-2     :     0.000000
      g+3     :     0.000000
      g-3     :     0.000000
      g+4     :     0.000004
      g-4     :     0.000000


SPIN
  0 Lis       :    -0.028769  s :    -0.028769
      pz      :    -0.007172  p :     0.006030
      px      :    -0.022825
      py      :     0.036026
      dz2     :    -0.002014  d :     0.003504
      dxz     :    -0.000765
      dyz     :     0.006233
      dx2y2   :     0.000049
      dxy     :     0.000000
      f0      :    -0.000472  f :    -0.000816
      f+1     :    -0.000806
      f-1     :     0.000412
      f+2     :     0.000022
      f-2     :     0.000000
      f+3     :     0.000017
      f-3     :     0.000012

  1 S s       :     0.017952  s :     0.017952
      pz      :     0.019353  p :     0.998744
      px      :     0.024806
      py      :     0.954586
      dz2     :     0.000151  d :     0.003028
      dxz     :    -0.000037
      dyz     :     0.002030
      dx2y2   :     0.000883
      dxy     :     0.000001
      f0      :    -0.000145  f :     0.000332
      f+1     :    -0.000213
      f-1     :    -0.000006
      f+2     :     0.000166
      f-2     :     0.000000
      f+3     :     0.000250
      f-3     :     0.000279
      g0      :    -0.000002  g :    -0.000004
      g+1     :    -0.000003
      g-1     :     0.000004
      g+2     :    -0.000001
      g-2     :    -0.000000
      g+3     :     0.000000
      g-3     :     0.000000
      g+4     :    -0.000004
      g-4     :    -0.000000



                     *******************************
                     * LOEWDIN POPULATION ANALYSIS *
                     *******************************

-------------------------------------------
LOEWDIN ATOMIC CHARGES AND SPIN POPULATIONS
-------------------------------------------
   0 Li:   -0.339277    0.109755
   1 S :    0.339277    0.890245

----------------------------------------------------
LOEWDIN REDUCED ORBITAL CHARGES AND SPIN POPULATIONS
----------------------------------------------------
CHARGE
  0 Lis       :     2.257866  s :     2.257866
      pz      :     0.302694  p :     0.573622
      px      :     0.207221
      py      :     0.063708
      dz2     :     0.171507  d :     0.326465
      dxz     :     0.102464
      dyz     :     0.052423
      dx2y2   :     0.000071
      dxy     :     0.000000
      f0      :     0.070575  f :     0.181323
      f+1     :     0.071309
      f-1     :     0.039363
      f+2     :     0.000044
      f-2     :     0.000000
      f+3     :     0.000019
      f-3     :     0.000013

  1 S s       :     5.487684  s :     5.487684
      pz      :     3.690566  p :    10.152569
      px      :     3.617634
      py      :     2.844368
      dz2     :     0.013141  d :     0.015411
      dxz     :     0.000471
      dyz     :     0.000202
      dx2y2   :     0.001595
      dxy     :     0.000003
      f0      :     0.003883  f :     0.004912
      f+1     :     0.000110
      f-1     :     0.000068
      f+2     :     0.000230
      f-2     :     0.000000
      f+3     :     0.000341
      f-3     :     0.000279
      g0      :     0.000135  g :     0.000148
      g+1     :     0.000006
      g-1     :     0.000000
      g+2     :     0.000003
      g-2     :     0.000000
      g+3     :     0.000000
      g-3     :     0.000000
      g+4     :     0.000004
      g-4     :     0.000000


SPIN
  0 Lis       :    -0.023409  s :    -0.023409
      pz      :    -0.002822  p :     0.037051
      px      :    -0.023729
      py      :     0.063602
      dz2     :     0.000883  d :     0.053926
      dxz     :     0.000662
      dyz     :     0.052326
      dx2y2   :     0.000055
      dxy     :     0.000000
      f0      :     0.001289  f :     0.042187
      f+1     :     0.001719
      f-1     :     0.039112
      f+2     :     0.000036
      f-2     :     0.000000
      f+3     :     0.000017
      f-3     :     0.000013

  1 S s       :     0.008568  s :     0.008568
      pz      :     0.014029  p :     0.879651
      px      :     0.021647
      py      :     0.843975
      dz2     :     0.000350  d :     0.001374
      dxz     :    -0.000043
      dyz     :     0.000202
      dx2y2   :     0.000863
      dxy     :     0.000001
      f0      :    -0.000002  f :     0.000663
      f+1     :    -0.000097
      f-1     :     0.000068
      f+2     :     0.000166
      f-2     :     0.000000
      f+3     :     0.000250
      f-3     :     0.000278
      g0      :    -0.000004  g :    -0.000010
      g+1     :    -0.000002
      g-1     :     0.000000
      g+2     :    -0.000001
      g-2     :    -0.000000
      g+3     :     0.000000
      g-3     :     0.000000
      g+4     :    -0.000004
      g-4     :    -0.000000



                      *****************************
                      * MAYER POPULATION ANALYSIS *
                      *****************************

  NA   - Mulliken gross atomic population
  ZA   - Total nuclear charge
  QA   - Mulliken gross atomic charge
  VA   - Mayer's total valence
  BVA  - Mayer's bonded valence
  FA   - Mayer's free valence

  ATOM       NA         ZA         QA         VA         BVA        FA
  0 Li     2.6250     3.0000     0.3750     1.1134     1.1097     0.0037
  1 S     16.3750    16.0000    -0.3750     2.0391     1.1097     0.9294

  Mayer bond orders larger than 0.100000
B(  0-Li,  1-S ) :   1.1097 

-------
TIMINGS
-------

Total SCF time: 0 days 0 hours 0 min 2 sec 

Total time                  ....       2.846 sec
Sum of individual times     ....       2.668 sec  ( 93.8%)

SCF preparation             ....       0.070 sec  (  2.4%)
Fock matrix formation       ....       1.970 sec  ( 69.2%)
  Startup                   ....       0.019 sec  (  1.0% of F)
  Coulomb formation         ....       1.267 sec  ( 64.3% of F)
  XC integration            ....       0.446 sec  ( 22.6% of F)
    XC Preparation          ....       0.000 sec  (  0.0% of XC)
    Basis function eval.    ....       0.026 sec  (  5.8% of XC)
    Density eval.           ....       0.026 sec  (  5.7% of XC)
    XC-Functional eval.     ....       0.009 sec  (  2.1% of XC)
    XC-Potential eval.      ....       0.073 sec  ( 16.3% of XC)
Diagonalization             ....       0.000 sec  (  0.0%)
Density matrix formation    ....       0.120 sec  (  4.2%)
Total Energy calculation    ....       0.038 sec  (  1.3%)
Population analysis         ....       0.013 sec  (  0.5%)
Orbital Transformation      ....       0.023 sec  (  0.8%)
Orbital Orthonormalization  ....       0.000 sec  (  0.0%)
DIIS solution               ....       0.226 sec  (  8.0%)
SOSCF solution              ....       0.208 sec  (  7.3%)
Finished LeanSCF after   2.9 sec

Maximum memory used throughout the entire LEANSCF-calculation: 32.0 MB


           ************************************************************
           *        Program running with 8 parallel MPI-processes     *
           *              working on a common directory               *
           ************************************************************

------------------------------------------------------------------------------
                         ORCA PROPERTY INTEGRAL CALCULATIONS
------------------------------------------------------------------------------

GBWName                                   ... /cluster/projects/nn14654k/ylvaos/basis_set_n_funcs/functionals/gga_x_N12/LiS/inp/LiS_gga_x_N12_def2qzvp.gbw
Number of atoms                           ...      2
Number of basis functions                 ...    105
Max core memory                           ...   4096 MB

Dipole integrals                          ... YES
Quadrupole integrals                      ... YES
Linear momentum integrals                 ...  NO
Angular momentum integrals                ...  NO
Higher moments length integrals           ...  NO
Higher moments velocity integrals         ...  NO
Kinetic energy integrals                  ...  NO
GIAO right hand sides                     ...  NO
GIAO dipole derivative integrals          ...  NO
SOC integrals                             ...  NO
EPR diamagnetic integrals (GIAO)          ...  NO
EPR gauge integrals                       ...  NO
Field gradient integrals                  ...  NO (   0 nuclei)
Spin-dipole/Fermi contact integrals       ...  NO (   0 nuclei)
Contact density integrals                 ...  NO (   0 nuclei)
Nucleus-orbit integrals                   ...  NO (   0 nuclei)
Geometric perturbations                   ...  NO (   2 nuclei)

Choice of electric origin   ... Center of mass
Position of electric origin ... (  0.0000,  0.0000,  1.3082) 
Choice of magnetic origin   ... GIAO
Position of magnetic origin ... (  0.0000,  0.0000,  0.0000) 

Calculating integrals                     ... Electric Dipole (Length)     done (  0.0 sec)
Calculating integrals                     ... Electric Quadrupole (Length) done (  0.0 sec)

Property integrals calculated in   0.0 sec

Maximum memory used throughout the entire PROPINT-calculation: 10.1 MB
------------------------------------------------------------------------------
                           ORCA ORBITAL LOCALIZATION
------------------------------------------------------------------------------

Input orbitals are from                  ... /cluster/projects/nn14654k/ylvaos/basis_set_n_funcs/functionals/gga_x_N12/LiS/inp/LiS_gga_x_N12_def2qzvp.gbw
Output orbitals are to                   ... /cluster/projects/nn14654k/ylvaos/basis_set_n_funcs/functionals/gga_x_N12/LiS/inp/LiS_gga_x_N12_def2qzvp.loc
Max. number of iterations                ... 128
Localizations seeded randomly            ... on
Convergence tolerance                    ... 1.000e-06
Threshold for strong local MOs           ... 9.500e-01
Threshold for bond MOs                   ... 8.500e-01
Operator                                 ... 0
Orbital range for localization           ... 5 to 9
Localization criterion                   ... NEW-BOYS
Doing the dipole integrals               ... o.k.
Initial value of the localization sum :    12.389422
ITERATION   0 : L=   15.4576456683 DL=  3.07e+00 (AVERGE_DL)=    0.5539155036 
ITERATION   1 : L=   15.6764999978 DL=  2.19e-01 (AVERGE_DL)=    0.1479372602 
ITERATION   2 : L=   15.7286171380 DL=  5.21e-02 (AVERGE_DL)=    0.0721922019 
ITERATION   3 : L=   15.7658686409 DL=  3.73e-02 (AVERGE_DL)=    0.0610340093 
ITERATION   4 : L=   15.7818651863 DL=  1.60e-02 (AVERGE_DL)=    0.0399956816 
ITERATION   5 : L=   15.7891239701 DL=  7.26e-03 (AVERGE_DL)=    0.0269421302 
ITERATION   6 : L=   15.7921116164 DL=  2.99e-03 (AVERGE_DL)=    0.0172848092 
ITERATION   7 : L=   15.7934129385 DL=  1.30e-03 (AVERGE_DL)=    0.0114075506 
ITERATION   8 : L=   15.7940567064 DL=  6.44e-04 (AVERGE_DL)=    0.0080235147 
ITERATION   9 : L=   15.7944527581 DL=  3.96e-04 (AVERGE_DL)=    0.0062932640 
ITERATION  10 : L=   15.7947530352 DL=  3.00e-04 (AVERGE_DL)=    0.0054797549 
ITERATION  11 : L=   15.7950112253 DL=  2.58e-04 (AVERGE_DL)=    0.0050812409 
ITERATION  12 : L=   15.7952451133 DL=  2.34e-04 (AVERGE_DL)=    0.0048361965 
ITERATION  13 : L=   15.7954601631 DL=  2.15e-04 (AVERGE_DL)=    0.0046373468 
ITERATION  14 : L=   15.7956580816 DL=  1.98e-04 (AVERGE_DL)=    0.0044488027 
ITERATION  15 : L=   15.7958396988 DL=  1.82e-04 (AVERGE_DL)=    0.0042616572 
ITERATION  16 : L=   15.7960058193 DL=  1.66e-04 (AVERGE_DL)=    0.0040757881 
ITERATION  17 : L=   15.7961573881 DL=  1.52e-04 (AVERGE_DL)=    0.0038931837 
ITERATION  18 : L=   15.7962954601 DL=  1.38e-04 (AVERGE_DL)=    0.0037158036 
ITERATION  19 : L=   15.7964211341 DL=  1.26e-04 (AVERGE_DL)=    0.0035450535 
ITERATION  20 : L=   15.7965354986 DL=  1.14e-04 (AVERGE_DL)=    0.0033817827 
ITERATION  21 : L=   15.7966395953 DL=  1.04e-04 (AVERGE_DL)=    0.0032264009 
ITERATION  22 : L=   15.7967343990 DL=  9.48e-05 (AVERGE_DL)=    0.0030790220 
ITERATION  23 : L=   15.7968208088 DL=  8.64e-05 (AVERGE_DL)=    0.0029395536 
ITERATION  24 : L=   15.7968996454 DL=  7.88e-05 (AVERGE_DL)=    0.0028077856 
ITERATION  25 : L=   15.7969716532 DL=  7.20e-05 (AVERGE_DL)=    0.0026834277 
ITERATION  26 : L=   15.7970375041 DL=  6.59e-05 (AVERGE_DL)=    0.0025661426 
ITERATION  27 : L=   15.7970978026 DL=  6.03e-05 (AVERGE_DL)=    0.0024555755 
ITERATION  28 : L=   15.7971530917 DL=  5.53e-05 (AVERGE_DL)=    0.0023513641 
ITERATION  29 : L=   15.7972038584 DL=  5.08e-05 (AVERGE_DL)=    0.0022531445 
ITERATION  30 : L=   15.7972505384 DL=  4.67e-05 (AVERGE_DL)=    0.0021605573 
ITERATION  31 : L=   15.7972935224 DL=  4.30e-05 (AVERGE_DL)=    0.0020732585 
ITERATION  32 : L=   15.7973331599 DL=  3.96e-05 (AVERGE_DL)=    0.0019909154 
ITERATION  33 : L=   15.7973697636 DL=  3.66e-05 (AVERGE_DL)=    0.0019132110 
ITERATION  34 : L=   15.7974036139 DL=  3.39e-05 (AVERGE_DL)=    0.0018398439 
ITERATION  35 : L=   15.7974349616 DL=  3.13e-05 (AVERGE_DL)=    0.0017705296 
ITERATION  36 : L=   15.7974640319 DL=  2.91e-05 (AVERGE_DL)=    0.0017050000 
ITERATION  37 : L=   15.7974910265 DL=  2.70e-05 (AVERGE_DL)=    0.0016430039 
ITERATION  38 : L=   15.7975161263 DL=  2.51e-05 (AVERGE_DL)=    0.0015842903 
ITERATION  39 : L=   15.7975394955 DL=  2.34e-05 (AVERGE_DL)=    0.0015286995 
ITERATION  40 : L=   15.7975612788 DL=  2.18e-05 (AVERGE_DL)=    0.0014759177 
ITERATION  41 : L=   15.7975816106 DL=  2.03e-05 (AVERGE_DL)=    0.0014258954 
ITERATION  42 : L=   15.7976006079 DL=  1.90e-05 (AVERGE_DL)=    0.0013783066 
ITERATION  43 : L=   15.7976183801 DL=  1.78e-05 (AVERGE_DL)=    0.0013331242 
ITERATION  44 : L=   15.7976350232 DL=  1.66e-05 (AVERGE_DL)=    0.0012900807 
ITERATION  45 : L=   15.7976506266 DL=  1.56e-05 (AVERGE_DL)=    0.0012491354 
ITERATION  46 : L=   15.7976652691 DL=  1.46e-05 (AVERGE_DL)=    0.0012100632 
ITERATION  47 : L=   15.7976790245 DL=  1.38e-05 (AVERGE_DL)=    0.0011728363 
ITERATION  48 : L=   15.7976919580 DL=  1.29e-05 (AVERGE_DL)=    0.0011372524 
ITERATION  49 : L=   15.7977041306 DL=  1.22e-05 (AVERGE_DL)=    0.0011032960 
ITERATION  50 : L=   15.7977155964 DL=  1.15e-05 (AVERGE_DL)=    0.0010707857 
ITERATION  51 : L=   15.7977264065 DL=  1.08e-05 (AVERGE_DL)=    0.0010397158 
ITERATION  52 : L=   15.7977366060 DL=  1.02e-05 (AVERGE_DL)=    0.0010099234 
ITERATION  53 : L=   15.7977462376 DL=  9.63e-06 (AVERGE_DL)=    0.0009814103 
ITERATION  54 : L=   15.7977553393 DL=  9.10e-06 (AVERGE_DL)=    0.0009540297 
ITERATION  55 : L=   15.7977639473 DL=  8.61e-06 (AVERGE_DL)=    0.0009277896 
ITERATION  56 : L=   15.7977720934 DL=  8.15e-06 (AVERGE_DL)=    0.0009025571 
ITERATION  57 : L=   15.7977798084 DL=  7.72e-06 (AVERGE_DL)=    0.0008783540 
ITERATION  58 : L=   15.7977871193 DL=  7.31e-06 (AVERGE_DL)=    0.0008550335 
ITERATION  59 : L=   15.7977940521 DL=  6.93e-06 (AVERGE_DL)=    0.0008326396 
ITERATION  60 : L=   15.7978006301 DL=  6.58e-06 (AVERGE_DL)=    0.0008110478 
ITERATION  61 : L=   15.7978068756 DL=  6.25e-06 (AVERGE_DL)=    0.0007902834 
ITERATION  62 : L=   15.7978128084 DL=  5.93e-06 (AVERGE_DL)=    0.0007702434 
ITERATION  63 : L=   15.7978184472 DL=  5.64e-06 (AVERGE_DL)=    0.0007509253 
ITERATION  64 : L=   15.7978238103 DL=  5.36e-06 (AVERGE_DL)=    0.0007323318 
ITERATION  65 : L=   15.7978289131 DL=  5.10e-06 (AVERGE_DL)=    0.0007143360 
ITERATION  66 : L=   15.7978337707 DL=  4.86e-06 (AVERGE_DL)=    0.0006969638 
ITERATION  67 : L=   15.7978383977 DL=  4.63e-06 (AVERGE_DL)=    0.0006802253 
ITERATION  68 : L=   15.7978428068 DL=  4.41e-06 (AVERGE_DL)=    0.0006640100 
ITERATION  69 : L=   15.7978470100 DL=  4.20e-06 (AVERGE_DL)=    0.0006483161 
ITERATION  70 : L=   15.7978510193 DL=  4.01e-06 (AVERGE_DL)=    0.0006331889 
ITERATION  71 : L=   15.7978548447 DL=  3.83e-06 (AVERGE_DL)=    0.0006184993 
ITERATION  72 : L=   15.7978584963 DL=  3.65e-06 (AVERGE_DL)=    0.0006042857 
ITERATION  73 : L=   15.7978619839 DL=  3.49e-06 (AVERGE_DL)=    0.0005905582 
ITERATION  74 : L=   15.7978653157 DL=  3.33e-06 (AVERGE_DL)=    0.0005772166 
ITERATION  75 : L=   15.7978684999 DL=  3.18e-06 (AVERGE_DL)=    0.0005642910 
ITERATION  76 : L=   15.7978715447 DL=  3.04e-06 (AVERGE_DL)=    0.0005517946 
ITERATION  77 : L=   15.7978744568 DL=  2.91e-06 (AVERGE_DL)=    0.0005396357 
ITERATION  78 : L=   15.7978772429 DL=  2.79e-06 (AVERGE_DL)=    0.0005278440 
ITERATION  79 : L=   15.7978799101 DL=  2.67e-06 (AVERGE_DL)=    0.0005164468 
ITERATION  80 : L=   15.7978824635 DL=  2.55e-06 (AVERGE_DL)=    0.0005053146 
ITERATION  81 : L=   15.7978849092 DL=  2.45e-06 (AVERGE_DL)=    0.0004945380 
ITERATION  82 : L=   15.7978872525 DL=  2.34e-06 (AVERGE_DL)=    0.0004840785 
ITERATION  83 : L=   15.7978894983 DL=  2.25e-06 (AVERGE_DL)=    0.0004738952 
ITERATION  84 : L=   15.7978916513 DL=  2.15e-06 (AVERGE_DL)=    0.0004639991 
ITERATION  85 : L=   15.7978937159 DL=  2.06e-06 (AVERGE_DL)=    0.0004543873 
ITERATION  86 : L=   15.7978956967 DL=  1.98e-06 (AVERGE_DL)=    0.0004450545 
ITERATION  87 : L=   15.7978975972 DL=  1.90e-06 (AVERGE_DL)=    0.0004359467 
ITERATION  88 : L=   15.7978994212 DL=  1.82e-06 (AVERGE_DL)=    0.0004270910 
ITERATION  89 : L=   15.7979011725 DL=  1.75e-06 (AVERGE_DL)=    0.0004184810 
ITERATION  90 : L=   15.7979028544 DL=  1.68e-06 (AVERGE_DL)=    0.0004101128 
ITERATION  91 : L=   15.7979044700 DL=  1.62e-06 (AVERGE_DL)=    0.0004019373 
ITERATION  92 : L=   15.7979060223 DL=  1.55e-06 (AVERGE_DL)=    0.0003939954 
ITERATION  93 : L=   15.7979075140 DL=  1.49e-06 (AVERGE_DL)=    0.0003862321 
ITERATION  94 : L=   15.7979089483 DL=  1.43e-06 (AVERGE_DL)=    0.0003787183 
ITERATION  95 : L=   15.7979103272 DL=  1.38e-06 (AVERGE_DL)=    0.0003713326 
ITERATION  96 : L=   15.7979116534 DL=  1.33e-06 (AVERGE_DL)=    0.0003641726 
ITERATION  97 : L=   15.7979129291 DL=  1.28e-06 (AVERGE_DL)=    0.0003571739 
ITERATION  98 : L=   15.7979141566 DL=  1.23e-06 (AVERGE_DL)=    0.0003503523 
ITERATION  99 : L=   15.7979153382 DL=  1.18e-06 (AVERGE_DL)=    0.0003437390 
ITERATION 100 : L=   15.7979164753 DL=  1.14e-06 (AVERGE_DL)=    0.0003372192 
ITERATION 101 : L=   15.7979175703 DL=  1.09e-06 (AVERGE_DL)=    0.0003308975 
ITERATION 102 : L=   15.7979186247 DL=  1.05e-06 (AVERGE_DL)=    0.0003247122 
ITERATION 103 : L=   15.7979196402 DL=  1.02e-06 (AVERGE_DL)=    0.0003186776 
ITERATION 104 : L=   15.7979206187 DL=  9.79e-07 (AVERGE_DL)=    0.0003128140 
LOCALIZATION SUM CONVERGED


--------------------------------------------------------------------------------
                    LOCALIZED MOLECULAR ORBITAL COMPOSITIONS
--------------------------------------------------------------------------------

The Mulliken populations for each LMO on each atom are computed
The LMO`s will be ordered according to atom index and type
  (A) Strongly localized MO`s have populations of >=0.950 on one atom
  (B) Two center bond orbitals have populations of >=0.850 on two atoms
  (C) Other MO`s are considered to be `delocalized`

FOUND  -   3 strongly local MO`s
       -   2 two center bond MO`s
       -   0 significantly delocalized MO`s

Rather strongly localized orbitals:
MO   7:   1S  -   0.963546
MO   6:   1S  -   0.971893
MO   5:   0Li -   0.994820
Bond-like localized orbitals:
MO   9:   1S  -   0.878199  and   0Li -   0.121801
MO   8:   1S  -   0.878177  and   0Li -   0.121823
Localized MO's were stored in: /cluster/projects/nn14654k/ylvaos/basis_set_n_funcs/functionals/gga_x_N12/LiS/inp/LiS_gga_x_N12_def2qzvp.loc
------------------------------------------------------------------------------
                           ORCA ORBITAL LOCALIZATION
------------------------------------------------------------------------------

Input orbitals are from                  ... /cluster/projects/nn14654k/ylvaos/basis_set_n_funcs/functionals/gga_x_N12/LiS/inp/LiS_gga_x_N12_def2qzvp.loc
Output orbitals are to                   ... /cluster/projects/nn14654k/ylvaos/basis_set_n_funcs/functionals/gga_x_N12/LiS/inp/LiS_gga_x_N12_def2qzvp.loc
Max. number of iterations                ... 128
Localizations seeded randomly            ... on
Convergence tolerance                    ... 1.000e-06
Threshold for strong local MOs           ... 9.500e-01
Threshold for bond MOs                   ... 8.500e-01
Operator                                 ... 1
Orbital range for localization           ... 5 to 8
Localization criterion                   ... NEW-BOYS
Doing the dipole integrals               ... o.k.
Initial value of the localization sum :    11.990740
ITERATION   0 : L=   14.7697670981 DL=  2.78e+00 (AVERGE_DL)=    0.6805667776 
ITERATION   1 : L=   15.0718902855 DL=  3.02e-01 (AVERGE_DL)=    0.2243966679 
ITERATION   2 : L=   15.1736869133 DL=  1.02e-01 (AVERGE_DL)=    0.1302540004 
ITERATION   3 : L=   15.2434380052 DL=  6.98e-02 (AVERGE_DL)=    0.1078201372 
ITERATION   4 : L=   15.2746115188 DL=  3.12e-02 (AVERGE_DL)=    0.0720804107 
ITERATION   5 : L=   15.2873295563 DL=  1.27e-02 (AVERGE_DL)=    0.0460399057 
ITERATION   6 : L=   15.2921254755 DL=  4.80e-03 (AVERGE_DL)=    0.0282722454 
ITERATION   7 : L=   15.2938778898 DL=  1.75e-03 (AVERGE_DL)=    0.0170900279 
ITERATION   8 : L=   15.2945076260 DL=  6.30e-04 (AVERGE_DL)=    0.0102448048 
ITERATION   9 : L=   15.2947320617 DL=  2.24e-04 (AVERGE_DL)=    0.0061160414 
ITERATION  10 : L=   15.2948116966 DL=  7.96e-05 (AVERGE_DL)=    0.0036431409 
ITERATION  11 : L=   15.2948398848 DL=  2.82e-05 (AVERGE_DL)=    0.0021674931 
ITERATION  12 : L=   15.2948498485 DL=  9.96e-06 (AVERGE_DL)=    0.0012886534 
ITERATION  13 : L=   15.2948533677 DL=  3.52e-06 (AVERGE_DL)=    0.0007658543 
ITERATION  14 : L=   15.2948546100 DL=  1.24e-06 (AVERGE_DL)=    0.0004550296 
ITERATION  15 : L=   15.2948550486 DL=  4.39e-07 (AVERGE_DL)=    0.0002703540 
LOCALIZATION SUM CONVERGED


--------------------------------------------------------------------------------
                    LOCALIZED MOLECULAR ORBITAL COMPOSITIONS
--------------------------------------------------------------------------------

The Mulliken populations for each LMO on each atom are computed
The LMO`s will be ordered according to atom index and type
  (A) Strongly localized MO`s have populations of >=0.950 on one atom
  (B) Two center bond orbitals have populations of >=0.850 on two atoms
  (C) Other MO`s are considered to be `delocalized`

FOUND  -   2 strongly local MO`s
       -   2 two center bond MO`s
       -   0 significantly delocalized MO`s

Rather strongly localized orbitals:
MO   6:   1S  -   0.970307
MO   5:   0Li -   0.995098
Bond-like localized orbitals:
MO   8:   1S  -   0.850908  and   0Li -   0.149092
MO   7:   1S  -   0.850985  and   0Li -   0.149015
Localized MO's were stored in: /cluster/projects/nn14654k/ylvaos/basis_set_n_funcs/functionals/gga_x_N12/LiS/inp/LiS_gga_x_N12_def2qzvp.loc

-------------------------   --------------------
FINAL SINGLE POINT ENERGY      -404.592205118582
-------------------------   --------------------



           ************************************************************
           *        Program running with 8 parallel MPI-processes     *
           *              working on a common directory               *
           ************************************************************

------------------------------------------------------------------------------
                              ORCA PROPERTY CALCULATIONS
------------------------------------------------------------------------------

GBWName                                 ... /cluster/projects/nn14654k/ylvaos/basis_set_n_funcs/functionals/gga_x_N12/LiS/inp/LiS_gga_x_N12_def2qzvp.gbw
Number of atoms                         ...      2
Number of basis functions               ...    105
Max core memory                         ...   4096 MB

Electric properties:
Dipole moment                           ... YES
Quadrupole moment                       ... YES
Static polarizability (Dipole/Dipole)   ...  NO
Static polarizability (Dipole/Quad.)    ...  NO
Static polarizability (Quad./Quad.)     ...  NO
Static polarizability (Velocity)        ...  NO
Static hyperpolarizability              ...  NO

Atomic electric properties:
Dipole moment                           ...  NO
Quadrupole moment                       ...  NO
Static polarizability                   ...  NO

Choice of electric origin               ... Center of mass
Position of electric origin             ...     0.000000     0.000000     1.308198

General magnetic properties:
Magnetizability                         ...  NO

EPR properties:
g-Tensor (aka g-matrix)                 ...  NO
Zero-Field splitting spin-orbit         ...  NO
Zero-field splitting spin-spin          ...  NO
Hyperfine couplings                     ...  NO (   0 nuclei)
Quadrupole couplings                    ...  NO (   0 nuclei)
Contact density                         ...  NO (   0 nuclei)

NMR properties:
Chemical shifts                         ...  NO (   0 nuclei)
Spin-rotation constants                 ...  NO (   0 nuclei)
Spin-spin couplings                     ...  NO (   0 nuclei,    0 pairs)

Choice of magnetic origin               ... GIAO
Position of magnetic origin             ...     0.000000     0.000000     0.000000

Properties with geometric perturbations:
SCF Hessian                             ...  NO
IR spectrum                             ...  NO
VCD spectrum                            ...  NO
X-ray spectroscopy properties:
SCF XES/XAS/RIXS spectra                ...  NO

SCF SOC stabilization energy            ...  NO
Diagonal Born-Oppenheimer correction    ...  NO

-------------
DIPOLE MOMENT
-------------

Method             : SCF
Type of density    : Electron Density
Multiplicity       :   2
Irrep              :   0
Energy             :  -404.5922051185820010 Eh
Basis              : AO
                                X                 Y                 Z
Electronic contribution:     -0.000000001      -0.000000000      -4.002347465
Nuclear contribution   :      0.000000000       0.000000000       1.549484202
                        -----------------------------------------
Total Dipole Moment    :     -0.000000001      -0.000000000      -2.452863263
                        -----------------------------------------
Magnitude (a.u.)       :      2.452863263
Magnitude (Debye)      :      6.234682937



--------------------
Rotational spectrum 
--------------------
 
Rotational constants in cm-1:             0.000000             0.639339             0.639339 
Rotational constants in MHz :             0.000000         19166.891897         19166.891897 

Dipole components along the rotational axes: 
x,y,z [a.u.] :    -2.452863    -0.000000    -0.000000 
x,y,z [Debye]:    -6.234683    -0.000000    -0.000000 

 

Dipole moment calculation done in   0.0 sec 

-----------------
QUADRUPOLE MOMENT
-----------------

Method             : SCF
Type of density    : Electron Density
Multiplicity       :   2
Irrep              :   0
Energy             :  -404.5922051185820010 Eh
Basis              : AO

                XX              YY              ZZ              XY              XZ              YZ
  NUC        0.000000000     0.000000000    41.817245673     0.000000000     0.000000000     0.000000000
  EL       -14.924316996   -12.215898209   -46.208769594    -0.055770289    -0.000000000    -0.000000000
  TOT      -14.924316996   -12.215898209    -4.391523921    -0.055770289    -0.000000000    -0.000000000 (a.u.)
           -20.073716771   -16.430800874    -5.906749864    -0.075012946    -0.000000000    -0.000000000 (Buckingham)

diagonalized tensor:
           -14.925464901   -12.214750304    -4.391523921 (a.u.)
           -20.075260742   -16.429256903    -5.906749864 (Buckingham)
           -17.814514718    -6.876503199    24.691017917 (traceless form in Buckingham)

            -0.999788243    -0.020578375    -0.000000000
            -0.020578375     0.999788243    -0.000000000
            -0.000000000     0.000000000     1.000000000
        
Isotropic quadrupole :   -10.510579708

Quadrupole moment calculation done in   0.0 sec (  0.0 sec for integrals)

Maximum memory used throughout the entire PROP-calculation: 4.9 MB

--------------------------------
SUGGESTED CITATIONS FOR THIS RUN
--------------------------------

Below you find a list of papers that are relevant to this ORCA run
We neither can nor want to force you to cite these papers, but we appreciate if you do
You receive ORCA, which is the product of decades of hard work by many enthusiastic individuals, for free
The only thing we kindly ask in return is that you cite our papers,
We deeply appreciate it, if you show your appreciation for ORCA by not just citing the generic ORCA reference.

Please note that relegating all ORCA citations to the supporting information does *not* help us.
SI sections are not indexed - citations you put there will not count into any citation statistics
But we need these citations in order to attract the funding resources that allow us to do what we are doing

Therefore, if you are a happy ORCA user, please consider citing a few of the papers listed below in the main body of your paper

In addition to the list printed below, the program has created the file /cluster/projects/nn14654k/ylvaos/basis_set_n_funcs/functionals/gga_x_N12/LiS/inp/LiS_gga_x_N12_def2qzvp.bibtex that contains the list in bibtex format
You can import this file easily into all common literature databanks and citation aid programs

It goes without saying that in many instances, there are alternative algorithms to achieve similar
results as the ones you have gotten from ORCA. It is, of course, also the case that in some instances
ORCA just re-implements algorithms worked out by others. We are fully aware of that and we are also
fully appreciative of our colleagues work. Hence this citation list should not be read as indicating
that the listed papers, which are focused on our own work, are the only ones worth citing. It simply
meant to make it easier for users to cite ORCA specific papers. It is not a substitute for doing your
own literature research and citing the relevant literature in a scientifically appropriate manner.

List of essential papers. We consider these as the minimum necessary citations

  1. Neese, F.
     Software update: the ORCA program system, version 6.0
     WIRES Comput. Molec. Sci. 2025 15(1), e70019
     doi.org/10.1002/wcms.70019

List of papers to cite with high priority. The work reported in these papers was absolutely
necessary for this run to complete.
Our perspective: the developers of density functionals and basis sets usually get cited in chemistry papers
Good! But without the algorithms to do something with them, the functionals or basis sets would not do anything.
Hence, in our opinion, the algorithm design and method developments papers are equally worthy of getting cited

  1. Lehtola, S.; Steigemann, C.; Oliveira, M.; Marques, M.
     Recent developments in Libxc - A comprehensive library of functionals for density functional theory
     Software X 2018 7 , 
     doi.org/10.1016/j.softx.2017.11.002
  2. Neese, F.
     The SHARK Integral Generation and Digestion System
     J. Comp. Chem. 2022 44(3), 381
     doi.org/10.1002/jcc.26942

List of suggested additional citations. These are papers that are important in the 'surrounding' of 
of this run, or papers that preceded the highly important papers. If you like your results we are grateful for a citation.

  1. Neese, F.
     The ORCA program system
     WIRES Comput. Molec. Sci. 2012 2(1), 73-78
     doi.org/10.1002/wcms.81
  2. Neese, F.
     Software update: the ORCA program system, version 4.0
     WIRES Comput. Molec. Sci. 2018 8(1), 1-6
     doi.org/10.1002/wcms.1327
  3. Neese, F.; Wennmohs, F.; Becker, U.; Riplinger, C.
     The ORCA quantum chemistry program package
     J. Chem. Phys. 2020 152(22), 224108
     doi.org/10.1063/5.0004608
  4. Neese, F.
     Software update: The ORCA program system—Version 5.0
     WIRES Comput. Molec. Sci. 2022 12(1), e1606
     doi.org/10.1002/wcms.1606

List of optional additional citations

  1. Neese, F.
     Approximate second-order SCF convergence for spin unrestricted wavefunctions
     Chem. Phys. Lett. 2000 325(1-3), 93-98
     doi.org/10.1016/s0009-2614(00)00662-x

Timings for individual modules:

Sum of individual times          ...        4.529 sec (=   0.075 min)
Startup calculation              ...        0.424 sec (=   0.007 min)   9.4 %
SCF iterations                   ...        3.433 sec (=   0.057 min)  75.8 %
Property integrals               ...        0.332 sec (=   0.006 min)   7.3 %
Property calculations            ...        0.332 sec (=   0.006 min)   7.3 %
Orbital localization             ...        0.008 sec (=   0.000 min)   0.2 %
                             ****ORCA TERMINATED NORMALLY****
TOTAL RUN TIME: 0 days 0 hours 0 minutes 5 seconds 848 msec
