
                                 *****************
                                 * O   R   C   A *
                                 *****************

                                            #,                                       
                                            ###                                      
                                            ####                                     
                                            #####                                    
                                            ######                                   
                                           ########,                                 
                                     ,,################,,,,,                         
                               ,,#################################,,                 
                          ,,##########################################,,             
                       ,#########################################, ''#####,          
                    ,#############################################,,   '####,        
                  ,##################################################,,,,####,       
                ,###########''''           ''''###############################       
              ,#####''   ,,,,##########,,,,          '''####'''          '####       
            ,##' ,,,,###########################,,,                        '##       
           ' ,,###''''                  '''############,,,                           
         ,,##''                                '''############,,,,        ,,,,,,###''
      ,#''                                            '''#######################'''  
     '                                                          ''''####''''         
             ,#######,   #######,   ,#######,      ##                                
            ,#'     '#,  ##    ##  ,#'     '#,    #''#        ,####,    ,#,          
            ##       ##  ##   ,#'  ##            #'  '#       #'       ,# #          
            ##       ##  #######   ##           ,######,      #####,      #          
            '#,     ,#'  ##    ##  '#,     ,#' ,#      #,     #,   #      #          
             '#######'   ##     ##  '#######'  #'      '#     '####' #    #          



                #########################################################
                #                        -***-                          #
                #          Department of theory and spectroscopy        #
                #                                                       #
                #                      Frank Neese                      #
                #                                                       #
                #     Directorship, Architecture, Infrastructure        #
                #                    SHARK, DRIVERS                     #
                #        Core code/Algorithms in most modules           #
                #                                                       #
                #        Max Planck Institute fuer Kohlenforschung      #
                #                Kaiser Wilhelm Platz 1                 #
                #                 D-45470 Muelheim/Ruhr                 #
                #                      Germany                          #
                #                                                       #
                #                  All rights reserved                  #
                #                        -***-                          #
                #########################################################


                         Program Version 6.1.1  -  RELEASE   -
                                (GIT: $487d211c$)
                          ($2025-11-21 10:33:24 +0100$)


 With contributions from (in alphabetic order):
[Max-Planck-Institut fuer Kohlenforschung]                               
  Daniel Aravena         : Magnetic Suceptibility                        
  Michael Atanasov       : Ab Initio Ligand Field Theory (pilot matlab implementation)
  Alexander A. Auer      : GIAO ZORA, VPT2 properties, NMR spectrum      
  Ute Becker             : All parallelization in ORCA, NUMFREQ, NUMCALC 
  Giovanni Bistoni       : ED, misc. LED, open-shell LED, HFLD           
  Dmytro Bykov           : pre 5.0 version of the SCF Hessian            
  Marcos Casanova-Páez   : Triplet and SCS-CIS(D). UHF-(DLPNO)-IP/EA/STEOM-CCSD. UHF-CVS-IP/STEOM-CCSD   
  Vijay G. Chilkuri      : MRCI spin determinant printing, contributions to CSF-ICE 
  Pauline Colinet        : FMM embedding                                 
  Dipayan Datta          : RHF DLPNO-CCSD density                        
  Achintya Kumar Dutta   : EOM-CC, STEOM-CC                              
  Nicolas Foglia         : Exact transition moments, OPA infrastructure, MCD improvements    
  Dmitry Ganyushin       : Spin-Orbit,Spin-Spin,Magnetic field MRCI      
  Miquel Garcia-Rates    : C-PCM and meta-GGA Hessian, CCSD/C-PCM, Gaussian charge scheme 
  Tiago L. C. Gouveia    : GS-ROHF, GS-ROCIS                             
  Yang Guo               : DLPNO-NEVPT2, F12-NEVPT2, CIM, IAO-localization        
  Andreas Hansen         : Spin unrestricted coupled pair/coupled cluster methods 
  Ingolf Harden          : AUTO-CI MPn and infrastructure                
  Benjamin Helmich-Paris : MC-RPA, TRAH-(SCF,CASSCF), AVAS, COSX integrals, SCF dyn. polar., MC-PDFT, srDFT 
  Lee Huntington         : MR-EOM, pCC                                   
  Robert Izsak           : Overlap fitted RIJCOSX, COSX-SCS-MP3, EOM     
  Riya Kayal             : Wick's Theorem for AUTO-CI, AUTO-CI UHF-CCSDT 
  Emily Kempfer          : AUTO-CI RHF CISDT and CCSDT, approximate NEVPT4
  Christian Kollmar      : KDIIS, OOCD, Brueckner-CCSD(T), CCSD density, CASPT2, CASPT2-K, improved NEVPT2 
  Axel Koslowski         : Symmetry handling                             
  Simone Kossmann        : meta-GGA functionals, TD-DFT gradient, OOMP2, (MP2 Hessian; deprecated post 5.0) 
  Lucas Lang             : DCDCAS, Hyperfine gauge corrections, ICE-SOC+SSC
  Marvin Lechner         : AUTO-CI (C++ implementation), FIC-MRCC        
  Spencer Leger          : CASSCF response                               
  Dagmar Lenk            : GEPOL surface, SMD, ORCA-2-JSON               
  Dimitrios Liakos       : Extrapolation schemes; Compound Job, Property file
  Dimitrios Manganas     : Further ROCIS development; embedding schemes. LFT, Crystal Embedding 
  Dimitrios Pantazis     : SARC Basis sets                               
  Anastasios Papadopoulos: AUTO-CI, single reference methods and gradients 
  Taras Petrenko         : pre 6.0 DFT Hessian and TD-DFT gradient,  ECA, NRVS 
  Petra Pikulova         : Analytic Raman intensities                    
  Peter Pinski           : DLPNO-MP2, DLPNO-MP2 Gradient                 
  Shashank Vittal Rao    : ES-AILFT, MagRelax                            
  Christoph Reimann      : Effective Core Potentials                     
  Marius Retegan         : Local ZFS, SOC                                
  Christoph Riplinger    : Optimizer, TS searches, QM/MM, DLPNO-CCSD(T), (RO)-DLPNO pert. Triples 
  Michael Roemelt        : Original ROCIS implementation, recursive CI coupling coefficients
  Masaaki Saitow         : Open-shell DLPNO-CCSD energy and density      
  Barbara Sandhoefer     : DKH picture change effects                    
  Yorick L. A. Schmerwitz: GMF and freeze-and-release deltaSCF, NEB S-IDPP initial path                    
  Kantharuban Sivalingam : CASSCF convergence/infrastructure, NEVPT2, NEVPT3, NEVPT4(SD), FIC-MRCI and CEPA variants
  Bernardo de Souza      : ESD, SOC TD-DFT                               
  Georgi L. Stoychev     : AutoAux, RI-MP2 NMR, DLPNO-MP2 response, X2C  
  Van Anh Tran           : RI-MP2 g-tensors                              
  Willem Van den Heuvel  : Paramagnetic NMR                              
  Zikuan Wang            : NOTCH, Electric field optimization            
  Frank Wennmohs         : Technical directorship and infrastructure     
  Hang Xu                : AUTO-CI-Response properties                   
                                                                         
[FACCTs GmbH]                                                            
  Markus Bursch, Nicolas Foglia, Miquel Garcia-Rates, Ingolf Harden, Hagen Neugebauer, Anastasios Papadopoulos, 
  Christoph Riplinger, Bernardo de Souza, Georgi L. Stoychev                                                    
                                                                 
  APM, various basis sets, CI-OPT, improved COSX, DLPNO-Multilevel,           
  DOCKER, DRACO, updates on ESD, Fragmentator, GOAT, IRC, LR-CPCM, L-BFGS, MBIS, meta-GGA TD-DFT gradient, ML-optimized integration grids, 
  MM, NACMEs, nearIR, NEB, NEB-TS, NL-DFT gradient (VV10), 2- and 3-layer-ONIOM, interface openCOSMO-RS, QMMM,   
  Crystal-QMMM, RESP, rigid body optimization, SF, symmetry and pop. for TD-DFT, various functionals, SOLVATOR                                   
                                                                         
[Other institutions]                                                     
  V. Asgeirsson          : NEB                                           
  Christoph Bannwarth    : sTDA-DFT, sTD-DFT, PBEh-3c, B97-3c, D3        
  Giovanni Bistoni       : ETS/NOCV, ADLD/ADEX, COVALED                  
  Martin Brehm           : Molecular dynamics                            
  Ronald Cardenas        : ETS/NOCV                                      
  Martina Colucci        : COVALED                                       
  Sebastian Ehlert       : rSCAN, r2SCAN, r2SCAN-3c, D4, dhf basis sets  
  Marvin Friede          : D4 for Fr, Ra, Ac-Lr                          
  Lars Goerigk           : TD-DFT with DH, B97 family of functionals     
  Stefan Grimme          : VdW corrections, initial TS optimization, DFT functionals, gCP, sTDA/sTD-DF 
  Waldemar Hujo          : DFT-NL                                        
  H. Jonsson             : NEB                                           
  Holger Kruse           : gCP                                           
  Marcel Mueller         : wB97X-3c, vDZP basis set                      
  Hagen Neugebauer       : wr2SCAN, Native XTB                           
  Gianluca Regni         : ADLD/ADEX                                     
  Tobias Risthaus        : pre 6.0 range-separated hybrid DFT and stability analysis
  Lukas Wittmann         : regularized MP2, r2SCAN double-hybrids, wr2SCAN        
                                                                         
We gratefully acknowledge several colleagues who have allowed us to      
interface, adapt or use parts of their codes:                            
  Ed Valeev, F. Pavosevic, A. Kumar             : LibInt (2-el integral package), F12 methods 
  Garnet Chan, S. Sharma, J. Yang, R. Olivares  : DMRG                   
  Ulf Ekstrom                                   : XCFun DFT Library      
  Mihaly Kallay                                 : mrcc  (arbitrary order and MRCC methods)
  Frank Weinhold                                : gennbo (NPA and NBO analysis)           
  Simon Mueller                                 : openCOSMO-RS                            
  Christopher J. Cramer and Donald G. Truhlar   : smd solvation model                     
  S Lehtola, MJT Oliveira, MAL Marques          : LibXC Library                           
  Liviu Ungur et al                             : ANISO software                          


 Your calculation uses the libint2 library for the computation of 2-el integrals
 For citations please refer to: http://libint.valeyev.net

 Your ORCA version has been built with support for libXC version: 7.0.0
 For citations please refer to: https://libxc.gitlab.io

 This ORCA versions uses:
   CBLAS   interface :  Fast vector & matrix operations
   LAPACKE interface :  Fast linear algebra routines
   SCALAPACK package :  Parallel linear algebra routines
   Shared memory     :  Shared parallel matrices
   BLAS/LAPACK       :  OpenBLAS 0.3.29  USE64BITINT DYNAMIC_ARCH NO_AFFINITY Cooperlake SINGLE_THREADED
        Core in use  :  Cooperlake
   Copyright (c) 2011-2014, The OpenBLAS Project


  ***********************************
  * Starting time: Wed May 20 12:36:04 2026
  * Host name:     c1-46
  * Process ID:    3914422
  * Working dir.:  /cluster/projects/nn14654k/ylvaos/basis_set_n_funcs/functionals/gga_x_N12/LiS/out
  ***********************************

Using LibXC functional ID  82 : Minnesota N12 exchange functional
[ 1]  R. Peverati and D. G. Truhlar.,  J. Chem. Theory Comput. 8, 2310 (2012)
Using LibXC functional ID  82 : Minnesota N12 exchange functional
[ 1]  R. Peverati and D. G. Truhlar.,  J. Chem. Theory Comput. 8, 2310 (2012)
Your calculation utilizes LibXC
by S. Lehtola, C. Steigemann, M. J. T. Oliveira & M. A. L. Marques
Please cite in your paper:
Lehtola, S.; Steigemann, C.; Oliveira, M.J.T.; Marques, M. A. L. Software X, 7, (2018), 1.
   

================================================================================

----- Orbital basis set information -----
Your calculation utilizes the basis: pcseg-0
   F. Jensen, J. Chem. Theory Comput. 10, 1074 (2014).

================================================================================
                                        WARNINGS
                       Please study these warnings very carefully!
================================================================================


WARNING: your system is open-shell and RHF/RKS was chosen
  ===> : WILL SWITCH to UHF/UKS


================================================================================
                                       INPUT FILE
================================================================================
NAME = /cluster/projects/nn14654k/ylvaos/basis_set_n_funcs/functionals/gga_x_N12/LiS/inp/LiS_gga_x_N12_pcseg0.inp
|  1> ! dft pcseg-0 TightSCF
|  2> %pal nprocs 8 end
|  3> 
|  4> %loc
|  5>   LocMet NewBoys
|  6>   Occ true
|  7> end
|  8> 
|  9> %method
| 10>   exchange gga_x_N12
| 11>   correlation None
| 12> end
| 13> 
| 14> %elprop
| 15>   Dipole true
| 16>   Quadrupole true
| 17> end
| 18> 
| 19> * xyz 0 2
| 20> Li    0.000000000000   0.000000000000  -1.074850000000
| 21> S    0.000000000000   0.000000000000   1.074850000000
| 22> *
| 23> 
| 24> 
| 25>                          ****END OF INPUT****
================================================================================

                       ****************************
                       * Single Point Calculation *
                       ****************************

---------------------------------
CARTESIAN COORDINATES (ANGSTROEM)
---------------------------------
  Li     0.000000    0.000000   -1.074850
  S      0.000000    0.000000    1.074850

----------------------------
CARTESIAN COORDINATES (A.U.)
----------------------------
  NO LB      ZA    FRAG     MASS         X           Y           Z
   0 Li    3.0000    0     6.941    0.000000    0.000000   -2.031172
   1 S    16.0000    0    32.060    0.000000    0.000000    2.031172

--------------------------------
INTERNAL COORDINATES (ANGSTROEM)
--------------------------------
 Li     0   0   0     0.000000000000     0.00000000     0.00000000
 S      1   0   0     2.149700000000     0.00000000     0.00000000

---------------------------
INTERNAL COORDINATES (A.U.)
---------------------------
 Li     0   0   0     0.000000000000     0.00000000     0.00000000
 S      1   0   0     4.062344270091     0.00000000     0.00000000

---------------------
BASIS SET INFORMATION
---------------------
There are 2 groups of distinct atoms

 Group   1 Type Li  : 6s2p contracted to 3s1p pattern {411/2}
 Group   2 Type S   : 9s6p contracted to 4s3p pattern {5211/411}

Atom   0Li   basis set group =>   1
Atom   1S    basis set group =>   2


           ************************************************************
           *        Program running with 8 parallel MPI-processes     *
           *              working on a common directory               *
           ************************************************************
------------------------------------------------------------------------------
                             ORCA STARTUP CALCULATIONS
------------------------------------------------------------------------------
------------------------------------------------------------------------------
                   ___                                                        
                  /   \      - P O W E R E D   B Y -                         
                 /     \                                                     
                 |  |  |   _    _      __       _____    __    __             
                 |  |  |  | |  | |    /  \     |  _  \  |  |  /  |          
                  \  \/   | |  | |   /    \    | | | |  |  | /  /          
                 / \  \   | |__| |  /  /\  \   | |_| |  |  |/  /          
                |  |  |   |  __  | /  /__\  \  |    /   |      \           
                |  |  |   | |  | | |   __   |  |    \   |  |\   \          
                \     /   | |  | | |  |  |  |  | |\  \  |  | \   \       
                 \___/    |_|  |_| |__|  |__|  |_| \__\ |__|  \__/        
                                                                              
                      - O R C A' S   B I G   F R I E N D -                    
                                      &                                       
                       - I N T E G R A L  F E E D E R -                       
                                                                              
 v1 FN, 2020, v2 2021, v3 2022-2024                                           
------------------------------------------------------------------------------


----------------------
SHARK INTEGRAL PACKAGE
----------------------

Number of atoms                             ...      2
Number of basis functions                   ...     19
Number of shells                            ...     11
Maximum angular momentum                    ...      1
Integral batch strategy                     ... SHARK/LIBINT Hybrid
RI-J (if used) integral strategy            ... SPLIT-RIJ (Revised 2003 algorithm where possible)
Printlevel                                  ...      1
Contraction scheme used                     ... SEGMENTED contraction
Prescreening option                         ... SCHWARTZ
   Thresh                                   ... 2.500e-11
   Tcut                                     ... 2.500e-12
   Tpresel                                  ... 2.500e-12 
Coulomb Range Separation                    ... NOT USED
Exchange Range Separation                   ... NOT USED
Multipole approximations                    ... NOT USED
Finite Nucleus Model                        ... NOT USED
CABS basis                                  ... NOT available
Auxiliary Coulomb fitting basis             ... NOT available
Auxiliary J/K fitting basis                 ... NOT available
Auxiliary Correlation fitting basis         ... NOT available
Auxiliary 'external' fitting basis          ... NOT available

Checking pre-screening integrals            ... done (  0.0 sec) Dimension = 11
   => SHARK Basis and OBASIS are compatible. Storing Pre-screening
Shell pair information
Shell pair cut-off parameter TPreSel        ...   2.5e-12
Total number of shell pairs                 ...        66
Shell pairs after pre-screening             ...        66
Total number of primitive shell pairs       ...       300
Primitive shell pairs kept                  ...       271
          la=0 lb=0:     28 shell pairs
          la=1 lb=0:     28 shell pairs
          la=1 lb=1:     10 shell pairs

Checking whether 4 symmetric matrices of dimension 19 fit in memory
:Max Core in MB      =   4096.00
 MB in use           =      0.83
 MB left             =   4095.17
 MB needed           =      0.01
 Data fit in memory  = YES
Calculating Nuclear repulsion               ... done (  0.0 sec) ENN=     11.815837557985 Eh

Diagonalization of the overlap matrix:
Smallest eigenvalue                        ... 5.155e-02
Time for diagonalization                   ...    0.000 sec
Threshold for overlap eigenvalues          ... 1.000e-07
Number of eigenvalues below threshold      ... 0
Time for construction of square roots      ...    0.005 sec
Total time needed                          ...    0.010 sec

-------------------
DFT GRID GENERATION
-------------------

General Integration Accuracy     IntAcc      ... 4.388
Radial Grid Type                 RadialGrid  ... OptM3 with GC (2021)
Angular Grid (max. ang.)         AngularGrid ... 4 (Lebedev-302)
Angular grid pruning method      GridPruning ... 4 (adaptive)
Weight generation scheme         WeightScheme... mBecke (2022)
Basis function cutoff            BFCut       ... 1.0000e-11
Integration weight cutoff        WCut        ... 1.0000e-14
Partially contracted basis set               ... off
Rotationally invariant grid construction     ... off
Angular grids for H and He will be reduced by one unit

Total number of grid points                  ...    13486
Total number of batches                      ...      212
Average number of points per batch           ...       63
Average number of grid points per atom       ...     6743
Grids setup in   0.0 sec
Initializing property integral containers    ... done (  0.0 sec)

SHARK setup successfully completed in   0.1 seconds

Maximum memory used throughout the entire STARTUP-calculation: 4.7 MB


           ************************************************************
           *        Program running with 8 parallel MPI-processes     *
           *              working on a common directory               *
           ************************************************************
-------------------------------------------------------------------------------
                                 ORCA GUESS
                   Start orbitals & Density for SCF / CASSCF
-------------------------------------------------------------------------------

------------
SCF SETTINGS
------------
Hamiltonian:
 Density Functional     Method          .... DFT(GTOs)
  Functional kind                       .... Exchange
  Functional name                       .... Minnesota N12 exchange functional
  Functional family                     .... GGA
  Functional refs                              
    [ 0] R. Peverati and D. G. Truhlar.,  J. Chem. Theory Comput. 8, 2310 (2012), doi: 10.1021/ct3002656
  Functional external parameters        .... 16
    Parameter  0 _CC00      =  1.000000e+00 : _CC00               
    Parameter  1 _CC01      =  5.078800e-01 : _CC01               
    Parameter  2 _CC02      =  1.682330e-01 : _CC02               
    Parameter  3 _CC03      =  1.288870e-01 : _CC03               
    Parameter  4 _CC10      =  8.602110e-02 : _CC10               
    Parameter  5 _CC11      = -1.710080e+01 : _CC11               
    Parameter  6 _CC12      =  6.508140e+01 : _CC12               
    Parameter  7 _CC13      = -7.017260e+01 : _CC13               
    Parameter  8 _CC20      = -3.907550e-01 : _CC20               
    Parameter  9 _CC21      =  5.133920e+01 : _CC21               
    Parameter 10 _CC22      = -1.662200e+02 : _CC22               
    Parameter 11 _CC23      =  1.427380e+02 : _CC23               
    Parameter 12 _CC30      =  4.036110e-01 : _CC30               
    Parameter 13 _CC31      = -3.446310e+01 : _CC31               
    Parameter 14 _CC32      =  7.616610e+01 : _CC32               
    Parameter 15 _CC33      = -2.418340e+00 : _CC33               
 Correlation Functional Correlation     .... No Correlation
 Gradients option       PostSCFGGA      .... off


General Settings:
 Integral files         IntName         .... /cluster/projects/nn14654k/ylvaos/basis_set_n_funcs/functionals/gga_x_N12/LiS/inp/LiS_gga_x_N12_pcseg0
 Hartree-Fock type      HFTyp           .... UHF
 Total Charge           Charge          ....    0
 Multiplicity           Mult            ....    2
 Number of Electrons    NEL             ....   19
 Basis Dimension        Dim             ....   19
 Nuclear Repulsion      ENuc            ....     11.8158375580 Eh

Convergence Acceleration:
 AO-DIIS                CNVDIIS         .... on
   Start iteration      DIISMaxIt       ....    12
   Startup error        DIISStart       ....  0.200000
   # of expansion vecs  DIISMaxEq       ....     5
   Bias factor          DIISBfac        ....   1.050
   Max. coefficient     DIISMaxC        ....  10.000
 MO-DIIS                CNVKDIIS        .... off
 Trust-Rad. Augm. Hess. CNVTRAH         .... auto
   Auto Start mean grad. ratio tolernc. ....  1.125000
   Auto Start start iteration           ....    50
   Auto Start num. interpolation iter.  ....    10
   Max. Number of Micro iterations      ....    24
   Max. Number of Macro iterations      .... Maxiter - #DIIS iter
   Number of Davidson start vectors     ....     2
   Converg. threshold    (grad. norm)   ....   1.000e-05
   Grad. Scal. Fac. for Micro threshold ....   0.100
   Minimum threshold for Micro iter.    ....   1.000e-02
   NR start threshold (gradient norm)   ....   1.000e-04
   Initial trust radius                 ....   0.400
   Minimum AH scaling param. (alpha)    ....   1.000
   Maximum AH scaling param. (alpha)    .... 1000.000
   Quad. conv. algorithm                .... NR
   White noise on init. David. guess    .... on
   Maximum white noise                  ....   0.010
   Pseudo random numbers                .... off
   Inactive MOs                         .... canonical
   Orbital update algorithm             .... Taylor
   Preconditioner                       .... Diag
   Full preconditioner red. dimension   ....   250
 SOSCF                 CNVSOSCF           .... on
   Start iteration     SOSCFMaxIt         ....   150
   Startup grad/error  SOSCFStart         ....  0.003300
   Hessian update      SOSCFHessUp        .... L-BFGS
   Autom. constraints  SOSCFAutoConstrain .... off
 Level Shifting         CNVShift        .... on
   Level shift para.    LevelShift      ....    0.2500
   Turn off err/grad.   ShiftErr        ....    0.0010
 Zerner damping         CNVZerner       .... off
 Static damping         CNVDamp         .... on
   Fraction old density DampFac         ....    0.7000
   Max. Damping (<1)    DampMax         ....    0.9800
   Min. Damping (>=0)   DampMin         ....    0.0000
   Turn off err/grad.   DampErr         ....    0.1000

SCF Procedure:
 Maximum # iterations   MaxIter         ....   125
 SCF integral mode      SCFMode         .... Direct
   Integral package                     .... SHARK and LIBINT hybrid scheme
 Reset frequency        DirectResetFreq ....    20
 Integral Threshold     Thresh          ....  2.500e-11 Eh
 Primitive CutOff       TCut            ....  2.500e-12 Eh

Convergence Tolerance:
 Convergence Check Mode ConvCheckMode   .... Total+1el-Energy
 Convergence forced     ConvForced      .... 0
 Energy Change          TolE            ....  1.000e-08 Eh
 1-El. energy change                    ....  1.000e-05 Eh
 Orbital Gradient       TolG            ....  1.000e-05
 Orbital Rotation angle TolX            ....  1.000e-05
 DIIS Error             TolErr          ....  5.000e-07

------------------------------
INITIAL GUESS: MODEL POTENTIAL
------------------------------
Loading Hartree-Fock densities                     ... done
Calculating cut-offs                               ... done
Initializing the effective Hamiltonian             ... done
Setting up the integral package (SHARK)            ... done
Starting the Coulomb interaction                   ... done (   0.0 sec)
Making the grid                                    ... done (   0.0 sec)
Mapping shells                                     ... done
Starting the XC term evaluation                    ... done (   0.0 sec)
  promolecular density results
     # of electrons  =     18.999659766
     EX              =    -26.297695348
     EC              =      0.000000000
     EX+EC           =    -26.297695348
Transforming the Hamiltonian                       ... done (   0.0 sec)
Diagonalizing the Hamiltonian                      ... done (   0.0 sec)
Back transforming the eigenvectors                 ... done (   0.0 sec)
Now organizing SCF variables                       ... done
                      ------------------
                      INITIAL GUESS DONE (   0.1 sec)
                      ------------------
             **** ENERGY FILE WAS UPDATED (/cluster/projects/nn14654k/ylvaos/basis_set_n_funcs/functionals/gga_x_N12/LiS/inp/LiS_gga_x_N12_pcseg0.en.tmp) ****
Finished Guess after   0.1 sec
Maximum memory used throughout the entire GUESS-calculation: 2.1 MB


           ************************************************************
           *        Program running with 8 parallel MPI-processes     *
           *              working on a common directory               *
           ************************************************************

-------------------------------------------------------------------------------------------
                                      ORCA LEAN-SCF
                              memory conserving SCF solver
-------------------------------------------------------------------------------------------

----------------------------------------D-I-I-S--------------------------------------------
Iteration    Energy (Eh)           Delta-E    RMSDP     MaxDP     DIISErr   Damp  Time(sec)
-------------------------------------------------------------------------------------------
               ***  Starting incremental Fock matrix formation  ***
    1    -404.0385627684667611     0.00e+00  2.08e-02  4.76e-02  5.50e-02  0.700   0.2
Warning: op=0 Small HOMO/LUMO gap (   0.001) - skipping pre-diagonalization
         Will do a full diagonalization
    2    -404.0595589720421685    -2.10e-02  2.05e-02  3.80e-02  3.12e-02  0.700   0.2
                               ***Turning on AO-DIIS***
    3    -404.0690515801941274    -9.49e-03  8.60e-03  1.96e-02  8.63e-03  0.700   0.2
    4    -404.0723263576105069    -3.27e-03  1.38e-02  3.83e-02  6.55e-03  0.000   0.2
    5    -404.0802702597133589    -7.94e-03  4.93e-03  1.01e-02  1.62e-02  0.000   0.3
    6    -404.0821870804298896    -1.92e-03  2.72e-03  6.15e-03  9.16e-03  0.000   0.2
    7    -404.0828152251143592    -6.28e-04  1.64e-03  3.80e-03  5.25e-03  0.000   0.2
                              *** Initializing SOSCF ***
---------------------------------------S-O-S-C-F--------------------------------------
Iteration    Energy (Eh)           Delta-E    RMSDP     MaxDP     MaxGrad    Time(sec)
--------------------------------------------------------------------------------------
    8    -404.0830363245820536    -2.21e-04  1.03e-03  2.29e-03  2.95e-03     0.3
               *** Restarting incremental Fock matrix formation ***
    9    -404.0831143921596436    -7.81e-05  2.29e-03  4.42e-03  1.96e-03     0.2
   10    -404.0831238103223200    -9.42e-06  1.30e-03  2.78e-03  1.92e-03     0.1
   11    -404.0831585383572815    -3.47e-05  3.08e-04  9.22e-04  2.42e-04     0.1
   12    -404.0831594995879072    -9.61e-07  1.88e-04  6.99e-04  1.42e-04     0.1
   13    -404.0831597558363910    -2.56e-07  4.12e-05  1.26e-04  3.50e-05     0.1
   14    -404.0831597708007052    -1.50e-08  2.88e-05  9.98e-05  1.47e-05     0.1
   15    -404.0831597749257753    -4.13e-09  6.09e-06  1.69e-05  4.48e-06     0.1
                 **** Energy Check signals convergence ****

               *****************************************************
               *                     SUCCESS                       *
               *           SCF CONVERGED AFTER  15 CYCLES          *
               *****************************************************

             **** ENERGY FILE WAS UPDATED (/cluster/projects/nn14654k/ylvaos/basis_set_n_funcs/functionals/gga_x_N12/LiS/inp/LiS_gga_x_N12_pcseg0.en.tmp) ****

----------------
TOTAL SCF ENERGY
----------------

Total Energy       :       -404.08315977528332 Eh          -10995.66179 eV

Components:
Nuclear Repulsion  :         11.81583755798484 Eh             321.52529 eV
Electronic Energy  :       -415.89899733326814 Eh          -11317.18707 eV
One Electron Energy:       -584.12089903980939 Eh          -15894.73774 eV
Two Electron Energy:        168.22190170654125 Eh            4577.55066 eV

Virial components:
Potential Energy   :       -809.24735374263071 Eh          -22020.74001 eV
Kinetic Energy     :        405.16419396734739 Eh           11025.07822 eV
Virial Ratio       :          1.99733186148194

DFT components:
N(Alpha)           :        9.999994394478 electrons
N(Beta)            :        8.999995101004 electrons
N(Total)           :       18.999989495481 electrons
E(X)               :      -26.425170266649 Eh       
E(C)               :        0.000000000000 Eh       
E(XC)              :      -26.425170266649 Eh       

---------------
SCF CONVERGENCE
---------------

  Last Energy change         ...    4.1251e-09  Tolerance :   1.0000e-08
  Last MAX-Density change    ...    1.6894e-05  Tolerance :   1.0000e-07
  Last RMS-Density change    ...    6.0902e-06  Tolerance :   5.0000e-09
  Last DIIS Error            ...    2.9510e-03  Tolerance :   5.0000e-07
  Last Orbital Gradient      ...    4.4782e-06  Tolerance :   1.0000e-05
  Last Orbital Rotation      ...    4.8453e-05  Tolerance :   1.0000e-05


----------------------
UHF SPIN CONTAMINATION
----------------------

Warning: in a DFT calculation there is little theoretical justification to 
         calculate <S**2> as in Hartree-Fock theory. We will do it anyways
         but you should keep in mind that the values have only limited relevance

Expectation value of <S**2>     :     0.756695
Ideal value S*(S+1) for S=0.5   :     0.750000
Deviation                       :     0.006695

----------------
ORBITAL ENERGIES
----------------
                 SPIN UP ORBITALS
  NO   OCC          E(Eh)            E(eV) 
   0   1.0000     -87.776645     -2388.5239 
   1   1.0000      -7.472866      -203.3470 
   2   1.0000      -5.736362      -156.0943 
   3   1.0000      -5.720354      -155.6587 
   4   1.0000      -5.718436      -155.6066 
   5   1.0000      -1.878175       -51.1077 
   6   1.0000      -0.497063       -13.5258 
   7   1.0000      -0.177644        -4.8339 
   8   1.0000      -0.153269        -4.1707 
   9   1.0000      -0.132788        -3.6133 
  10   0.0000      -0.070612        -1.9215 
  11   0.0000       0.018780         0.5110 
  12   0.0000       0.031374         0.8537 
  13   0.0000       0.082700         2.2504 
  14   0.0000       0.195952         5.3321 
  15   0.0000       0.577665        15.7191 
  16   0.0000       0.841975        22.9113 
  17   0.0000       0.881559        23.9885 
  18   0.0000       0.975030        26.5319 

                 SPIN DOWN ORBITALS
  NO   OCC          E(Eh)            E(eV) 
   0   1.0000     -87.768951     -2388.3146 
   1   1.0000      -7.466854      -203.1834 
   2   1.0000      -5.722164      -155.7080 
   3   1.0000      -5.715809      -155.5351 
   4   1.0000      -5.713878      -155.4825 
   5   1.0000      -1.878992       -51.1300 
   6   1.0000      -0.448780       -12.2119 
   7   1.0000      -0.131091        -3.5672 
   8   1.0000      -0.111364        -3.0304 
   9   0.0000      -0.101404        -2.7593 
  10   0.0000      -0.071031        -1.9329 
  11   0.0000       0.031597         0.8598 
  12   0.0000       0.035273         0.9598 
  13   0.0000       0.085119         2.3162 
  14   0.0000       0.201620         5.4864 
  15   0.0000       0.605682        16.4814 
  16   0.0000       0.903663        24.5899 
  17   0.0000       0.912473        24.8297 
  18   0.0000       1.000429        27.2231 
*Only the first 10 virtual orbitals were printed.

                    ********************************
                    * MULLIKEN POPULATION ANALYSIS *
                    ********************************

--------------------------------------------
MULLIKEN ATOMIC CHARGES AND SPIN POPULATIONS
--------------------------------------------
   0 Li:    0.367455   -0.023770
   1 S :   -0.367455    1.023770
Sum of atomic charges         :   -0.0000000
Sum of atomic spin populations:    1.0000000

-----------------------------------------------------
MULLIKEN REDUCED ORBITAL CHARGES AND SPIN POPULATIONS
-----------------------------------------------------
CHARGE
  0 Lis       :     2.256624  s :     2.256624
      pz      :     0.081505  p :     0.375921
      px      :     0.224278
      py      :     0.070138

  1 S s       :     5.960439  s :     5.960439
      pz      :     3.701432  p :    10.407016
      px      :     3.738333
      py      :     2.967251


SPIN
  0 Lis       :    -0.046755  s :    -0.046755
      pz      :    -0.006328  p :     0.022985
      px      :    -0.030881
      py      :     0.060194

  1 S s       :     0.014294  s :     0.014294
      pz      :     0.038789  p :     1.009476
      px      :     0.068270
      py      :     0.902418



                     *******************************
                     * LOEWDIN POPULATION ANALYSIS *
                     *******************************

-------------------------------------------
LOEWDIN ATOMIC CHARGES AND SPIN POPULATIONS
-------------------------------------------
   0 Li:    0.181583   -0.001384
   1 S :   -0.181583    1.001384

----------------------------------------------------
LOEWDIN REDUCED ORBITAL CHARGES AND SPIN POPULATIONS
----------------------------------------------------
CHARGE
  0 Lis       :     2.325281  s :     2.325281
      pz      :     0.177247  p :     0.493136
      px      :     0.236667
      py      :     0.079222

  1 S s       :     5.808974  s :     5.808974
      pz      :     3.688498  p :    10.372609
      px      :     3.725944
      py      :     2.958166


SPIN
  0 Lis       :    -0.039991  s :    -0.039991
      pz      :    -0.001414  p :     0.038607
      px      :    -0.028878
      py      :     0.068899

  1 S s       :     0.007626  s :     0.007626
      pz      :     0.033779  p :     0.993758
      px      :     0.066267
      py      :     0.893712



                      *****************************
                      * MAYER POPULATION ANALYSIS *
                      *****************************

  NA   - Mulliken gross atomic population
  ZA   - Total nuclear charge
  QA   - Mulliken gross atomic charge
  VA   - Mayer's total valence
  BVA  - Mayer's bonded valence
  FA   - Mayer's free valence

  ATOM       NA         ZA         QA         VA         BVA        FA
  0 Li     2.6325     3.0000     0.3675     1.1061     1.0982     0.0079
  1 S     16.3675    16.0000    -0.3675     1.9778     1.0982     0.8796

  Mayer bond orders larger than 0.100000
B(  0-Li,  1-S ) :   1.0982 

-------
TIMINGS
-------

Total SCF time: 0 days 0 hours 0 min 3 sec 

Total time                  ....       3.057 sec
Sum of individual times     ....       2.916 sec  ( 95.4%)

SCF preparation             ....       0.114 sec  (  3.7%)
Fock matrix formation       ....       1.494 sec  ( 48.9%)
  Startup                   ....       0.038 sec  (  2.6% of F)
  Coulomb formation         ....       0.013 sec  (  0.9% of F)
  XC integration            ....       0.724 sec  ( 48.4% of F)
    XC Preparation          ....       0.000 sec  (  0.0% of XC)
    Basis function eval.    ....       0.007 sec  (  1.0% of XC)
    Density eval.           ....       0.004 sec  (  0.5% of XC)
    XC-Functional eval.     ....       0.010 sec  (  1.4% of XC)
    XC-Potential eval.      ....       0.004 sec  (  0.5% of XC)
Diagonalization             ....       0.000 sec  (  0.0%)
Density matrix formation    ....       0.374 sec  ( 12.2%)
Total Energy calculation    ....       0.120 sec  (  3.9%)
Population analysis         ....       0.026 sec  (  0.9%)
Orbital Transformation      ....       0.032 sec  (  1.0%)
Orbital Orthonormalization  ....       0.000 sec  (  0.0%)
DIIS solution               ....       0.617 sec  ( 20.2%)
SOSCF solution              ....       0.139 sec  (  4.5%)
Finished LeanSCF after   3.1 sec

Maximum memory used throughout the entire LEANSCF-calculation: 4.3 MB


           ************************************************************
           *        Program running with 8 parallel MPI-processes     *
           *              working on a common directory               *
           ************************************************************

------------------------------------------------------------------------------
                         ORCA PROPERTY INTEGRAL CALCULATIONS
------------------------------------------------------------------------------

GBWName                                   ... /cluster/projects/nn14654k/ylvaos/basis_set_n_funcs/functionals/gga_x_N12/LiS/inp/LiS_gga_x_N12_pcseg0.gbw
Number of atoms                           ...      2
Number of basis functions                 ...     19
Max core memory                           ...   4096 MB

Dipole integrals                          ... YES
Quadrupole integrals                      ... YES
Linear momentum integrals                 ...  NO
Angular momentum integrals                ...  NO
Higher moments length integrals           ...  NO
Higher moments velocity integrals         ...  NO
Kinetic energy integrals                  ...  NO
GIAO right hand sides                     ...  NO
GIAO dipole derivative integrals          ...  NO
SOC integrals                             ...  NO
EPR diamagnetic integrals (GIAO)          ...  NO
EPR gauge integrals                       ...  NO
Field gradient integrals                  ...  NO (   0 nuclei)
Spin-dipole/Fermi contact integrals       ...  NO (   0 nuclei)
Contact density integrals                 ...  NO (   0 nuclei)
Nucleus-orbit integrals                   ...  NO (   0 nuclei)
Geometric perturbations                   ...  NO (   2 nuclei)

Choice of electric origin   ... Center of mass
Position of electric origin ... (  0.0000,  0.0000,  1.3082) 
Choice of magnetic origin   ... GIAO
Position of magnetic origin ... (  0.0000,  0.0000,  0.0000) 

Calculating integrals                     ... Electric Dipole (Length)     done (  0.0 sec)
Calculating integrals                     ... Electric Quadrupole (Length) done (  0.0 sec)

Property integrals calculated in   0.0 sec

Maximum memory used throughout the entire PROPINT-calculation: 2.2 MB
------------------------------------------------------------------------------
                           ORCA ORBITAL LOCALIZATION
------------------------------------------------------------------------------

Input orbitals are from                  ... /cluster/projects/nn14654k/ylvaos/basis_set_n_funcs/functionals/gga_x_N12/LiS/inp/LiS_gga_x_N12_pcseg0.gbw
Output orbitals are to                   ... /cluster/projects/nn14654k/ylvaos/basis_set_n_funcs/functionals/gga_x_N12/LiS/inp/LiS_gga_x_N12_pcseg0.loc
Max. number of iterations                ... 128
Localizations seeded randomly            ... on
Convergence tolerance                    ... 1.000e-06
Threshold for strong local MOs           ... 9.500e-01
Threshold for bond MOs                   ... 8.500e-01
Operator                                 ... 0
Orbital range for localization           ... 5 to 9
Localization criterion                   ... NEW-BOYS
Doing the dipole integrals               ... o.k.
Initial value of the localization sum :    11.923313
ITERATION   0 : L=   15.7422466193 DL=  3.82e+00 (AVERGE_DL)=    0.6179752217 
ITERATION   1 : L=   15.9128312065 DL=  1.71e-01 (AVERGE_DL)=    0.1306080347 
ITERATION   2 : L=   15.9503229164 DL=  3.75e-02 (AVERGE_DL)=    0.0612304743 
ITERATION   3 : L=   15.9557446912 DL=  5.42e-03 (AVERGE_DL)=    0.0232847049 
ITERATION   4 : L=   15.9573832884 DL=  1.64e-03 (AVERGE_DL)=    0.0128007702 
ITERATION   5 : L=   15.9582114236 DL=  8.28e-04 (AVERGE_DL)=    0.0091001935 
ITERATION   6 : L=   15.9586970170 DL=  4.86e-04 (AVERGE_DL)=    0.0069684531 
ITERATION   7 : L=   15.9589882724 DL=  2.91e-04 (AVERGE_DL)=    0.0053968082 
ITERATION   8 : L=   15.9591667332 DL=  1.78e-04 (AVERGE_DL)=    0.0042244630 
ITERATION   9 : L=   15.9592826184 DL=  1.16e-04 (AVERGE_DL)=    0.0034041907 
ITERATION  10 : L=   15.9593640000 DL=  8.14e-05 (AVERGE_DL)=    0.0028527460 
ITERATION  11 : L=   15.9594258578 DL=  6.19e-05 (AVERGE_DL)=    0.0024871225 
ITERATION  12 : L=   15.9594760312 DL=  5.02e-05 (AVERGE_DL)=    0.0022399432 
ITERATION  13 : L=   15.9595186668 DL=  4.26e-05 (AVERGE_DL)=    0.0020648393 
ITERATION  14 : L=   15.9595560295 DL=  3.74e-05 (AVERGE_DL)=    0.0019329434 
ITERATION  15 : L=   15.9595894150 DL=  3.34e-05 (AVERGE_DL)=    0.0018271675 
ITERATION  16 : L=   15.9596196092 DL=  3.02e-05 (AVERGE_DL)=    0.0017376499 
ITERATION  17 : L=   15.9596471222 DL=  2.75e-05 (AVERGE_DL)=    0.0016587032 
ITERATION  18 : L=   15.9596723054 DL=  2.52e-05 (AVERGE_DL)=    0.0015869234 
ITERATION  19 : L=   15.9596954196 DL=  2.31e-05 (AVERGE_DL)=    0.0015203342 
ITERATION  20 : L=   15.9597166680 DL=  2.12e-05 (AVERGE_DL)=    0.0014576845 
ITERATION  21 : L=   15.9597362183 DL=  1.96e-05 (AVERGE_DL)=    0.0013982223 
ITERATION  22 : L=   15.9597542130 DL=  1.80e-05 (AVERGE_DL)=    0.0013414446 
ITERATION  23 : L=   15.9597707779 DL=  1.66e-05 (AVERGE_DL)=    0.0012870459 
ITERATION  24 : L=   15.9597860255 DL=  1.52e-05 (AVERGE_DL)=    0.0012348100 
ITERATION  25 : L=   15.9598000577 DL=  1.40e-05 (AVERGE_DL)=    0.0011845756 
ITERATION  26 : L=   15.9598129682 DL=  1.29e-05 (AVERGE_DL)=    0.0011362438 
ITERATION  27 : L=   15.9598248434 DL=  1.19e-05 (AVERGE_DL)=    0.0010897358 
ITERATION  28 : L=   15.9598357631 DL=  1.09e-05 (AVERGE_DL)=    0.0010449719 
ITERATION  29 : L=   15.9598458014 DL=  1.00e-05 (AVERGE_DL)=    0.0010019155 
ITERATION  30 : L=   15.9598550266 DL=  9.23e-06 (AVERGE_DL)=    0.0009604785 
ITERATION  31 : L=   15.9598635025 DL=  8.48e-06 (AVERGE_DL)=    0.0009206445 
ITERATION  32 : L=   15.9598712878 DL=  7.79e-06 (AVERGE_DL)=    0.0008823452 
ITERATION  33 : L=   15.9598784370 DL=  7.15e-06 (AVERGE_DL)=    0.0008455307 
ITERATION  34 : L=   15.9598850009 DL=  6.56e-06 (AVERGE_DL)=    0.0008101790 
ITERATION  35 : L=   15.9598910260 DL=  6.03e-06 (AVERGE_DL)=    0.0007762139 
ITERATION  36 : L=   15.9598965554 DL=  5.53e-06 (AVERGE_DL)=    0.0007435974 
ITERATION  37 : L=   15.9599016293 DL=  5.07e-06 (AVERGE_DL)=    0.0007123143 
ITERATION  38 : L=   15.9599062842 DL=  4.65e-06 (AVERGE_DL)=    0.0006822675 
ITERATION  39 : L=   15.9599105540 DL=  4.27e-06 (AVERGE_DL)=    0.0006534395 
ITERATION  40 : L=   15.9599144703 DL=  3.92e-06 (AVERGE_DL)=    0.0006258013 
ITERATION  41 : L=   15.9599180617 DL=  3.59e-06 (AVERGE_DL)=    0.0005992825 
ITERATION  42 : L=   15.9599213549 DL=  3.29e-06 (AVERGE_DL)=    0.0005738641 
ITERATION  43 : L=   15.9599243742 DL=  3.02e-06 (AVERGE_DL)=    0.0005494853 
ITERATION  44 : L=   15.9599271424 DL=  2.77e-06 (AVERGE_DL)=    0.0005261355 
ITERATION  45 : L=   15.9599296799 DL=  2.54e-06 (AVERGE_DL)=    0.0005037387 
ITERATION  46 : L=   15.9599320059 DL=  2.33e-06 (AVERGE_DL)=    0.0004822805 
ITERATION  47 : L=   15.9599341378 DL=  2.13e-06 (AVERGE_DL)=    0.0004617288 
ITERATION  48 : L=   15.9599360917 DL=  1.95e-06 (AVERGE_DL)=    0.0004420242 
ITERATION  49 : L=   15.9599378824 DL=  1.79e-06 (AVERGE_DL)=    0.0004231704 
ITERATION  50 : L=   15.9599395234 DL=  1.64e-06 (AVERGE_DL)=    0.0004050878 
ITERATION  51 : L=   15.9599410270 DL=  1.50e-06 (AVERGE_DL)=    0.0003877744 
ITERATION  52 : L=   15.9599424049 DL=  1.38e-06 (AVERGE_DL)=    0.0003711931 
ITERATION  53 : L=   15.9599436674 DL=  1.26e-06 (AVERGE_DL)=    0.0003553225 
ITERATION  54 : L=   15.9599448242 DL=  1.16e-06 (AVERGE_DL)=    0.0003401084 
ITERATION  55 : L=   15.9599458841 DL=  1.06e-06 (AVERGE_DL)=    0.0003255649 
ITERATION  56 : L=   15.9599468551 DL=  9.71e-07 (AVERGE_DL)=    0.0003116138 
LOCALIZATION SUM CONVERGED


--------------------------------------------------------------------------------
                    LOCALIZED MOLECULAR ORBITAL COMPOSITIONS
--------------------------------------------------------------------------------

The Mulliken populations for each LMO on each atom are computed
The LMO`s will be ordered according to atom index and type
  (A) Strongly localized MO`s have populations of >=0.950 on one atom
  (B) Two center bond orbitals have populations of >=0.850 on two atoms
  (C) Other MO`s are considered to be `delocalized`

FOUND  -   2 strongly local MO`s
       -   3 two center bond MO`s
       -   0 significantly delocalized MO`s

Rather strongly localized orbitals:
MO   6:   1S  -   0.979112
MO   5:   0Li -   1.001535
Bond-like localized orbitals:
MO   9:   1S  -   0.894111  and   0Li -   0.105889
MO   8:   1S  -   0.929476  and   0Li -   0.070524
MO   7:   1S  -   0.894691  and   0Li -   0.105309
Localized MO's were stored in: /cluster/projects/nn14654k/ylvaos/basis_set_n_funcs/functionals/gga_x_N12/LiS/inp/LiS_gga_x_N12_pcseg0.loc
------------------------------------------------------------------------------
                           ORCA ORBITAL LOCALIZATION
------------------------------------------------------------------------------

Input orbitals are from                  ... /cluster/projects/nn14654k/ylvaos/basis_set_n_funcs/functionals/gga_x_N12/LiS/inp/LiS_gga_x_N12_pcseg0.loc
Output orbitals are to                   ... /cluster/projects/nn14654k/ylvaos/basis_set_n_funcs/functionals/gga_x_N12/LiS/inp/LiS_gga_x_N12_pcseg0.loc
Max. number of iterations                ... 128
Localizations seeded randomly            ... on
Convergence tolerance                    ... 1.000e-06
Threshold for strong local MOs           ... 9.500e-01
Threshold for bond MOs                   ... 8.500e-01
Operator                                 ... 1
Orbital range for localization           ... 5 to 8
Localization criterion                   ... NEW-BOYS
Doing the dipole integrals               ... o.k.
Initial value of the localization sum :    11.401906
ITERATION   0 : L=   14.4668918455 DL=  3.06e+00 (AVERGE_DL)=    0.7147244008 
ITERATION   1 : L=   15.1517927153 DL=  6.85e-01 (AVERGE_DL)=    0.3378611327 
ITERATION   2 : L=   15.2475337856 DL=  9.57e-02 (AVERGE_DL)=    0.1263204063 
ITERATION   3 : L=   15.2721843913 DL=  2.47e-02 (AVERGE_DL)=    0.0640970692 
ITERATION   4 : L=   15.2761160160 DL=  3.93e-03 (AVERGE_DL)=    0.0255982576 
ITERATION   5 : L=   15.2767540888 DL=  6.38e-04 (AVERGE_DL)=    0.0103123936 
ITERATION   6 : L=   15.2768534277 DL=  9.93e-05 (AVERGE_DL)=    0.0040689662 
ITERATION   7 : L=   15.2768688126 DL=  1.54e-05 (AVERGE_DL)=    0.0016012969 
ITERATION   8 : L=   15.2768711855 DL=  2.37e-06 (AVERGE_DL)=    0.0006288762 
ITERATION   9 : L=   15.2768715510 DL=  3.65e-07 (AVERGE_DL)=    0.0002468130 
LOCALIZATION SUM CONVERGED


--------------------------------------------------------------------------------
                    LOCALIZED MOLECULAR ORBITAL COMPOSITIONS
--------------------------------------------------------------------------------

The Mulliken populations for each LMO on each atom are computed
The LMO`s will be ordered according to atom index and type
  (A) Strongly localized MO`s have populations of >=0.950 on one atom
  (B) Two center bond orbitals have populations of >=0.850 on two atoms
  (C) Other MO`s are considered to be `delocalized`

FOUND  -   2 strongly local MO`s
       -   2 two center bond MO`s
       -   0 significantly delocalized MO`s

Rather strongly localized orbitals:
MO   6:   1S  -   0.984334
MO   5:   0Li -   1.001460
Bond-like localized orbitals:
MO   8:   1S  -   0.844566  and   0Li -   0.155434
MO   7:   1S  -   0.844595  and   0Li -   0.155405
Localized MO's were stored in: /cluster/projects/nn14654k/ylvaos/basis_set_n_funcs/functionals/gga_x_N12/LiS/inp/LiS_gga_x_N12_pcseg0.loc

-------------------------   --------------------
FINAL SINGLE POINT ENERGY      -404.083159775283
-------------------------   --------------------



           ************************************************************
           *        Program running with 8 parallel MPI-processes     *
           *              working on a common directory               *
           ************************************************************

------------------------------------------------------------------------------
                              ORCA PROPERTY CALCULATIONS
------------------------------------------------------------------------------

GBWName                                 ... /cluster/projects/nn14654k/ylvaos/basis_set_n_funcs/functionals/gga_x_N12/LiS/inp/LiS_gga_x_N12_pcseg0.gbw
Number of atoms                         ...      2
Number of basis functions               ...     19
Max core memory                         ...   4096 MB

Electric properties:
Dipole moment                           ... YES
Quadrupole moment                       ... YES
Static polarizability (Dipole/Dipole)   ...  NO
Static polarizability (Dipole/Quad.)    ...  NO
Static polarizability (Quad./Quad.)     ...  NO
Static polarizability (Velocity)        ...  NO
Static hyperpolarizability              ...  NO

Atomic electric properties:
Dipole moment                           ...  NO
Quadrupole moment                       ...  NO
Static polarizability                   ...  NO

Choice of electric origin               ... Center of mass
Position of electric origin             ...     0.000000     0.000000     1.308198

General magnetic properties:
Magnetizability                         ...  NO

EPR properties:
g-Tensor (aka g-matrix)                 ...  NO
Zero-Field splitting spin-orbit         ...  NO
Zero-field splitting spin-spin          ...  NO
Hyperfine couplings                     ...  NO (   0 nuclei)
Quadrupole couplings                    ...  NO (   0 nuclei)
Contact density                         ...  NO (   0 nuclei)

NMR properties:
Chemical shifts                         ...  NO (   0 nuclei)
Spin-rotation constants                 ...  NO (   0 nuclei)
Spin-spin couplings                     ...  NO (   0 nuclei,    0 pairs)

Choice of magnetic origin               ... GIAO
Position of magnetic origin             ...     0.000000     0.000000     0.000000

Properties with geometric perturbations:
SCF Hessian                             ...  NO
IR spectrum                             ...  NO
VCD spectrum                            ...  NO
X-ray spectroscopy properties:
SCF XES/XAS/RIXS spectra                ...  NO

SCF SOC stabilization energy            ...  NO
Diagonal Born-Oppenheimer correction    ...  NO

-------------
DIPOLE MOMENT
-------------

Method             : SCF
Type of density    : Electron Density
Multiplicity       :   2
Irrep              :   0
Energy             :  -404.0831597752833204 Eh
Basis              : AO
                                X                 Y                 Z
Electronic contribution:      0.000000000      -0.000000000      -3.873237858
Nuclear contribution   :      0.000000000       0.000000000       1.549484202
                        -----------------------------------------
Total Dipole Moment    :      0.000000000      -0.000000000      -2.323753656
                        -----------------------------------------
Magnitude (a.u.)       :      2.323753656
Magnitude (Debye)      :      5.906512396



--------------------
Rotational spectrum 
--------------------
 
Rotational constants in cm-1:             0.000000             0.639339             0.639339 
Rotational constants in MHz :             0.000000         19166.891897         19166.891897 

Dipole components along the rotational axes: 
x,y,z [a.u.] :    -2.323754    -0.000000     0.000000 
x,y,z [Debye]:    -5.906512    -0.000000     0.000000 

 

Dipole moment calculation done in   0.0 sec 

-----------------
QUADRUPOLE MOMENT
-----------------

Method             : SCF
Type of density    : Electron Density
Multiplicity       :   2
Irrep              :   0
Energy             :  -404.0831597752833204 Eh
Basis              : AO

                XX              YY              ZZ              XY              XZ              YZ
  NUC        0.000000000     0.000000000    41.817245673     0.000000000     0.000000000     0.000000000
  EL       -14.013131247   -11.659788696   -46.415464225     0.482543624    -0.000000000     0.000000000
  TOT      -14.013131247   -11.659788696    -4.598218552     0.482543624    -0.000000000     0.000000000 (a.u.)
           -18.848140777   -15.682814561    -6.184761212     0.649037678    -0.000000000     0.000000000 (Buckingham)

diagonalized tensor:
           -14.108231822   -11.564688121    -4.598218552 (a.u.)
           -18.976054303   -15.554901035    -6.184761212 (Buckingham)
           -16.212446358    -5.948986557    22.161432915 (traceless form in Buckingham)

             0.981127409    -0.193362374    -0.000000000
            -0.193362374    -0.981127409     0.000000000
             0.000000000    -0.000000000     1.000000000
        
Isotropic quadrupole :   -10.090379499

Quadrupole moment calculation done in   0.0 sec (  0.0 sec for integrals)

Maximum memory used throughout the entire PROP-calculation: 0.9 MB

--------------------------------
SUGGESTED CITATIONS FOR THIS RUN
--------------------------------

Below you find a list of papers that are relevant to this ORCA run
We neither can nor want to force you to cite these papers, but we appreciate if you do
You receive ORCA, which is the product of decades of hard work by many enthusiastic individuals, for free
The only thing we kindly ask in return is that you cite our papers,
We deeply appreciate it, if you show your appreciation for ORCA by not just citing the generic ORCA reference.

Please note that relegating all ORCA citations to the supporting information does *not* help us.
SI sections are not indexed - citations you put there will not count into any citation statistics
But we need these citations in order to attract the funding resources that allow us to do what we are doing

Therefore, if you are a happy ORCA user, please consider citing a few of the papers listed below in the main body of your paper

In addition to the list printed below, the program has created the file /cluster/projects/nn14654k/ylvaos/basis_set_n_funcs/functionals/gga_x_N12/LiS/inp/LiS_gga_x_N12_pcseg0.bibtex that contains the list in bibtex format
You can import this file easily into all common literature databanks and citation aid programs

It goes without saying that in many instances, there are alternative algorithms to achieve similar
results as the ones you have gotten from ORCA. It is, of course, also the case that in some instances
ORCA just re-implements algorithms worked out by others. We are fully aware of that and we are also
fully appreciative of our colleagues work. Hence this citation list should not be read as indicating
that the listed papers, which are focused on our own work, are the only ones worth citing. It simply
meant to make it easier for users to cite ORCA specific papers. It is not a substitute for doing your
own literature research and citing the relevant literature in a scientifically appropriate manner.

List of essential papers. We consider these as the minimum necessary citations

  1. Neese, F.
     Software update: the ORCA program system, version 6.0
     WIRES Comput. Molec. Sci. 2025 15(1), e70019
     doi.org/10.1002/wcms.70019

List of papers to cite with high priority. The work reported in these papers was absolutely
necessary for this run to complete.
Our perspective: the developers of density functionals and basis sets usually get cited in chemistry papers
Good! But without the algorithms to do something with them, the functionals or basis sets would not do anything.
Hence, in our opinion, the algorithm design and method developments papers are equally worthy of getting cited

  1. Lehtola, S.; Steigemann, C.; Oliveira, M.; Marques, M.
     Recent developments in Libxc - A comprehensive library of functionals for density functional theory
     Software X 2018 7 , 
     doi.org/10.1016/j.softx.2017.11.002
  2. Neese, F.
     The SHARK Integral Generation and Digestion System
     J. Comp. Chem. 2022 44(3), 381
     doi.org/10.1002/jcc.26942

List of suggested additional citations. These are papers that are important in the 'surrounding' of 
of this run, or papers that preceded the highly important papers. If you like your results we are grateful for a citation.

  1. Neese, F.
     The ORCA program system
     WIRES Comput. Molec. Sci. 2012 2(1), 73-78
     doi.org/10.1002/wcms.81
  2. Neese, F.
     Software update: the ORCA program system, version 4.0
     WIRES Comput. Molec. Sci. 2018 8(1), 1-6
     doi.org/10.1002/wcms.1327
  3. Neese, F.; Wennmohs, F.; Becker, U.; Riplinger, C.
     The ORCA quantum chemistry program package
     J. Chem. Phys. 2020 152(22), 224108
     doi.org/10.1063/5.0004608
  4. Neese, F.
     Software update: The ORCA program system—Version 5.0
     WIRES Comput. Molec. Sci. 2022 12(1), e1606
     doi.org/10.1002/wcms.1606

List of optional additional citations

  1. Neese, F.
     Approximate second-order SCF convergence for spin unrestricted wavefunctions
     Chem. Phys. Lett. 2000 325(1-3), 93-98
     doi.org/10.1016/s0009-2614(00)00662-x

Timings for individual modules:

Sum of individual times          ...        4.804 sec (=   0.080 min)
Startup calculation              ...        0.435 sec (=   0.007 min)   9.0 %
SCF iterations                   ...        3.808 sec (=   0.063 min)  79.3 %
Property integrals               ...        0.282 sec (=   0.005 min)   5.9 %
Property calculations            ...        0.270 sec (=   0.005 min)   5.6 %
Orbital localization             ...        0.010 sec (=   0.000 min)   0.2 %
                             ****ORCA TERMINATED NORMALLY****
TOTAL RUN TIME: 0 days 0 hours 0 minutes 7 seconds 169 msec
