
                                 *****************
                                 * O   R   C   A *
                                 *****************

                                            #,                                       
                                            ###                                      
                                            ####                                     
                                            #####                                    
                                            ######                                   
                                           ########,                                 
                                     ,,################,,,,,                         
                               ,,#################################,,                 
                          ,,##########################################,,             
                       ,#########################################, ''#####,          
                    ,#############################################,,   '####,        
                  ,##################################################,,,,####,       
                ,###########''''           ''''###############################       
              ,#####''   ,,,,##########,,,,          '''####'''          '####       
            ,##' ,,,,###########################,,,                        '##       
           ' ,,###''''                  '''############,,,                           
         ,,##''                                '''############,,,,        ,,,,,,###''
      ,#''                                            '''#######################'''  
     '                                                          ''''####''''         
             ,#######,   #######,   ,#######,      ##                                
            ,#'     '#,  ##    ##  ,#'     '#,    #''#        ,####,    ,#,          
            ##       ##  ##   ,#'  ##            #'  '#       #'       ,# #          
            ##       ##  #######   ##           ,######,      #####,      #          
            '#,     ,#'  ##    ##  '#,     ,#' ,#      #,     #,   #      #          
             '#######'   ##     ##  '#######'  #'      '#     '####' #    #          



                #########################################################
                #                        -***-                          #
                #          Department of theory and spectroscopy        #
                #                                                       #
                #                      Frank Neese                      #
                #                                                       #
                #     Directorship, Architecture, Infrastructure        #
                #                    SHARK, DRIVERS                     #
                #        Core code/Algorithms in most modules           #
                #                                                       #
                #        Max Planck Institute fuer Kohlenforschung      #
                #                Kaiser Wilhelm Platz 1                 #
                #                 D-45470 Muelheim/Ruhr                 #
                #                      Germany                          #
                #                                                       #
                #                  All rights reserved                  #
                #                        -***-                          #
                #########################################################


                         Program Version 6.1.1  -  RELEASE   -
                                (GIT: $487d211c$)
                          ($2025-11-21 10:33:24 +0100$)


 With contributions from (in alphabetic order):
[Max-Planck-Institut fuer Kohlenforschung]                               
  Daniel Aravena         : Magnetic Suceptibility                        
  Michael Atanasov       : Ab Initio Ligand Field Theory (pilot matlab implementation)
  Alexander A. Auer      : GIAO ZORA, VPT2 properties, NMR spectrum      
  Ute Becker             : All parallelization in ORCA, NUMFREQ, NUMCALC 
  Giovanni Bistoni       : ED, misc. LED, open-shell LED, HFLD           
  Dmytro Bykov           : pre 5.0 version of the SCF Hessian            
  Marcos Casanova-Páez   : Triplet and SCS-CIS(D). UHF-(DLPNO)-IP/EA/STEOM-CCSD. UHF-CVS-IP/STEOM-CCSD   
  Vijay G. Chilkuri      : MRCI spin determinant printing, contributions to CSF-ICE 
  Pauline Colinet        : FMM embedding                                 
  Dipayan Datta          : RHF DLPNO-CCSD density                        
  Achintya Kumar Dutta   : EOM-CC, STEOM-CC                              
  Nicolas Foglia         : Exact transition moments, OPA infrastructure, MCD improvements    
  Dmitry Ganyushin       : Spin-Orbit,Spin-Spin,Magnetic field MRCI      
  Miquel Garcia-Rates    : C-PCM and meta-GGA Hessian, CCSD/C-PCM, Gaussian charge scheme 
  Tiago L. C. Gouveia    : GS-ROHF, GS-ROCIS                             
  Yang Guo               : DLPNO-NEVPT2, F12-NEVPT2, CIM, IAO-localization        
  Andreas Hansen         : Spin unrestricted coupled pair/coupled cluster methods 
  Ingolf Harden          : AUTO-CI MPn and infrastructure                
  Benjamin Helmich-Paris : MC-RPA, TRAH-(SCF,CASSCF), AVAS, COSX integrals, SCF dyn. polar., MC-PDFT, srDFT 
  Lee Huntington         : MR-EOM, pCC                                   
  Robert Izsak           : Overlap fitted RIJCOSX, COSX-SCS-MP3, EOM     
  Riya Kayal             : Wick's Theorem for AUTO-CI, AUTO-CI UHF-CCSDT 
  Emily Kempfer          : AUTO-CI RHF CISDT and CCSDT, approximate NEVPT4
  Christian Kollmar      : KDIIS, OOCD, Brueckner-CCSD(T), CCSD density, CASPT2, CASPT2-K, improved NEVPT2 
  Axel Koslowski         : Symmetry handling                             
  Simone Kossmann        : meta-GGA functionals, TD-DFT gradient, OOMP2, (MP2 Hessian; deprecated post 5.0) 
  Lucas Lang             : DCDCAS, Hyperfine gauge corrections, ICE-SOC+SSC
  Marvin Lechner         : AUTO-CI (C++ implementation), FIC-MRCC        
  Spencer Leger          : CASSCF response                               
  Dagmar Lenk            : GEPOL surface, SMD, ORCA-2-JSON               
  Dimitrios Liakos       : Extrapolation schemes; Compound Job, Property file
  Dimitrios Manganas     : Further ROCIS development; embedding schemes. LFT, Crystal Embedding 
  Dimitrios Pantazis     : SARC Basis sets                               
  Anastasios Papadopoulos: AUTO-CI, single reference methods and gradients 
  Taras Petrenko         : pre 6.0 DFT Hessian and TD-DFT gradient,  ECA, NRVS 
  Petra Pikulova         : Analytic Raman intensities                    
  Peter Pinski           : DLPNO-MP2, DLPNO-MP2 Gradient                 
  Shashank Vittal Rao    : ES-AILFT, MagRelax                            
  Christoph Reimann      : Effective Core Potentials                     
  Marius Retegan         : Local ZFS, SOC                                
  Christoph Riplinger    : Optimizer, TS searches, QM/MM, DLPNO-CCSD(T), (RO)-DLPNO pert. Triples 
  Michael Roemelt        : Original ROCIS implementation, recursive CI coupling coefficients
  Masaaki Saitow         : Open-shell DLPNO-CCSD energy and density      
  Barbara Sandhoefer     : DKH picture change effects                    
  Yorick L. A. Schmerwitz: GMF and freeze-and-release deltaSCF, NEB S-IDPP initial path                    
  Kantharuban Sivalingam : CASSCF convergence/infrastructure, NEVPT2, NEVPT3, NEVPT4(SD), FIC-MRCI and CEPA variants
  Bernardo de Souza      : ESD, SOC TD-DFT                               
  Georgi L. Stoychev     : AutoAux, RI-MP2 NMR, DLPNO-MP2 response, X2C  
  Van Anh Tran           : RI-MP2 g-tensors                              
  Willem Van den Heuvel  : Paramagnetic NMR                              
  Zikuan Wang            : NOTCH, Electric field optimization            
  Frank Wennmohs         : Technical directorship and infrastructure     
  Hang Xu                : AUTO-CI-Response properties                   
                                                                         
[FACCTs GmbH]                                                            
  Markus Bursch, Nicolas Foglia, Miquel Garcia-Rates, Ingolf Harden, Hagen Neugebauer, Anastasios Papadopoulos, 
  Christoph Riplinger, Bernardo de Souza, Georgi L. Stoychev                                                    
                                                                 
  APM, various basis sets, CI-OPT, improved COSX, DLPNO-Multilevel,           
  DOCKER, DRACO, updates on ESD, Fragmentator, GOAT, IRC, LR-CPCM, L-BFGS, MBIS, meta-GGA TD-DFT gradient, ML-optimized integration grids, 
  MM, NACMEs, nearIR, NEB, NEB-TS, NL-DFT gradient (VV10), 2- and 3-layer-ONIOM, interface openCOSMO-RS, QMMM,   
  Crystal-QMMM, RESP, rigid body optimization, SF, symmetry and pop. for TD-DFT, various functionals, SOLVATOR                                   
                                                                         
[Other institutions]                                                     
  V. Asgeirsson          : NEB                                           
  Christoph Bannwarth    : sTDA-DFT, sTD-DFT, PBEh-3c, B97-3c, D3        
  Giovanni Bistoni       : ETS/NOCV, ADLD/ADEX, COVALED                  
  Martin Brehm           : Molecular dynamics                            
  Ronald Cardenas        : ETS/NOCV                                      
  Martina Colucci        : COVALED                                       
  Sebastian Ehlert       : rSCAN, r2SCAN, r2SCAN-3c, D4, dhf basis sets  
  Marvin Friede          : D4 for Fr, Ra, Ac-Lr                          
  Lars Goerigk           : TD-DFT with DH, B97 family of functionals     
  Stefan Grimme          : VdW corrections, initial TS optimization, DFT functionals, gCP, sTDA/sTD-DF 
  Waldemar Hujo          : DFT-NL                                        
  H. Jonsson             : NEB                                           
  Holger Kruse           : gCP                                           
  Marcel Mueller         : wB97X-3c, vDZP basis set                      
  Hagen Neugebauer       : wr2SCAN, Native XTB                           
  Gianluca Regni         : ADLD/ADEX                                     
  Tobias Risthaus        : pre 6.0 range-separated hybrid DFT and stability analysis
  Lukas Wittmann         : regularized MP2, r2SCAN double-hybrids, wr2SCAN        
                                                                         
We gratefully acknowledge several colleagues who have allowed us to      
interface, adapt or use parts of their codes:                            
  Ed Valeev, F. Pavosevic, A. Kumar             : LibInt (2-el integral package), F12 methods 
  Garnet Chan, S. Sharma, J. Yang, R. Olivares  : DMRG                   
  Ulf Ekstrom                                   : XCFun DFT Library      
  Mihaly Kallay                                 : mrcc  (arbitrary order and MRCC methods)
  Frank Weinhold                                : gennbo (NPA and NBO analysis)           
  Simon Mueller                                 : openCOSMO-RS                            
  Christopher J. Cramer and Donald G. Truhlar   : smd solvation model                     
  S Lehtola, MJT Oliveira, MAL Marques          : LibXC Library                           
  Liviu Ungur et al                             : ANISO software                          


 Your calculation uses the libint2 library for the computation of 2-el integrals
 For citations please refer to: http://libint.valeyev.net

 Your ORCA version has been built with support for libXC version: 7.0.0
 For citations please refer to: https://libxc.gitlab.io

 This ORCA versions uses:
   CBLAS   interface :  Fast vector & matrix operations
   LAPACKE interface :  Fast linear algebra routines
   SCALAPACK package :  Parallel linear algebra routines
   Shared memory     :  Shared parallel matrices
   BLAS/LAPACK       :  OpenBLAS 0.3.29  USE64BITINT DYNAMIC_ARCH NO_AFFINITY Cooperlake SINGLE_THREADED
        Core in use  :  Cooperlake
   Copyright (c) 2011-2014, The OpenBLAS Project


  ***********************************
  * Starting time: Wed May 20 12:36:04 2026
  * Host name:     c1-48
  * Process ID:    1371310
  * Working dir.:  /cluster/projects/nn14654k/ylvaos/basis_set_n_funcs/functionals/gga_x_N12/LiS/out
  ***********************************

Using LibXC functional ID  82 : Minnesota N12 exchange functional
[ 1]  R. Peverati and D. G. Truhlar.,  J. Chem. Theory Comput. 8, 2310 (2012)
Using LibXC functional ID  82 : Minnesota N12 exchange functional
[ 1]  R. Peverati and D. G. Truhlar.,  J. Chem. Theory Comput. 8, 2310 (2012)
Your calculation utilizes LibXC
by S. Lehtola, C. Steigemann, M. J. T. Oliveira & M. A. L. Marques
Please cite in your paper:
Lehtola, S.; Steigemann, C.; Oliveira, M.J.T.; Marques, M. A. L. Software X, 7, (2018), 1.
   

================================================================================

----- Orbital basis set information -----
Your calculation utilizes the basis: aug-cc-pVTZ 
    H, B-Ne : Obtained from the ccRepo (grant-hill.group.shef.ac.uk/ccrepo) Feb. 2017
              R. A. Kendall, T. H. Dunning, Jr., R. J. Harrison, J. Chem. Phys. 96, 6796 (1992)
         He : Obtained from the ccRepo (grant-hill.group.shef.ac.uk/ccrepo) Feb. 2017
              D. E. Woon, T. H. Dunning, Jr., J. Chem. Phys. 100, 2975 (1994)
  Li-Be, Na : Obtained from the ccRepo (grant-hill.group.shef.ac.uk/ccrepo) Feb. 2017
              B. P. Prascher, D. E. Woon, K. A. Peterson, T. H. Dunning, Jr., A. K. Wilson, Theor. Chem. Acc. 128, 69 (2011)
         Mg : Obtained from the Peterson Research Group Website (tyr0.chem.wsu.edu/~kipeters) Feb. 2017
              B. P. Prascher, D. E. Woon, K. A. Peterson, T. H. Dunning, Jr., A. K. Wilson, Theor. Chem. Acc. 128, 69 (2011)
      Al-Ar : Obtained from the ccRepo (grant-hill.group.shef.ac.uk/ccrepo) Feb. 2017
              D. E. Woon, T. H. Dunning, Jr., J. Chem. Phys. 98, 1358 (1993)
      Sc-Zn : Obtained from the ccRepo (grant-hill.group.shef.ac.uk/ccrepo) Feb. 2017
              N. B. Balabanov, K. A. Peterson, J. Chem. Phys. 123, 064107 (2005)
              N. B. Balabanov, K. A. Peterson, J. Chem. Phys. 125, 074110 (2006)
      Ga-Kr : Obtained from the ccRepo (grant-hill.group.shef.ac.uk/ccrepo) Feb. 2017
              A. K. Wilson, D. E. Woon, K. A. Peterson, T. H. Dunning, Jr., J. Chem. Phys. 110, 7667 (1999)
     Ag, Au : Obtained from the Peterson Research Group Website (tyr0.chem.wsu.edu/~kipeters) Feb. 2017
              K. A. Peterson, C. Puzzarini, Theor. Chem. Acc. 114, 283 (2005)

================================================================================
                                        WARNINGS
                       Please study these warnings very carefully!
================================================================================


WARNING: your system is open-shell and RHF/RKS was chosen
  ===> : WILL SWITCH to UHF/UKS


================================================================================
                                       INPUT FILE
================================================================================
NAME = /cluster/projects/nn14654k/ylvaos/basis_set_n_funcs/functionals/gga_x_N12/LiS/inp/LiS_gga_x_N12_augccpvtz.inp
|  1> ! dft aug-cc-pVTZ TightSCF
|  2> %pal nprocs 8 end
|  3> 
|  4> %loc
|  5>   LocMet NewBoys
|  6>   Occ true
|  7> end
|  8> 
|  9> %method
| 10>   exchange gga_x_N12
| 11>   correlation None
| 12> end
| 13> 
| 14> %elprop
| 15>   Dipole true
| 16>   Quadrupole true
| 17> end
| 18> 
| 19> * xyz 0 2
| 20> Li    0.000000000000   0.000000000000  -1.074850000000
| 21> S    0.000000000000   0.000000000000   1.074850000000
| 22> *
| 23> 
| 24> 
| 25>                          ****END OF INPUT****
================================================================================

                       ****************************
                       * Single Point Calculation *
                       ****************************

---------------------------------
CARTESIAN COORDINATES (ANGSTROEM)
---------------------------------
  Li     0.000000    0.000000   -1.074850
  S      0.000000    0.000000    1.074850

----------------------------
CARTESIAN COORDINATES (A.U.)
----------------------------
  NO LB      ZA    FRAG     MASS         X           Y           Z
   0 Li    3.0000    0     6.941    0.000000    0.000000   -2.031172
   1 S    16.0000    0    32.060    0.000000    0.000000    2.031172

--------------------------------
INTERNAL COORDINATES (ANGSTROEM)
--------------------------------
 Li     0   0   0     0.000000000000     0.00000000     0.00000000
 S      1   0   0     2.149700000000     0.00000000     0.00000000

---------------------------
INTERNAL COORDINATES (A.U.)
---------------------------
 Li     0   0   0     0.000000000000     0.00000000     0.00000000
 S      1   0   0     4.062344270091     0.00000000     0.00000000

---------------------
BASIS SET INFORMATION
---------------------
There are 2 groups of distinct atoms

 Group   1 Type Li  : 21s6p3d2f contracted to 5s4p3d2f pattern {99111/3111/111/11}
 Group   2 Type S   : 42s17p3d2f contracted to 6s5p3d2f pattern {131313111/77111/111/11}

Atom   0Li   basis set group =>   1
Atom   1S    basis set group =>   2


           ************************************************************
           *        Program running with 8 parallel MPI-processes     *
           *              working on a common directory               *
           ************************************************************
------------------------------------------------------------------------------
                             ORCA STARTUP CALCULATIONS
------------------------------------------------------------------------------
------------------------------------------------------------------------------
                   ___                                                        
                  /   \      - P O W E R E D   B Y -                         
                 /     \                                                     
                 |  |  |   _    _      __       _____    __    __             
                 |  |  |  | |  | |    /  \     |  _  \  |  |  /  |          
                  \  \/   | |  | |   /    \    | | | |  |  | /  /          
                 / \  \   | |__| |  /  /\  \   | |_| |  |  |/  /          
                |  |  |   |  __  | /  /__\  \  |    /   |      \           
                |  |  |   | |  | | |   __   |  |    \   |  |\   \          
                \     /   | |  | | |  |  |  |  | |\  \  |  | \   \       
                 \___/    |_|  |_| |__|  |__|  |_| \__\ |__|  \__/        
                                                                              
                      - O R C A' S   B I G   F R I E N D -                    
                                      &                                       
                       - I N T E G R A L  F E E D E R -                       
                                                                              
 v1 FN, 2020, v2 2021, v3 2022-2024                                           
------------------------------------------------------------------------------


----------------------
SHARK INTEGRAL PACKAGE
----------------------

Number of atoms                             ...      2
Number of basis functions                   ...    128
Number of shells                            ...     52
Maximum angular momentum                    ...      3
Integral batch strategy                     ... SHARK/LIBINT Hybrid
RI-J (if used) integral strategy            ... SPLIT-RIJ (Revised 2003 algorithm where possible)
Printlevel                                  ...      1
Contraction scheme used                     ... PARTIAL GENERAL contraction
Prescreening option                         ... SCHWARTZ
   Thresh                                   ... 2.500e-11
   Tcut                                     ... 2.500e-12
   Tpresel                                  ... 2.500e-12 
Coulomb Range Separation                    ... NOT USED
Exchange Range Separation                   ... NOT USED
Multipole approximations                    ... NOT USED
Finite Nucleus Model                        ... NOT USED
CABS basis                                  ... NOT available
Auxiliary Coulomb fitting basis             ... NOT available
Auxiliary J/K fitting basis                 ... NOT available
Auxiliary Correlation fitting basis         ... NOT available
Auxiliary 'external' fitting basis          ... NOT available

Checking pre-screening integrals            ... done (  0.0 sec) Dimension = 52
Save PGC pre-screening integrals            ... done (  0.0 sec) Dimension = 52
Calculate PGC overlap integrals             ... done (  0.0 sec) Dimension = 30
Calculating pre-screening integrals (ORCA)  ... done (  0.0 sec) Dimension = 30
Shell pair information
Shell pair cut-off parameter TPreSel        ...   2.5e-12
Total number of shell pairs                 ...      1378
Shell pairs after pre-screening             ...      1252
Total number of primitive shell pairs       ...      1488
Primitive shell pairs kept                  ...      1346
          la=0 lb=0:    323 shell pairs
          la=1 lb=0:    351 shell pairs
          la=1 lb=1:    105 shell pairs
          la=2 lb=0:    168 shell pairs
          la=2 lb=1:     84 shell pairs
          la=2 lb=2:     21 shell pairs
          la=3 lb=0:    110 shell pairs
          la=3 lb=1:     56 shell pairs
          la=3 lb=2:     24 shell pairs
          la=3 lb=3:     10 shell pairs

Checking whether 4 symmetric matrices of dimension 128 fit in memory
:Max Core in MB      =   4096.00
 MB in use           =      3.24
 MB left             =   4092.76
 MB needed           =      0.25
 Data fit in memory  = YES
Calculating Nuclear repulsion               ... done (  0.0 sec) ENN=     11.815837557985 Eh

Diagonalization of the overlap matrix:
Smallest eigenvalue                        ... 6.724e-04
Time for diagonalization                   ...    0.001 sec
Threshold for overlap eigenvalues          ... 1.000e-07
Number of eigenvalues below threshold      ... 0
Time for construction of square roots      ...    0.003 sec
Total time needed                          ...    0.005 sec

-------------------
DFT GRID GENERATION
-------------------

General Integration Accuracy     IntAcc      ... 4.388
Radial Grid Type                 RadialGrid  ... OptM3 with GC (2021)
Angular Grid (max. ang.)         AngularGrid ... 4 (Lebedev-302)
Angular grid pruning method      GridPruning ... 4 (adaptive)
Weight generation scheme         WeightScheme... mBecke (2022)
Basis function cutoff            BFCut       ... 1.0000e-11
Integration weight cutoff        WCut        ... 1.0000e-14
Partially contracted basis set               ... off
Rotationally invariant grid construction     ... off
Angular grids for H and He will be reduced by one unit
Diffuse basis detected: some atoms will have their outermost
                        angular grid increased by 1.

Total number of grid points                  ...    14126
Total number of batches                      ...      221
Average number of points per batch           ...       63
Average number of grid points per atom       ...     7063

---------------------
SHARK GRID GENERATION
---------------------

General Integration Accuracy     IntAcc      ... 4.388
Radial Grid Type                 RadialGrid  ... OptM3 with GC (2021)
Angular Grid (max. ang.)         AngularGrid ... 4 (Lebedev-302)
Angular grid pruning method      GridPruning ... 4 (adaptive)
Weight generation scheme         WeightScheme... mBecke (2022)
Basis function cutoff            BFCut       ... 1.0000e-11
Integration weight cutoff        WCut        ... 1.0000e-14
Partially contracted basis set               ... off
Rotationally invariant grid construction     ... off
Angular grids for H and He will be reduced by one unit
Diffuse basis detected: some atoms will have their outermost
                        angular grid increased by 1.
Core-polarized basis detected: some atoms will have their core
                               angular grid increased.
Steep s-basis detected: some atoms will have their radial
                        grid points doubled.

Total number of grid points                  ...    33087
Total number of batches                      ...      518
Average number of points per batch           ...       63
Average number of grid points per atom       ...    16544
Grids setup in   0.7 sec
Initializing property integral containers    ... done (  0.0 sec)

SHARK setup successfully completed in   0.8 seconds

Maximum memory used throughout the entire STARTUP-calculation: 48.0 MB


           ************************************************************
           *        Program running with 8 parallel MPI-processes     *
           *              working on a common directory               *
           ************************************************************
-------------------------------------------------------------------------------
                                 ORCA GUESS
                   Start orbitals & Density for SCF / CASSCF
-------------------------------------------------------------------------------

------------
SCF SETTINGS
------------
Hamiltonian:
 Density Functional     Method          .... DFT(GTOs)
  Functional kind                       .... Exchange
  Functional name                       .... Minnesota N12 exchange functional
  Functional family                     .... GGA
  Functional refs                              
    [ 0] R. Peverati and D. G. Truhlar.,  J. Chem. Theory Comput. 8, 2310 (2012), doi: 10.1021/ct3002656
  Functional external parameters        .... 16
    Parameter  0 _CC00      =  1.000000e+00 : _CC00               
    Parameter  1 _CC01      =  5.078800e-01 : _CC01               
    Parameter  2 _CC02      =  1.682330e-01 : _CC02               
    Parameter  3 _CC03      =  1.288870e-01 : _CC03               
    Parameter  4 _CC10      =  8.602110e-02 : _CC10               
    Parameter  5 _CC11      = -1.710080e+01 : _CC11               
    Parameter  6 _CC12      =  6.508140e+01 : _CC12               
    Parameter  7 _CC13      = -7.017260e+01 : _CC13               
    Parameter  8 _CC20      = -3.907550e-01 : _CC20               
    Parameter  9 _CC21      =  5.133920e+01 : _CC21               
    Parameter 10 _CC22      = -1.662200e+02 : _CC22               
    Parameter 11 _CC23      =  1.427380e+02 : _CC23               
    Parameter 12 _CC30      =  4.036110e-01 : _CC30               
    Parameter 13 _CC31      = -3.446310e+01 : _CC31               
    Parameter 14 _CC32      =  7.616610e+01 : _CC32               
    Parameter 15 _CC33      = -2.418340e+00 : _CC33               
 Correlation Functional Correlation     .... No Correlation
 Gradients option       PostSCFGGA      .... off


General Settings:
 Integral files         IntName         .... /cluster/projects/nn14654k/ylvaos/basis_set_n_funcs/functionals/gga_x_N12/LiS/inp/LiS_gga_x_N12_augccpvtz
 Hartree-Fock type      HFTyp           .... UHF
 Total Charge           Charge          ....    0
 Multiplicity           Mult            ....    2
 Number of Electrons    NEL             ....   19
 Basis Dimension        Dim             ....   96
 Nuclear Repulsion      ENuc            ....     11.8158375580 Eh

Convergence Acceleration:
 AO-DIIS                CNVDIIS         .... on
   Start iteration      DIISMaxIt       ....    12
   Startup error        DIISStart       ....  0.200000
   # of expansion vecs  DIISMaxEq       ....     5
   Bias factor          DIISBfac        ....   1.050
   Max. coefficient     DIISMaxC        ....  10.000
 MO-DIIS                CNVKDIIS        .... off
 Trust-Rad. Augm. Hess. CNVTRAH         .... auto
   Auto Start mean grad. ratio tolernc. ....  1.125000
   Auto Start start iteration           ....    50
   Auto Start num. interpolation iter.  ....    10
   Max. Number of Micro iterations      ....    24
   Max. Number of Macro iterations      .... Maxiter - #DIIS iter
   Number of Davidson start vectors     ....     2
   Converg. threshold    (grad. norm)   ....   1.000e-05
   Grad. Scal. Fac. for Micro threshold ....   0.100
   Minimum threshold for Micro iter.    ....   1.000e-02
   NR start threshold (gradient norm)   ....   1.000e-04
   Initial trust radius                 ....   0.400
   Minimum AH scaling param. (alpha)    ....   1.000
   Maximum AH scaling param. (alpha)    .... 1000.000
   Quad. conv. algorithm                .... NR
   White noise on init. David. guess    .... on
   Maximum white noise                  ....   0.010
   Pseudo random numbers                .... off
   Inactive MOs                         .... canonical
   Orbital update algorithm             .... Taylor
   Preconditioner                       .... Diag
   Full preconditioner red. dimension   ....   250
 SOSCF                 CNVSOSCF           .... on
   Start iteration     SOSCFMaxIt         ....   150
   Startup grad/error  SOSCFStart         ....  0.003300
   Hessian update      SOSCFHessUp        .... L-BFGS
   Autom. constraints  SOSCFAutoConstrain .... off
 Level Shifting         CNVShift        .... on
   Level shift para.    LevelShift      ....    0.2500
   Turn off err/grad.   ShiftErr        ....    0.0010
 Zerner damping         CNVZerner       .... off
 Static damping         CNVDamp         .... on
   Fraction old density DampFac         ....    0.7000
   Max. Damping (<1)    DampMax         ....    0.9800
   Min. Damping (>=0)   DampMin         ....    0.0000
   Turn off err/grad.   DampErr         ....    0.1000

SCF Procedure:
 Maximum # iterations   MaxIter         ....   125
 SCF integral mode      SCFMode         .... Direct
   Integral package                     .... SHARK and LIBINT hybrid scheme
 Reset frequency        DirectResetFreq ....    20
 Integral Threshold     Thresh          ....  2.500e-11 Eh
 Primitive CutOff       TCut            ....  2.500e-12 Eh

Convergence Tolerance:
 Convergence Check Mode ConvCheckMode   .... Total+1el-Energy
 Convergence forced     ConvForced      .... 0
 Energy Change          TolE            ....  1.000e-08 Eh
 1-El. energy change                    ....  1.000e-05 Eh
 Orbital Gradient       TolG            ....  1.000e-05
 Orbital Rotation angle TolX            ....  1.000e-05
 DIIS Error             TolErr          ....  5.000e-07

------------------------------
INITIAL GUESS: MODEL POTENTIAL
------------------------------
Loading Hartree-Fock densities                     ... done
Calculating cut-offs                               ... done
Initializing the effective Hamiltonian             ... done
Setting up the integral package (SHARK)            ... done
Starting the Coulomb interaction                   ... done (   0.0 sec)
Making the grid                                    ... done (   0.0 sec)
Mapping shells                                     ... done
Starting the XC term evaluation                    ... done (   0.0 sec)
  promolecular density results
     # of electrons  =     18.999681821
     EX              =    -26.297699575
     EC              =      0.000000000
     EX+EC           =    -26.297699575
Transforming the Hamiltonian                       ... done (   0.0 sec)
Diagonalizing the Hamiltonian                      ... done (   0.0 sec)
Back transforming the eigenvectors                 ... done (   0.0 sec)
Now organizing SCF variables                       ... done
                      ------------------
                      INITIAL GUESS DONE (   0.1 sec)
                      ------------------
             **** ENERGY FILE WAS UPDATED (/cluster/projects/nn14654k/ylvaos/basis_set_n_funcs/functionals/gga_x_N12/LiS/inp/LiS_gga_x_N12_augccpvtz.en.tmp) ****
Finished Guess after   0.2 sec
Maximum memory used throughout the entire GUESS-calculation: 7.1 MB


           ************************************************************
           *        Program running with 8 parallel MPI-processes     *
           *              working on a common directory               *
           ************************************************************

-------------------------------------------------------------------------------------------
                                      ORCA LEAN-SCF
                              memory conserving SCF solver
-------------------------------------------------------------------------------------------

----------------------------------------D-I-I-S--------------------------------------------
Iteration    Energy (Eh)           Delta-E    RMSDP     MaxDP     DIISErr   Damp  Time(sec)
-------------------------------------------------------------------------------------------
               ***  Starting incremental Fock matrix formation  ***
    1    -404.5165774128015528     0.00e+00  4.37e-03  3.80e-02  6.17e-02  0.700   0.2
Warning: op=0 Small HOMO/LUMO gap (   0.028) - skipping pre-diagonalization
         Will do a full diagonalization
    2    -404.5383316992333675    -2.18e-02  3.64e-03  4.01e-02  3.27e-02  0.700   0.1
                               ***Turning on AO-DIIS***
    3    -404.5473776283218967    -9.05e-03  1.38e-03  1.11e-02  1.33e-02  0.700   0.2
    4    -404.5515776053965737    -4.20e-03  3.18e-03  3.04e-02  9.09e-03  0.000   0.2
    5    -404.5617980890187937    -1.02e-02  7.66e-04  9.11e-03  9.54e-03  0.000   0.1
    6    -404.5626662624066512    -8.68e-04  2.81e-04  2.05e-03  4.85e-03  0.000   0.2
                              *** Initializing SOSCF ***
---------------------------------------S-O-S-C-F--------------------------------------
Iteration    Energy (Eh)           Delta-E    RMSDP     MaxDP     MaxGrad    Time(sec)
--------------------------------------------------------------------------------------
    7    -404.5628845786268926    -2.18e-04  1.38e-04  9.90e-04  2.54e-03     0.2
               *** Restarting incremental Fock matrix formation ***
    8    -404.5629440549460583    -5.95e-05  3.17e-04  3.17e-03  1.26e-03     0.1
    9    -404.5629457160684410    -1.66e-06  2.24e-04  2.43e-03  1.17e-03     0.1
   10    -404.5629714432890296    -2.57e-05  5.41e-05  4.66e-04  1.22e-04     0.1
   11    -404.5629718118185565    -3.69e-07  2.21e-05  2.71e-04  6.78e-05     0.1
   12    -404.5629718831254991    -7.13e-08  7.23e-06  7.72e-05  1.78e-05     0.1
   13    -404.5629718924830627    -9.36e-09  4.28e-06  4.08e-05  7.80e-06     0.1
                 **** Energy Check signals convergence ****

               *****************************************************
               *                     SUCCESS                       *
               *           SCF CONVERGED AFTER  13 CYCLES          *
               *****************************************************

             **** ENERGY FILE WAS UPDATED (/cluster/projects/nn14654k/ylvaos/basis_set_n_funcs/functionals/gga_x_N12/LiS/inp/LiS_gga_x_N12_augccpvtz.en.tmp) ****

----------------
TOTAL SCF ENERGY
----------------

Total Energy       :       -404.56297189503312 Eh          -11008.71814 eV

Components:
Nuclear Repulsion  :         11.81583755798484 Eh             321.52529 eV
Electronic Energy  :       -416.37880945301794 Eh          -11330.24342 eV
One Electron Energy:       -584.52956281764239 Eh          -15905.85804 eV
Two Electron Energy:        168.15075336462445 Eh            4575.61462 eV

Virial components:
Potential Energy   :       -809.54581944967435 Eh          -22028.86167 eV
Kinetic Energy     :        404.98284755464124 Eh           11020.14354 eV
Virial Ratio       :          1.99896322606712

DFT components:
N(Alpha)           :       10.000014162230 electrons
N(Beta)            :        9.000013677618 electrons
N(Total)           :       19.000027839849 electrons
E(X)               :      -26.430072478926 Eh       
E(C)               :        0.000000000000 Eh       
E(XC)              :      -26.430072478926 Eh       

---------------
SCF CONVERGENCE
---------------

  Last Energy change         ...    9.3576e-09  Tolerance :   1.0000e-08
  Last MAX-Density change    ...    4.0804e-05  Tolerance :   1.0000e-07
  Last RMS-Density change    ...    4.2805e-06  Tolerance :   5.0000e-09
  Last DIIS Error            ...    2.5449e-03  Tolerance :   5.0000e-07
  Last Orbital Gradient      ...    7.7988e-06  Tolerance :   1.0000e-05
  Last Orbital Rotation      ...    6.7244e-05  Tolerance :   1.0000e-05


----------------------
UHF SPIN CONTAMINATION
----------------------

Warning: in a DFT calculation there is little theoretical justification to 
         calculate <S**2> as in Hartree-Fock theory. We will do it anyways
         but you should keep in mind that the values have only limited relevance

Expectation value of <S**2>     :     0.759568
Ideal value S*(S+1) for S=0.5   :     0.750000
Deviation                       :     0.009568

----------------
ORBITAL ENERGIES
----------------
                 SPIN UP ORBITALS
  NO   OCC          E(Eh)            E(eV) 
   0   1.0000     -87.840724     -2390.2676 
   1   1.0000      -7.593787      -206.6374 
   2   1.0000      -5.742633      -156.2650 
   3   1.0000      -5.726641      -155.8298 
   4   1.0000      -5.726021      -155.8130 
   5   1.0000      -1.882690       -51.2306 
   6   1.0000      -0.519906       -14.1474 
   7   1.0000      -0.192950        -5.2504 
   8   1.0000      -0.168504        -4.5852 
   9   1.0000      -0.146575        -3.9885 
  10   0.0000      -0.074601        -2.0300 
  11   0.0000      -0.014728        -0.4008 
  12   0.0000      -0.009510        -0.2588 
  13   0.0000       0.003469         0.0944 
  14   0.0000       0.005943         0.1617 
  15   0.0000       0.019398         0.5278 
  16   0.0000       0.021172         0.5761 
  17   0.0000       0.040078         1.0906 
  18   0.0000       0.062585         1.7030 
  19   0.0000       0.062947         1.7129 
  20   0.0000       0.064037         1.7425 

                 SPIN DOWN ORBITALS
  NO   OCC          E(Eh)            E(eV) 
   0   1.0000     -87.833750     -2390.0779 
   1   1.0000      -7.587685      -206.4714 
   2   1.0000      -5.728211      -155.8725 
   3   1.0000      -5.722636      -155.7208 
   4   1.0000      -5.721911      -155.7011 
   5   1.0000      -1.883137       -51.2428 
   6   1.0000      -0.469654       -12.7799 
   7   1.0000      -0.150369        -4.0918 
   8   1.0000      -0.128829        -3.5056 
   9   0.0000      -0.110337        -3.0024 
  10   0.0000      -0.077317        -2.1039 
  11   0.0000      -0.010303        -0.2804 
  12   0.0000      -0.007505        -0.2042 
  13   0.0000       0.003882         0.1056 
  14   0.0000       0.006175         0.1680 
  15   0.0000       0.020673         0.5625 
  16   0.0000       0.020807         0.5662 
  17   0.0000       0.041168         1.1202 
  18   0.0000       0.063084         1.7166 
  19   0.0000       0.064447         1.7537 
*Only the first 10 virtual orbitals were printed.

                    ********************************
                    * MULLIKEN POPULATION ANALYSIS *
                    ********************************

--------------------------------------------
MULLIKEN ATOMIC CHARGES AND SPIN POPULATIONS
--------------------------------------------
   0 Li:    0.179038   -0.017991
   1 S :   -0.179038    1.017991
Sum of atomic charges         :    0.0000000
Sum of atomic spin populations:    1.0000000

-----------------------------------------------------
MULLIKEN REDUCED ORBITAL CHARGES AND SPIN POPULATIONS
-----------------------------------------------------
CHARGE
  0 Lis       :     2.380725  s :     2.380725
      pz      :     0.190070  p :     0.365041
      px      :     0.131956
      py      :     0.043015
      dz2     :     0.017324  d :     0.059733
      dxz     :     0.028645
      dyz     :     0.013701
      dx2y2   :     0.000048
      dxy     :     0.000016
      f0      :     0.003644  f :     0.015464
      f+1     :     0.007782
      f-1     :     0.003972
      f+2     :     0.000019
      f-2     :     0.000006
      f+3     :     0.000020
      f-3     :     0.000020

  1 S s       :     5.872792  s :     5.872792
      pz      :     3.515798  p :    10.284405
      px      :     3.764629
      py      :     3.003978
      dz2     :     0.013391  d :     0.016598
      dxz     :     0.000669
      dyz     :     0.001028
      dx2y2   :     0.001138
      dxy     :     0.000372
      f0      :     0.004407  f :     0.005243
      f+1     :    -0.000000
      f-1     :    -0.000106
      f+2     :     0.000188
      f-2     :     0.000061
      f+3     :     0.000347
      f-3     :     0.000346


SPIN
  0 Lis       :    -0.046722  s :    -0.046722
      pz      :    -0.002336  p :     0.013669
      px      :    -0.016409
      py      :     0.032414
      dz2     :     0.000562  d :     0.011810
      dxz     :    -0.000208
      dyz     :     0.011417
      dx2y2   :     0.000029
      dxy     :     0.000009
      f0      :     0.000153  f :     0.003252
      f+1     :    -0.000212
      f-1     :     0.003271
      f+2     :     0.000006
      f-2     :     0.000002
      f+3     :     0.000016
      f-3     :     0.000016

  1 S s       :     0.018147  s :     0.018147
      pz      :     0.029099  p :     0.997051
      px      :     0.082190
      py      :     0.885762
      dz2     :     0.000101  d :     0.002315
      dxz     :     0.000371
      dyz     :     0.001007
      dx2y2   :     0.000630
      dxy     :     0.000206
      f0      :    -0.000083  f :     0.000478
      f+1     :    -0.000141
      f-1     :    -0.000116
      f+2     :     0.000147
      f-2     :     0.000048
      f+3     :     0.000312
      f-3     :     0.000312



                     *******************************
                     * LOEWDIN POPULATION ANALYSIS *
                     *******************************

-------------------------------------------
LOEWDIN ATOMIC CHARGES AND SPIN POPULATIONS
-------------------------------------------
   0 Li:   -0.479862    0.164760
   1 S :    0.479862    0.835240

----------------------------------------------------
LOEWDIN REDUCED ORBITAL CHARGES AND SPIN POPULATIONS
----------------------------------------------------
CHARGE
  0 Lis       :     2.162694  s :     2.162694
      pz      :     0.296832  p :     0.562091
      px      :     0.191460
      py      :     0.073799
      dz2     :     0.222939  d :     0.440645
      dxz     :     0.140147
      dyz     :     0.077499
      dx2y2   :     0.000046
      dxy     :     0.000015
      f0      :     0.128651  f :     0.314432
      f+1     :     0.115986
      f-1     :     0.069702
      f+2     :     0.000035
      f-2     :     0.000012
      f+3     :     0.000023
      f-3     :     0.000023

  1 S s       :     5.463362  s :     5.463362
      pz      :     3.682159  p :    10.010808
      px      :     3.484516
      py      :     2.844132
      dz2     :     0.025901  d :     0.028529
      dxz     :     0.000826
      dyz     :     0.000313
      dx2y2   :     0.001122
      dxy     :     0.000367
      f0      :     0.015614  f :     0.017440
      f+1     :     0.000746
      f-1     :     0.000142
      f+2     :     0.000189
      f-2     :     0.000062
      f+3     :     0.000344
      f-3     :     0.000343


SPIN
  0 Lis       :    -0.017823  s :    -0.017823
      pz      :    -0.001161  p :     0.042541
      px      :    -0.015407
      py      :     0.059109
      dz2     :     0.000341  d :     0.072562
      dxz     :     0.005023
      dyz     :     0.067156
      dx2y2   :     0.000032
      dxy     :     0.000010
      f0      :     0.001354  f :     0.067480
      f+1     :     0.006582
      f-1     :     0.059477
      f+2     :     0.000024
      f-2     :     0.000008
      f+3     :     0.000018
      f-3     :     0.000018

  1 S s       :     0.006166  s :     0.006166
      pz      :     0.010016  p :     0.827619
      px      :     0.069829
      py      :     0.747775
      dz2     :     0.000127  d :     0.000932
      dxz     :    -0.000170
      dyz     :     0.000168
      dx2y2   :     0.000608
      dxy     :     0.000199
      f0      :    -0.000096  f :     0.000523
      f+1     :    -0.000266
      f-1     :     0.000069
      f+2     :     0.000149
      f-2     :     0.000049
      f+3     :     0.000309
      f-3     :     0.000309



                      *****************************
                      * MAYER POPULATION ANALYSIS *
                      *****************************

  NA   - Mulliken gross atomic population
  ZA   - Total nuclear charge
  QA   - Mulliken gross atomic charge
  VA   - Mayer's total valence
  BVA  - Mayer's bonded valence
  FA   - Mayer's free valence

  ATOM       NA         ZA         QA         VA         BVA        FA
  0 Li     2.8210     3.0000     0.1790     1.3099     1.3038     0.0061
  1 S     16.1790    16.0000    -0.1790     2.2158     1.3038     0.9120

  Mayer bond orders larger than 0.100000
B(  0-Li,  1-S ) :   1.3038 

-------
TIMINGS
-------

Total SCF time: 0 days 0 hours 0 min 2 sec 

Total time                  ....       2.152 sec
Sum of individual times     ....       2.046 sec  ( 95.1%)

SCF preparation             ....       0.061 sec  (  2.8%)
Fock matrix formation       ....       1.401 sec  ( 65.1%)
  Startup                   ....       0.015 sec  (  1.1% of F)
  Coulomb formation         ....       0.628 sec  ( 44.8% of F)
  XC integration            ....       0.468 sec  ( 33.4% of F)
    XC Preparation          ....       0.000 sec  (  0.0% of XC)
    Basis function eval.    ....       0.029 sec  (  6.3% of XC)
    Density eval.           ....       0.024 sec  (  5.2% of XC)
    XC-Functional eval.     ....       0.009 sec  (  1.9% of XC)
    XC-Potential eval.      ....       0.069 sec  ( 14.7% of XC)
Diagonalization             ....       0.000 sec  (  0.0%)
Density matrix formation    ....       0.128 sec  (  5.9%)
Total Energy calculation    ....       0.027 sec  (  1.2%)
Population analysis         ....       0.014 sec  (  0.6%)
Orbital Transformation      ....       0.023 sec  (  1.1%)
Orbital Orthonormalization  ....       0.000 sec  (  0.0%)
DIIS solution               ....       0.270 sec  ( 12.5%)
SOSCF solution              ....       0.124 sec  (  5.8%)
Finished LeanSCF after   2.2 sec

Maximum memory used throughout the entire LEANSCF-calculation: 11.4 MB


           ************************************************************
           *        Program running with 8 parallel MPI-processes     *
           *              working on a common directory               *
           ************************************************************

------------------------------------------------------------------------------
                         ORCA PROPERTY INTEGRAL CALCULATIONS
------------------------------------------------------------------------------

GBWName                                   ... /cluster/projects/nn14654k/ylvaos/basis_set_n_funcs/functionals/gga_x_N12/LiS/inp/LiS_gga_x_N12_augccpvtz.gbw
Number of atoms                           ...      2
Number of basis functions                 ...    128
Max core memory                           ...   4096 MB

Dipole integrals                          ... YES
Quadrupole integrals                      ... YES
Linear momentum integrals                 ...  NO
Angular momentum integrals                ...  NO
Higher moments length integrals           ...  NO
Higher moments velocity integrals         ...  NO
Kinetic energy integrals                  ...  NO
GIAO right hand sides                     ...  NO
GIAO dipole derivative integrals          ...  NO
SOC integrals                             ...  NO
EPR diamagnetic integrals (GIAO)          ...  NO
EPR gauge integrals                       ...  NO
Field gradient integrals                  ...  NO (   0 nuclei)
Spin-dipole/Fermi contact integrals       ...  NO (   0 nuclei)
Contact density integrals                 ...  NO (   0 nuclei)
Nucleus-orbit integrals                   ...  NO (   0 nuclei)
Geometric perturbations                   ...  NO (   2 nuclei)

Choice of electric origin   ... Center of mass
Position of electric origin ... (  0.0000,  0.0000,  1.3082) 
Choice of magnetic origin   ... GIAO
Position of magnetic origin ... (  0.0000,  0.0000,  0.0000) 

Calculating integrals                     ... Electric Dipole (Length)     done (  0.0 sec)
Calculating integrals                     ... Electric Quadrupole (Length) done (  0.0 sec)

Property integrals calculated in   0.0 sec

Maximum memory used throughout the entire PROPINT-calculation: 7.5 MB
------------------------------------------------------------------------------
                           ORCA ORBITAL LOCALIZATION
------------------------------------------------------------------------------

Input orbitals are from                  ... /cluster/projects/nn14654k/ylvaos/basis_set_n_funcs/functionals/gga_x_N12/LiS/inp/LiS_gga_x_N12_augccpvtz.gbw
Output orbitals are to                   ... /cluster/projects/nn14654k/ylvaos/basis_set_n_funcs/functionals/gga_x_N12/LiS/inp/LiS_gga_x_N12_augccpvtz.loc
Max. number of iterations                ... 128
Localizations seeded randomly            ... on
Convergence tolerance                    ... 1.000e-06
Threshold for strong local MOs           ... 9.500e-01
Threshold for bond MOs                   ... 8.500e-01
Operator                                 ... 0
Orbital range for localization           ... 5 to 9
Localization criterion                   ... NEW-BOYS
Doing the dipole integrals               ... o.k.
Initial value of the localization sum :    12.482335
ITERATION   0 : L=   15.5257564755 DL=  3.04e+00 (AVERGE_DL)=    0.5516721699 
ITERATION   1 : L=   15.7175099411 DL=  1.92e-01 (AVERGE_DL)=    0.1384750756 
ITERATION   2 : L=   15.7583521540 DL=  4.08e-02 (AVERGE_DL)=    0.0639079126 
ITERATION   3 : L=   15.7879419521 DL=  2.96e-02 (AVERGE_DL)=    0.0543965055 
ITERATION   4 : L=   15.8013274384 DL=  1.34e-02 (AVERGE_DL)=    0.0365861808 
ITERATION   5 : L=   15.8079421070 DL=  6.61e-03 (AVERGE_DL)=    0.0257189980 
ITERATION   6 : L=   15.8109190769 DL=  2.98e-03 (AVERGE_DL)=    0.0172538979 
ITERATION   7 : L=   15.8123652129 DL=  1.45e-03 (AVERGE_DL)=    0.0120255397 
ITERATION   8 : L=   15.8131815093 DL=  8.16e-04 (AVERGE_DL)=    0.0090349123 
ITERATION   9 : L=   15.8137535876 DL=  5.72e-04 (AVERGE_DL)=    0.0075635854 
ITERATION  10 : L=   15.8142273524 DL=  4.74e-04 (AVERGE_DL)=    0.0068830578 
ITERATION  11 : L=   15.8146515338 DL=  4.24e-04 (AVERGE_DL)=    0.0065129205 
ITERATION  12 : L=   15.8150387338 DL=  3.87e-04 (AVERGE_DL)=    0.0062225399 
ITERATION  13 : L=   15.8153903690 DL=  3.52e-04 (AVERGE_DL)=    0.0059298834 
ITERATION  14 : L=   15.8157059253 DL=  3.16e-04 (AVERGE_DL)=    0.0056174402 
ITERATION  15 : L=   15.8159857781 DL=  2.80e-04 (AVERGE_DL)=    0.0052901115 
ITERATION  16 : L=   15.8162316165 DL=  2.46e-04 (AVERGE_DL)=    0.0049582095 
ITERATION  17 : L=   15.8164461144 DL=  2.14e-04 (AVERGE_DL)=    0.0046313913 
ITERATION  18 : L=   15.8166324777 DL=  1.86e-04 (AVERGE_DL)=    0.0043169815 
ITERATION  19 : L=   15.8167940717 DL=  1.62e-04 (AVERGE_DL)=    0.0040198757 
ITERATION  20 : L=   15.8169341672 DL=  1.40e-04 (AVERGE_DL)=    0.0037429334 
ITERATION  21 : L=   15.8170557913 DL=  1.22e-04 (AVERGE_DL)=    0.0034874657 
ITERATION  22 : L=   15.8171616550 DL=  1.06e-04 (AVERGE_DL)=    0.0032536691 
ITERATION  23 : L=   15.8172541303 DL=  9.25e-05 (AVERGE_DL)=    0.0030409753 
ITERATION  24 : L=   15.8173352594 DL=  8.11e-05 (AVERGE_DL)=    0.0028483182 
ITERATION  25 : L=   15.8174067800 DL=  7.15e-05 (AVERGE_DL)=    0.0026743318 
ITERATION  26 : L=   15.8174701577 DL=  6.34e-05 (AVERGE_DL)=    0.0025174945 
ITERATION  27 : L=   15.8175266225 DL=  5.65e-05 (AVERGE_DL)=    0.0023762320 
ITERATION  28 : L=   15.8175772020 DL=  5.06e-05 (AVERGE_DL)=    0.0022489883 
ITERATION  29 : L=   15.8176227532 DL=  4.56e-05 (AVERGE_DL)=    0.0021342737 
ITERATION  30 : L=   15.8176639905 DL=  4.12e-05 (AVERGE_DL)=    0.0020306949 
ITERATION  31 : L=   15.8177015091 DL=  3.75e-05 (AVERGE_DL)=    0.0019369723 
ITERATION  32 : L=   15.8177358064 DL=  3.43e-05 (AVERGE_DL)=    0.0018519529 
ITERATION  33 : L=   15.8177672978 DL=  3.15e-05 (AVERGE_DL)=    0.0017745830 
ITERATION  34 : L=   15.8177963324 DL=  2.90e-05 (AVERGE_DL)=    0.0017039541 
ITERATION  35 : L=   15.8178232040 DL=  2.69e-05 (AVERGE_DL)=    0.0016392550 
ITERATION  36 : L=   15.8178481609 DL=  2.50e-05 (AVERGE_DL)=    0.0015797742 
ITERATION  37 : L=   15.8178714131 DL=  2.33e-05 (AVERGE_DL)=    0.0015248691 
ITERATION  38 : L=   15.8178931428 DL=  2.17e-05 (AVERGE_DL)=    0.0014740983 
ITERATION  39 : L=   15.8179135020 DL=  2.04e-05 (AVERGE_DL)=    0.0014268560 
ITERATION  40 : L=   15.8179326234 DL=  1.91e-05 (AVERGE_DL)=    0.0013828018 
ITERATION  41 : L=   15.8179506237 DL=  1.80e-05 (AVERGE_DL)=    0.0013416521 
ITERATION  42 : L=   15.8179676010 DL=  1.70e-05 (AVERGE_DL)=    0.0013029707 
ITERATION  43 : L=   15.8179836448 DL=  1.60e-05 (AVERGE_DL)=    0.0012666413 
ITERATION  44 : L=   15.8179988304 DL=  1.52e-05 (AVERGE_DL)=    0.0012322997 
ITERATION  45 : L=   15.8180132273 DL=  1.44e-05 (AVERGE_DL)=    0.0011998696 
ITERATION  46 : L=   15.8180268942 DL=  1.37e-05 (AVERGE_DL)=    0.0011690535 
ITERATION  47 : L=   15.8180398865 DL=  1.30e-05 (AVERGE_DL)=    0.0011398378 
ITERATION  48 : L=   15.8180522509 DL=  1.24e-05 (AVERGE_DL)=    0.0011119553 
ITERATION  49 : L=   15.8180640324 DL=  1.18e-05 (AVERGE_DL)=    0.0010854284 
ITERATION  50 : L=   15.8180752685 DL=  1.12e-05 (AVERGE_DL)=    0.0010600023 
ITERATION  51 : L=   15.8180859960 DL=  1.07e-05 (AVERGE_DL)=    0.0010357362 
ITERATION  52 : L=   15.8180962459 DL=  1.02e-05 (AVERGE_DL)=    0.0010124163 
ITERATION  53 : L=   15.8181060487 DL=  9.80e-06 (AVERGE_DL)=    0.0009900926 
ITERATION  54 : L=   15.8181154303 DL=  9.38e-06 (AVERGE_DL)=    0.0009685864 
ITERATION  55 : L=   15.8181244166 DL=  8.99e-06 (AVERGE_DL)=    0.0009479625 
ITERATION  56 : L=   15.8181330290 DL=  8.61e-06 (AVERGE_DL)=    0.0009280275 
ITERATION  57 : L=   15.8181412895 DL=  8.26e-06 (AVERGE_DL)=    0.0009088741 
ITERATION  58 : L=   15.8181492165 DL=  7.93e-06 (AVERGE_DL)=    0.0008903402 
ITERATION  59 : L=   15.8181568290 DL=  7.61e-06 (AVERGE_DL)=    0.0008724940 
ITERATION  60 : L=   15.8181641427 DL=  7.31e-06 (AVERGE_DL)=    0.0008552006 
ITERATION  61 : L=   15.8181711741 DL=  7.03e-06 (AVERGE_DL)=    0.0008385360 
ITERATION  62 : L=   15.8181779366 DL=  6.76e-06 (AVERGE_DL)=    0.0008223417 
ITERATION  63 : L=   15.8181844443 DL=  6.51e-06 (AVERGE_DL)=    0.0008067075 
ITERATION  64 : L=   15.8181907097 DL=  6.27e-06 (AVERGE_DL)=    0.0007915419 
ITERATION  65 : L=   15.8181967447 DL=  6.03e-06 (AVERGE_DL)=    0.0007768505 
ITERATION  66 : L=   15.8182025599 DL=  5.82e-06 (AVERGE_DL)=    0.0007625746 
ITERATION  67 : L=   15.8182081662 DL=  5.61e-06 (AVERGE_DL)=    0.0007487511 
ITERATION  68 : L=   15.8182135737 DL=  5.41e-06 (AVERGE_DL)=    0.0007353561 
ITERATION  69 : L=   15.8182187904 DL=  5.22e-06 (AVERGE_DL)=    0.0007222712 
ITERATION  70 : L=   15.8182238261 DL=  5.04e-06 (AVERGE_DL)=    0.0007096291 
ITERATION  71 : L=   15.8182286882 DL=  4.86e-06 (AVERGE_DL)=    0.0006972836 
ITERATION  72 : L=   15.8182333845 DL=  4.70e-06 (AVERGE_DL)=    0.0006852968 
ITERATION  73 : L=   15.8182379230 DL=  4.54e-06 (AVERGE_DL)=    0.0006736824 
ITERATION  74 : L=   15.8182423097 DL=  4.39e-06 (AVERGE_DL)=    0.0006623237 
ITERATION  75 : L=   15.8182465512 DL=  4.24e-06 (AVERGE_DL)=    0.0006512698 
ITERATION  76 : L=   15.8182506544 DL=  4.10e-06 (AVERGE_DL)=    0.0006405616 
ITERATION  77 : L=   15.8182546242 DL=  3.97e-06 (AVERGE_DL)=    0.0006300613 
ITERATION  78 : L=   15.8182584664 DL=  3.84e-06 (AVERGE_DL)=    0.0006198552 
ITERATION  79 : L=   15.8182621868 DL=  3.72e-06 (AVERGE_DL)=    0.0006099488 
ITERATION  80 : L=   15.8182657897 DL=  3.60e-06 (AVERGE_DL)=    0.0006002433 
ITERATION  81 : L=   15.8182692799 DL=  3.49e-06 (AVERGE_DL)=    0.0005907777 
ITERATION  82 : L=   15.8182726624 DL=  3.38e-06 (AVERGE_DL)=    0.0005815965 
ITERATION  83 : L=   15.8182759409 DL=  3.28e-06 (AVERGE_DL)=    0.0005725756 
ITERATION  84 : L=   15.8182791195 DL=  3.18e-06 (AVERGE_DL)=    0.0005637946 
ITERATION  85 : L=   15.8182822025 DL=  3.08e-06 (AVERGE_DL)=    0.0005552480 
ITERATION  86 : L=   15.8182851933 DL=  2.99e-06 (AVERGE_DL)=    0.0005468823 
ITERATION  87 : L=   15.8182880955 DL=  2.90e-06 (AVERGE_DL)=    0.0005387171 
ITERATION  88 : L=   15.8182909124 DL=  2.82e-06 (AVERGE_DL)=    0.0005307497 
ITERATION  89 : L=   15.8182936470 DL=  2.73e-06 (AVERGE_DL)=    0.0005229335 
ITERATION  90 : L=   15.8182963027 DL=  2.66e-06 (AVERGE_DL)=    0.0005153303 
ITERATION  91 : L=   15.8182988823 DL=  2.58e-06 (AVERGE_DL)=    0.0005078959 
ITERATION  92 : L=   15.8183013883 DL=  2.51e-06 (AVERGE_DL)=    0.0005005995 
ITERATION  93 : L=   15.8183038235 DL=  2.44e-06 (AVERGE_DL)=    0.0004934795 
ITERATION  94 : L=   15.8183061907 DL=  2.37e-06 (AVERGE_DL)=    0.0004865456 
ITERATION  95 : L=   15.8183084924 DL=  2.30e-06 (AVERGE_DL)=    0.0004797514 
ITERATION  96 : L=   15.8183107302 DL=  2.24e-06 (AVERGE_DL)=    0.0004730622 
ITERATION  97 : L=   15.8183129068 DL=  2.18e-06 (AVERGE_DL)=    0.0004665415 
ITERATION  98 : L=   15.8183150244 DL=  2.12e-06 (AVERGE_DL)=    0.0004601730 
ITERATION  99 : L=   15.8183170851 DL=  2.06e-06 (AVERGE_DL)=    0.0004539486 
ITERATION 100 : L=   15.8183190905 DL=  2.01e-06 (AVERGE_DL)=    0.0004478110 
ITERATION 101 : L=   15.8183210427 DL=  1.95e-06 (AVERGE_DL)=    0.0004418375 
ITERATION 102 : L=   15.8183229433 DL=  1.90e-06 (AVERGE_DL)=    0.0004359572 
ITERATION 103 : L=   15.8183247945 DL=  1.85e-06 (AVERGE_DL)=    0.0004302622 
ITERATION 104 : L=   15.8183265974 DL=  1.80e-06 (AVERGE_DL)=    0.0004245993 
ITERATION 105 : L=   15.8183283537 DL=  1.76e-06 (AVERGE_DL)=    0.0004190818 
ITERATION 106 : L=   15.8183300649 DL=  1.71e-06 (AVERGE_DL)=    0.0004136742 
ITERATION 107 : L=   15.8183317328 DL=  1.67e-06 (AVERGE_DL)=    0.0004084020 
ITERATION 108 : L=   15.8183333586 DL=  1.63e-06 (AVERGE_DL)=    0.0004032055 
ITERATION 109 : L=   15.8183349436 DL=  1.58e-06 (AVERGE_DL)=    0.0003981196 
ITERATION 110 : L=   15.8183364889 DL=  1.55e-06 (AVERGE_DL)=    0.0003931082 
ITERATION 111 : L=   15.8183379962 DL=  1.51e-06 (AVERGE_DL)=    0.0003882386 
ITERATION 112 : L=   15.8183394663 DL=  1.47e-06 (AVERGE_DL)=    0.0003834117 
ITERATION 113 : L=   15.8183409005 DL=  1.43e-06 (AVERGE_DL)=    0.0003787133 
ITERATION 114 : L=   15.8183422998 DL=  1.40e-06 (AVERGE_DL)=    0.0003740768 
ITERATION 115 : L=   15.8183436656 DL=  1.37e-06 (AVERGE_DL)=    0.0003695609 
ITERATION 116 : L=   15.8183449985 DL=  1.33e-06 (AVERGE_DL)=    0.0003650883 
ITERATION 117 : L=   15.8183462996 DL=  1.30e-06 (AVERGE_DL)=    0.0003607143 
ITERATION 118 : L=   15.8183475701 DL=  1.27e-06 (AVERGE_DL)=    0.0003564391 
ITERATION 119 : L=   15.8183488110 DL=  1.24e-06 (AVERGE_DL)=    0.0003522548 
ITERATION 120 : L=   15.8183500226 DL=  1.21e-06 (AVERGE_DL)=    0.0003480831 
ITERATION 121 : L=   15.8183512060 DL=  1.18e-06 (AVERGE_DL)=    0.0003440166 
ITERATION 122 : L=   15.8183523622 DL=  1.16e-06 (AVERGE_DL)=    0.0003400222 
ITERATION 123 : L=   15.8183534918 DL=  1.13e-06 (AVERGE_DL)=    0.0003360983 
ITERATION 124 : L=   15.8183545959 DL=  1.10e-06 (AVERGE_DL)=    0.0003322751 
ITERATION 125 : L=   15.8183556748 DL=  1.08e-06 (AVERGE_DL)=    0.0003284743 
ITERATION 126 : L=   15.8183567295 DL=  1.05e-06 (AVERGE_DL)=    0.0003247582 
ITERATION 127 : L=   15.8183577607 DL=  1.03e-06 (AVERGE_DL)=    0.0003211139 
MAXIMUM NO OF ITERATIONS EXCEEDED - LOCALIZATION NOT CONVERGED


--------------------------------------------------------------------------------
                    LOCALIZED MOLECULAR ORBITAL COMPOSITIONS
--------------------------------------------------------------------------------

The Mulliken populations for each LMO on each atom are computed
The LMO`s will be ordered according to atom index and type
  (A) Strongly localized MO`s have populations of >=0.950 on one atom
  (B) Two center bond orbitals have populations of >=0.850 on two atoms
  (C) Other MO`s are considered to be `delocalized`

FOUND  -   3 strongly local MO`s
       -   2 two center bond MO`s
       -   0 significantly delocalized MO`s

Rather strongly localized orbitals:
MO   7:   1S  -   0.987815
MO   6:   1S  -   1.003484
MO   5:   0Li -   0.989388
Bond-like localized orbitals:
MO   9:   1S  -   0.797300  and   0Li -   0.202700
MO   8:   1S  -   0.797268  and   0Li -   0.202732
Localized MO's were stored in: /cluster/projects/nn14654k/ylvaos/basis_set_n_funcs/functionals/gga_x_N12/LiS/inp/LiS_gga_x_N12_augccpvtz.loc
------------------------------------------------------------------------------
                           ORCA ORBITAL LOCALIZATION
------------------------------------------------------------------------------

Input orbitals are from                  ... /cluster/projects/nn14654k/ylvaos/basis_set_n_funcs/functionals/gga_x_N12/LiS/inp/LiS_gga_x_N12_augccpvtz.loc
Output orbitals are to                   ... /cluster/projects/nn14654k/ylvaos/basis_set_n_funcs/functionals/gga_x_N12/LiS/inp/LiS_gga_x_N12_augccpvtz.loc
Max. number of iterations                ... 128
Localizations seeded randomly            ... on
Convergence tolerance                    ... 1.000e-06
Threshold for strong local MOs           ... 9.500e-01
Threshold for bond MOs                   ... 8.500e-01
Operator                                 ... 1
Orbital range for localization           ... 5 to 8
Localization criterion                   ... NEW-BOYS
Doing the dipole integrals               ... o.k.
Initial value of the localization sum :    12.095678
ITERATION   0 : L=   14.8470809366 DL=  2.75e+00 (AVERGE_DL)=    0.6771759267 
ITERATION   1 : L=   15.1164963989 DL=  2.69e-01 (AVERGE_DL)=    0.2119022819 
ITERATION   2 : L=   15.1998386222 DL=  8.33e-02 (AVERGE_DL)=    0.1178574161 
ITERATION   3 : L=   15.2587279634 DL=  5.89e-02 (AVERGE_DL)=    0.0990701277 
ITERATION   4 : L=   15.2866864710 DL=  2.80e-02 (AVERGE_DL)=    0.0682623708 
ITERATION   5 : L=   15.2989905886 DL=  1.23e-02 (AVERGE_DL)=    0.0452845036 
ITERATION   6 : L=   15.3040244878 DL=  5.03e-03 (AVERGE_DL)=    0.0289652068 
ITERATION   7 : L=   15.3060222471 DL=  2.00e-03 (AVERGE_DL)=    0.0182471883 
ITERATION   8 : L=   15.3068020193 DL=  7.80e-04 (AVERGE_DL)=    0.0114000889 
ITERATION   9 : L=   15.3071038110 DL=  3.02e-04 (AVERGE_DL)=    0.0070921517 
ITERATION  10 : L=   15.3072200700 DL=  1.16e-04 (AVERGE_DL)=    0.0044018759 
ITERATION  11 : L=   15.3072647402 DL=  4.47e-05 (AVERGE_DL)=    0.0027285581 
ITERATION  12 : L=   15.3072818774 DL=  1.71e-05 (AVERGE_DL)=    0.0016900288 
ITERATION  13 : L=   15.3072884461 DL=  6.57e-06 (AVERGE_DL)=    0.0010463156 
ITERATION  14 : L=   15.3072909625 DL=  2.52e-06 (AVERGE_DL)=    0.0006476097 
ITERATION  15 : L=   15.3072919260 DL=  9.64e-07 (AVERGE_DL)=    0.0004007321 
LOCALIZATION SUM CONVERGED


--------------------------------------------------------------------------------
                    LOCALIZED MOLECULAR ORBITAL COMPOSITIONS
--------------------------------------------------------------------------------

The Mulliken populations for each LMO on each atom are computed
The LMO`s will be ordered according to atom index and type
  (A) Strongly localized MO`s have populations of >=0.950 on one atom
  (B) Two center bond orbitals have populations of >=0.850 on two atoms
  (C) Other MO`s are considered to be `delocalized`

FOUND  -   2 strongly local MO`s
       -   2 two center bond MO`s
       -   0 significantly delocalized MO`s

Rather strongly localized orbitals:
MO   6:   1S  -   1.026173
MO   5:   0Li -   0.989569
Bond-like localized orbitals:
MO   8:   1S  -   0.770795  and   0Li -   0.229205
MO   7:   1S  -   0.771140  and   0Li -   0.228860
Localized MO's were stored in: /cluster/projects/nn14654k/ylvaos/basis_set_n_funcs/functionals/gga_x_N12/LiS/inp/LiS_gga_x_N12_augccpvtz.loc

-------------------------   --------------------
FINAL SINGLE POINT ENERGY      -404.562971895033
-------------------------   --------------------



           ************************************************************
           *        Program running with 8 parallel MPI-processes     *
           *              working on a common directory               *
           ************************************************************

------------------------------------------------------------------------------
                              ORCA PROPERTY CALCULATIONS
------------------------------------------------------------------------------

GBWName                                 ... /cluster/projects/nn14654k/ylvaos/basis_set_n_funcs/functionals/gga_x_N12/LiS/inp/LiS_gga_x_N12_augccpvtz.gbw
Number of atoms                         ...      2
Number of basis functions               ...    128
Max core memory                         ...   4096 MB

Electric properties:
Dipole moment                           ... YES
Quadrupole moment                       ... YES
Static polarizability (Dipole/Dipole)   ...  NO
Static polarizability (Dipole/Quad.)    ...  NO
Static polarizability (Quad./Quad.)     ...  NO
Static polarizability (Velocity)        ...  NO
Static hyperpolarizability              ...  NO

Atomic electric properties:
Dipole moment                           ...  NO
Quadrupole moment                       ...  NO
Static polarizability                   ...  NO

Choice of electric origin               ... Center of mass
Position of electric origin             ...     0.000000     0.000000     1.308198

General magnetic properties:
Magnetizability                         ...  NO

EPR properties:
g-Tensor (aka g-matrix)                 ...  NO
Zero-Field splitting spin-orbit         ...  NO
Zero-field splitting spin-spin          ...  NO
Hyperfine couplings                     ...  NO (   0 nuclei)
Quadrupole couplings                    ...  NO (   0 nuclei)
Contact density                         ...  NO (   0 nuclei)

NMR properties:
Chemical shifts                         ...  NO (   0 nuclei)
Spin-rotation constants                 ...  NO (   0 nuclei)
Spin-spin couplings                     ...  NO (   0 nuclei,    0 pairs)

Choice of magnetic origin               ... GIAO
Position of magnetic origin             ...     0.000000     0.000000     0.000000

Properties with geometric perturbations:
SCF Hessian                             ...  NO
IR spectrum                             ...  NO
VCD spectrum                            ...  NO
X-ray spectroscopy properties:
SCF XES/XAS/RIXS spectra                ...  NO

SCF SOC stabilization energy            ...  NO
Diagonal Born-Oppenheimer correction    ...  NO

-------------
DIPOLE MOMENT
-------------

Method             : SCF
Type of density    : Electron Density
Multiplicity       :   2
Irrep              :   0
Energy             :  -404.5629718950331153 Eh
Basis              : AO
                                X                 Y                 Z
Electronic contribution:      0.000000003      -0.000000001      -4.097075055
Nuclear contribution   :      0.000000000       0.000000000       1.549484202
                        -----------------------------------------
Total Dipole Moment    :      0.000000003      -0.000000001      -2.547590853
                        -----------------------------------------
Magnitude (a.u.)       :      2.547590853
Magnitude (Debye)      :      6.475461336



--------------------
Rotational spectrum 
--------------------
 
Rotational constants in cm-1:             0.000000             0.639339             0.639339 
Rotational constants in MHz :             0.000000         19166.891897         19166.891897 

Dipole components along the rotational axes: 
x,y,z [a.u.] :    -2.547591    -0.000000     0.000000 
x,y,z [Debye]:    -6.475461    -0.000000     0.000000 

 

Dipole moment calculation done in   0.0 sec 

-----------------
QUADRUPOLE MOMENT
-----------------

Method             : SCF
Type of density    : Electron Density
Multiplicity       :   2
Irrep              :   0
Energy             :  -404.5629718950331153 Eh
Basis              : AO

                XX              YY              ZZ              XY              XZ              YZ
  NUC        0.000000000     0.000000000    41.817245673     0.000000000     0.000000000     0.000000000
  EL       -14.891728788   -12.548171348   -46.179875138     0.669839693     0.000000002    -0.000000005
  TOT      -14.891728788   -12.548171348    -4.362629465     0.669839693     0.000000002    -0.000000005 (a.u.)
           -20.029884517   -16.877719610    -5.867885833     0.900957295     0.000000003    -0.000000007 (Buckingham)

diagonalized tensor:
           -15.069672478   -12.370227659    -4.362629465 (a.u.)
           -20.269224865   -16.638379262    -5.867885833 (Buckingham)
           -18.032184635    -7.139647827    25.171832463 (traceless form in Buckingham)

            -0.966478854     0.256746226     0.000000000
             0.256746226     0.966478854    -0.000000001
             0.000000000     0.000000001     1.000000000
        
Isotropic quadrupole :   -10.600843200

Quadrupole moment calculation done in   0.0 sec (  0.0 sec for integrals)

Maximum memory used throughout the entire PROP-calculation: 3.8 MB

--------------------------------
SUGGESTED CITATIONS FOR THIS RUN
--------------------------------

Below you find a list of papers that are relevant to this ORCA run
We neither can nor want to force you to cite these papers, but we appreciate if you do
You receive ORCA, which is the product of decades of hard work by many enthusiastic individuals, for free
The only thing we kindly ask in return is that you cite our papers,
We deeply appreciate it, if you show your appreciation for ORCA by not just citing the generic ORCA reference.

Please note that relegating all ORCA citations to the supporting information does *not* help us.
SI sections are not indexed - citations you put there will not count into any citation statistics
But we need these citations in order to attract the funding resources that allow us to do what we are doing

Therefore, if you are a happy ORCA user, please consider citing a few of the papers listed below in the main body of your paper

In addition to the list printed below, the program has created the file /cluster/projects/nn14654k/ylvaos/basis_set_n_funcs/functionals/gga_x_N12/LiS/inp/LiS_gga_x_N12_augccpvtz.bibtex that contains the list in bibtex format
You can import this file easily into all common literature databanks and citation aid programs

It goes without saying that in many instances, there are alternative algorithms to achieve similar
results as the ones you have gotten from ORCA. It is, of course, also the case that in some instances
ORCA just re-implements algorithms worked out by others. We are fully aware of that and we are also
fully appreciative of our colleagues work. Hence this citation list should not be read as indicating
that the listed papers, which are focused on our own work, are the only ones worth citing. It simply
meant to make it easier for users to cite ORCA specific papers. It is not a substitute for doing your
own literature research and citing the relevant literature in a scientifically appropriate manner.

List of essential papers. We consider these as the minimum necessary citations

  1. Neese, F.
     Software update: the ORCA program system, version 6.0
     WIRES Comput. Molec. Sci. 2025 15(1), e70019
     doi.org/10.1002/wcms.70019

List of papers to cite with high priority. The work reported in these papers was absolutely
necessary for this run to complete.
Our perspective: the developers of density functionals and basis sets usually get cited in chemistry papers
Good! But without the algorithms to do something with them, the functionals or basis sets would not do anything.
Hence, in our opinion, the algorithm design and method developments papers are equally worthy of getting cited

  1. Lehtola, S.; Steigemann, C.; Oliveira, M.; Marques, M.
     Recent developments in Libxc - A comprehensive library of functionals for density functional theory
     Software X 2018 7 , 
     doi.org/10.1016/j.softx.2017.11.002
  2. Neese, F.
     The SHARK Integral Generation and Digestion System
     J. Comp. Chem. 2022 44(3), 381
     doi.org/10.1002/jcc.26942

List of suggested additional citations. These are papers that are important in the 'surrounding' of 
of this run, or papers that preceded the highly important papers. If you like your results we are grateful for a citation.

  1. Neese, F.
     The ORCA program system
     WIRES Comput. Molec. Sci. 2012 2(1), 73-78
     doi.org/10.1002/wcms.81
  2. Neese, F.
     Software update: the ORCA program system, version 4.0
     WIRES Comput. Molec. Sci. 2018 8(1), 1-6
     doi.org/10.1002/wcms.1327
  3. Neese, F.; Wennmohs, F.; Becker, U.; Riplinger, C.
     The ORCA quantum chemistry program package
     J. Chem. Phys. 2020 152(22), 224108
     doi.org/10.1063/5.0004608
  4. Neese, F.
     Software update: The ORCA program system—Version 5.0
     WIRES Comput. Molec. Sci. 2022 12(1), e1606
     doi.org/10.1002/wcms.1606

List of optional additional citations

  1. Neese, F.
     Approximate second-order SCF convergence for spin unrestricted wavefunctions
     Chem. Phys. Lett. 2000 325(1-3), 93-98
     doi.org/10.1016/s0009-2614(00)00662-x

Timings for individual modules:

Sum of individual times          ...        4.328 sec (=   0.072 min)
Startup calculation              ...        1.091 sec (=   0.018 min)  25.2 %
SCF iterations                   ...        2.716 sec (=   0.045 min)  62.8 %
Property integrals               ...        0.235 sec (=   0.004 min)   5.4 %
Property calculations            ...        0.280 sec (=   0.005 min)   6.5 %
Orbital localization             ...        0.006 sec (=   0.000 min)   0.1 %
                             ****ORCA TERMINATED NORMALLY****
TOTAL RUN TIME: 0 days 0 hours 0 minutes 5 seconds 264 msec
