
                                 *****************
                                 * O   R   C   A *
                                 *****************

                                            #,                                       
                                            ###                                      
                                            ####                                     
                                            #####                                    
                                            ######                                   
                                           ########,                                 
                                     ,,################,,,,,                         
                               ,,#################################,,                 
                          ,,##########################################,,             
                       ,#########################################, ''#####,          
                    ,#############################################,,   '####,        
                  ,##################################################,,,,####,       
                ,###########''''           ''''###############################       
              ,#####''   ,,,,##########,,,,          '''####'''          '####       
            ,##' ,,,,###########################,,,                        '##       
           ' ,,###''''                  '''############,,,                           
         ,,##''                                '''############,,,,        ,,,,,,###''
      ,#''                                            '''#######################'''  
     '                                                          ''''####''''         
             ,#######,   #######,   ,#######,      ##                                
            ,#'     '#,  ##    ##  ,#'     '#,    #''#        ,####,    ,#,          
            ##       ##  ##   ,#'  ##            #'  '#       #'       ,# #          
            ##       ##  #######   ##           ,######,      #####,      #          
            '#,     ,#'  ##    ##  '#,     ,#' ,#      #,     #,   #      #          
             '#######'   ##     ##  '#######'  #'      '#     '####' #    #          



                #########################################################
                #                        -***-                          #
                #          Department of theory and spectroscopy        #
                #                                                       #
                #                      Frank Neese                      #
                #                                                       #
                #     Directorship, Architecture, Infrastructure        #
                #                    SHARK, DRIVERS                     #
                #        Core code/Algorithms in most modules           #
                #                                                       #
                #        Max Planck Institute fuer Kohlenforschung      #
                #                Kaiser Wilhelm Platz 1                 #
                #                 D-45470 Muelheim/Ruhr                 #
                #                      Germany                          #
                #                                                       #
                #                  All rights reserved                  #
                #                        -***-                          #
                #########################################################


                         Program Version 6.1.1  -  RELEASE   -
                                (GIT: $487d211c$)
                          ($2025-11-21 10:33:24 +0100$)


 With contributions from (in alphabetic order):
[Max-Planck-Institut fuer Kohlenforschung]                               
  Daniel Aravena         : Magnetic Suceptibility                        
  Michael Atanasov       : Ab Initio Ligand Field Theory (pilot matlab implementation)
  Alexander A. Auer      : GIAO ZORA, VPT2 properties, NMR spectrum      
  Ute Becker             : All parallelization in ORCA, NUMFREQ, NUMCALC 
  Giovanni Bistoni       : ED, misc. LED, open-shell LED, HFLD           
  Dmytro Bykov           : pre 5.0 version of the SCF Hessian            
  Marcos Casanova-Páez   : Triplet and SCS-CIS(D). UHF-(DLPNO)-IP/EA/STEOM-CCSD. UHF-CVS-IP/STEOM-CCSD   
  Vijay G. Chilkuri      : MRCI spin determinant printing, contributions to CSF-ICE 
  Pauline Colinet        : FMM embedding                                 
  Dipayan Datta          : RHF DLPNO-CCSD density                        
  Achintya Kumar Dutta   : EOM-CC, STEOM-CC                              
  Nicolas Foglia         : Exact transition moments, OPA infrastructure, MCD improvements    
  Dmitry Ganyushin       : Spin-Orbit,Spin-Spin,Magnetic field MRCI      
  Miquel Garcia-Rates    : C-PCM and meta-GGA Hessian, CCSD/C-PCM, Gaussian charge scheme 
  Tiago L. C. Gouveia    : GS-ROHF, GS-ROCIS                             
  Yang Guo               : DLPNO-NEVPT2, F12-NEVPT2, CIM, IAO-localization        
  Andreas Hansen         : Spin unrestricted coupled pair/coupled cluster methods 
  Ingolf Harden          : AUTO-CI MPn and infrastructure                
  Benjamin Helmich-Paris : MC-RPA, TRAH-(SCF,CASSCF), AVAS, COSX integrals, SCF dyn. polar., MC-PDFT, srDFT 
  Lee Huntington         : MR-EOM, pCC                                   
  Robert Izsak           : Overlap fitted RIJCOSX, COSX-SCS-MP3, EOM     
  Riya Kayal             : Wick's Theorem for AUTO-CI, AUTO-CI UHF-CCSDT 
  Emily Kempfer          : AUTO-CI RHF CISDT and CCSDT, approximate NEVPT4
  Christian Kollmar      : KDIIS, OOCD, Brueckner-CCSD(T), CCSD density, CASPT2, CASPT2-K, improved NEVPT2 
  Axel Koslowski         : Symmetry handling                             
  Simone Kossmann        : meta-GGA functionals, TD-DFT gradient, OOMP2, (MP2 Hessian; deprecated post 5.0) 
  Lucas Lang             : DCDCAS, Hyperfine gauge corrections, ICE-SOC+SSC
  Marvin Lechner         : AUTO-CI (C++ implementation), FIC-MRCC        
  Spencer Leger          : CASSCF response                               
  Dagmar Lenk            : GEPOL surface, SMD, ORCA-2-JSON               
  Dimitrios Liakos       : Extrapolation schemes; Compound Job, Property file
  Dimitrios Manganas     : Further ROCIS development; embedding schemes. LFT, Crystal Embedding 
  Dimitrios Pantazis     : SARC Basis sets                               
  Anastasios Papadopoulos: AUTO-CI, single reference methods and gradients 
  Taras Petrenko         : pre 6.0 DFT Hessian and TD-DFT gradient,  ECA, NRVS 
  Petra Pikulova         : Analytic Raman intensities                    
  Peter Pinski           : DLPNO-MP2, DLPNO-MP2 Gradient                 
  Shashank Vittal Rao    : ES-AILFT, MagRelax                            
  Christoph Reimann      : Effective Core Potentials                     
  Marius Retegan         : Local ZFS, SOC                                
  Christoph Riplinger    : Optimizer, TS searches, QM/MM, DLPNO-CCSD(T), (RO)-DLPNO pert. Triples 
  Michael Roemelt        : Original ROCIS implementation, recursive CI coupling coefficients
  Masaaki Saitow         : Open-shell DLPNO-CCSD energy and density      
  Barbara Sandhoefer     : DKH picture change effects                    
  Yorick L. A. Schmerwitz: GMF and freeze-and-release deltaSCF, NEB S-IDPP initial path                    
  Kantharuban Sivalingam : CASSCF convergence/infrastructure, NEVPT2, NEVPT3, NEVPT4(SD), FIC-MRCI and CEPA variants
  Bernardo de Souza      : ESD, SOC TD-DFT                               
  Georgi L. Stoychev     : AutoAux, RI-MP2 NMR, DLPNO-MP2 response, X2C  
  Van Anh Tran           : RI-MP2 g-tensors                              
  Willem Van den Heuvel  : Paramagnetic NMR                              
  Zikuan Wang            : NOTCH, Electric field optimization            
  Frank Wennmohs         : Technical directorship and infrastructure     
  Hang Xu                : AUTO-CI-Response properties                   
                                                                         
[FACCTs GmbH]                                                            
  Markus Bursch, Nicolas Foglia, Miquel Garcia-Rates, Ingolf Harden, Hagen Neugebauer, Anastasios Papadopoulos, 
  Christoph Riplinger, Bernardo de Souza, Georgi L. Stoychev                                                    
                                                                 
  APM, various basis sets, CI-OPT, improved COSX, DLPNO-Multilevel,           
  DOCKER, DRACO, updates on ESD, Fragmentator, GOAT, IRC, LR-CPCM, L-BFGS, MBIS, meta-GGA TD-DFT gradient, ML-optimized integration grids, 
  MM, NACMEs, nearIR, NEB, NEB-TS, NL-DFT gradient (VV10), 2- and 3-layer-ONIOM, interface openCOSMO-RS, QMMM,   
  Crystal-QMMM, RESP, rigid body optimization, SF, symmetry and pop. for TD-DFT, various functionals, SOLVATOR                                   
                                                                         
[Other institutions]                                                     
  V. Asgeirsson          : NEB                                           
  Christoph Bannwarth    : sTDA-DFT, sTD-DFT, PBEh-3c, B97-3c, D3        
  Giovanni Bistoni       : ETS/NOCV, ADLD/ADEX, COVALED                  
  Martin Brehm           : Molecular dynamics                            
  Ronald Cardenas        : ETS/NOCV                                      
  Martina Colucci        : COVALED                                       
  Sebastian Ehlert       : rSCAN, r2SCAN, r2SCAN-3c, D4, dhf basis sets  
  Marvin Friede          : D4 for Fr, Ra, Ac-Lr                          
  Lars Goerigk           : TD-DFT with DH, B97 family of functionals     
  Stefan Grimme          : VdW corrections, initial TS optimization, DFT functionals, gCP, sTDA/sTD-DF 
  Waldemar Hujo          : DFT-NL                                        
  H. Jonsson             : NEB                                           
  Holger Kruse           : gCP                                           
  Marcel Mueller         : wB97X-3c, vDZP basis set                      
  Hagen Neugebauer       : wr2SCAN, Native XTB                           
  Gianluca Regni         : ADLD/ADEX                                     
  Tobias Risthaus        : pre 6.0 range-separated hybrid DFT and stability analysis
  Lukas Wittmann         : regularized MP2, r2SCAN double-hybrids, wr2SCAN        
                                                                         
We gratefully acknowledge several colleagues who have allowed us to      
interface, adapt or use parts of their codes:                            
  Ed Valeev, F. Pavosevic, A. Kumar             : LibInt (2-el integral package), F12 methods 
  Garnet Chan, S. Sharma, J. Yang, R. Olivares  : DMRG                   
  Ulf Ekstrom                                   : XCFun DFT Library      
  Mihaly Kallay                                 : mrcc  (arbitrary order and MRCC methods)
  Frank Weinhold                                : gennbo (NPA and NBO analysis)           
  Simon Mueller                                 : openCOSMO-RS                            
  Christopher J. Cramer and Donald G. Truhlar   : smd solvation model                     
  S Lehtola, MJT Oliveira, MAL Marques          : LibXC Library                           
  Liviu Ungur et al                             : ANISO software                          


 Your calculation uses the libint2 library for the computation of 2-el integrals
 For citations please refer to: http://libint.valeyev.net

 Your ORCA version has been built with support for libXC version: 7.0.0
 For citations please refer to: https://libxc.gitlab.io

 This ORCA versions uses:
   CBLAS   interface :  Fast vector & matrix operations
   LAPACKE interface :  Fast linear algebra routines
   SCALAPACK package :  Parallel linear algebra routines
   Shared memory     :  Shared parallel matrices
   BLAS/LAPACK       :  OpenBLAS 0.3.29  USE64BITINT DYNAMIC_ARCH NO_AFFINITY Cooperlake SINGLE_THREADED
        Core in use  :  Cooperlake
   Copyright (c) 2011-2014, The OpenBLAS Project


  ***********************************
  * Starting time: Wed May 20 12:36:34 2026
  * Host name:     c1-47
  * Process ID:    3540019
  * Working dir.:  /cluster/projects/nn14654k/ylvaos/basis_set_n_funcs/functionals/hyb_gga_xc_b97/LiS/out
  ***********************************

Using LibXC functional ID 407 : Becke 97
[ 1]  A. D. Becke.,  J. Chem. Phys. 107, 8554 (1997)
Using LibXC functional ID 407 : Becke 97
[ 1]  A. D. Becke.,  J. Chem. Phys. 107, 8554 (1997)
Your calculation utilizes LibXC
by S. Lehtola, C. Steigemann, M. J. T. Oliveira & M. A. L. Marques
Please cite in your paper:
Lehtola, S.; Steigemann, C.; Oliveira, M.J.T.; Marques, M. A. L. Software X, 7, (2018), 1.
   

================================================================================

----- Orbital basis set information -----
Your calculation utilizes the basis: aug-cc-pVQZ 
    H, B-Ne : Obtained from the ccRepo (grant-hill.group.shef.ac.uk/ccrepo) Feb. 2017
              R. A. Kendall, T. H. Dunning, Jr., R. J. Harrison, J. Chem. Phys. 96, 6796 (1992)
         He : Obtained from the ccRepo (grant-hill.group.shef.ac.uk/ccrepo) Feb. 2017
              D. E. Woon, T. H. Dunning, Jr., J. Chem. Phys. 100, 2975 (1994)
  Li-Be, Na : Obtained from the ccRepo (grant-hill.group.shef.ac.uk/ccrepo) Feb. 2017
              B. P. Prascher, D. E. Woon, K. A. Peterson, T. H. Dunning, Jr., A. K. Wilson, Theor. Chem. Acc. 128, 69 (2011)
         Mg : Obtained from the Peterson Research Group Website (tyr0.chem.wsu.edu/~kipeters) Feb. 2017
              B. P. Prascher, D. E. Woon, K. A. Peterson, T. H. Dunning, Jr., A. K. Wilson, Theor. Chem. Acc. 128, 69 (2011)
      Al-Ar : Obtained from the ccRepo (grant-hill.group.shef.ac.uk/ccrepo) Feb. 2017
              D. E. Woon, T. H. Dunning, Jr., J. Chem. Phys. 98, 1358 (1993)
      Sc-Zn : Obtained from the ccRepo (grant-hill.group.shef.ac.uk/ccrepo) Feb. 2017
              N. B. Balabanov, K. A. Peterson, J. Chem. Phys. 123, 064107 (2005)
              N. B. Balabanov, K. A. Peterson, J. Chem. Phys. 125, 074110 (2006)
      Ga-Kr : Obtained from the ccRepo (grant-hill.group.shef.ac.uk/ccrepo) Feb. 2017
              A. K. Wilson, D. E. Woon, K. A. Peterson, T. H. Dunning, Jr., J. Chem. Phys. 110, 7667 (1999)

================================================================================
                                        WARNINGS
                       Please study these warnings very carefully!
================================================================================


WARNING: your system is open-shell and RHF/RKS was chosen
  ===> : WILL SWITCH to UHF/UKS


================================================================================
                                       INPUT FILE
================================================================================
NAME = /cluster/projects/nn14654k/ylvaos/basis_set_n_funcs/functionals/hyb_gga_xc_b97/LiS/inp/LiS_hyb_gga_xc_b97_augccpvqz.inp
|  1> ! dft aug-cc-pVQZ TightSCF
|  2> %pal nprocs 8 end
|  3> 
|  4> %loc
|  5>   LocMet NewBoys
|  6>   Occ true
|  7> end
|  8> 
|  9> %method
| 10>   
| 11>   functional hyb_gga_xc_b97
| 12> end
| 13> 
| 14> %elprop
| 15>   Dipole true
| 16>   Quadrupole true
| 17> end
| 18> 
| 19> * xyz 0 2
| 20> Li    0.000000000000   0.000000000000  -1.074850000000
| 21> S    0.000000000000   0.000000000000   1.074850000000
| 22> *
| 23> 
| 24> 
| 25>                          ****END OF INPUT****
================================================================================

                       ****************************
                       * Single Point Calculation *
                       ****************************

---------------------------------
CARTESIAN COORDINATES (ANGSTROEM)
---------------------------------
  Li     0.000000    0.000000   -1.074850
  S      0.000000    0.000000    1.074850

----------------------------
CARTESIAN COORDINATES (A.U.)
----------------------------
  NO LB      ZA    FRAG     MASS         X           Y           Z
   0 Li    3.0000    0     6.941    0.000000    0.000000   -2.031172
   1 S    16.0000    0    32.060    0.000000    0.000000    2.031172

--------------------------------
INTERNAL COORDINATES (ANGSTROEM)
--------------------------------
 Li     0   0   0     0.000000000000     0.00000000     0.00000000
 S      1   0   0     2.149700000000     0.00000000     0.00000000

---------------------------
INTERNAL COORDINATES (A.U.)
---------------------------
 Li     0   0   0     0.000000000000     0.00000000     0.00000000
 S      1   0   0     4.062344270091     0.00000000     0.00000000

---------------------
BASIS SET INFORMATION
---------------------
There are 2 groups of distinct atoms

 Group   1 Type Li  : 22s7p4d3f2g contracted to 6s5p4d3f2g pattern {991111/31111/1111/111/11}
 Group   2 Type S   : 43s20p4d3f2g contracted to 7s6p4d3f2g pattern {1313131111/881111/1111/111/11}

Atom   0Li   basis set group =>   1
Atom   1S    basis set group =>   2


           ************************************************************
           *        Program running with 8 parallel MPI-processes     *
           *              working on a common directory               *
           ************************************************************
------------------------------------------------------------------------------
                             ORCA STARTUP CALCULATIONS
------------------------------------------------------------------------------
------------------------------------------------------------------------------
                   ___                                                        
                  /   \      - P O W E R E D   B Y -                         
                 /     \                                                     
                 |  |  |   _    _      __       _____    __    __             
                 |  |  |  | |  | |    /  \     |  _  \  |  |  /  |          
                  \  \/   | |  | |   /    \    | | | |  |  | /  /          
                 / \  \   | |__| |  /  /\  \   | |_| |  |  |/  /          
                |  |  |   |  __  | /  /__\  \  |    /   |      \           
                |  |  |   | |  | | |   __   |  |    \   |  |\   \          
                \     /   | |  | | |  |  |  |  | |\  \  |  | \   \       
                 \___/    |_|  |_| |__|  |__|  |_| \__\ |__|  \__/        
                                                                              
                      - O R C A' S   B I G   F R I E N D -                    
                                      &                                       
                       - I N T E G R A L  F E E D E R -                       
                                                                              
 v1 FN, 2020, v2 2021, v3 2022-2024                                           
------------------------------------------------------------------------------


----------------------
SHARK INTEGRAL PACKAGE
----------------------

Number of atoms                             ...      2
Number of basis functions                   ...    199
Number of shells                            ...     65
Maximum angular momentum                    ...      4
Integral batch strategy                     ... SHARK/LIBINT Hybrid
RI-J (if used) integral strategy            ... SPLIT-RIJ (Revised 2003 algorithm where possible)
Printlevel                                  ...      1
Contraction scheme used                     ... PARTIAL GENERAL contraction
Prescreening option                         ... SCHWARTZ
   Thresh                                   ... 2.500e-11
   Tcut                                     ... 2.500e-12
   Tpresel                                  ... 2.500e-12 
Coulomb Range Separation                    ... NOT USED
Exchange Range Separation                   ... NOT USED
Multipole approximations                    ... NOT USED
Finite Nucleus Model                        ... NOT USED
CABS basis                                  ... NOT available
Auxiliary Coulomb fitting basis             ... NOT available
Auxiliary J/K fitting basis                 ... NOT available
Auxiliary Correlation fitting basis         ... NOT available
Auxiliary 'external' fitting basis          ... NOT available

Checking pre-screening integrals            ... done (  0.0 sec) Dimension = 65
Save PGC pre-screening integrals            ... done (  0.0 sec) Dimension = 65
Calculate PGC overlap integrals             ... done (  0.0 sec) Dimension = 42
Calculating pre-screening integrals (ORCA)  ... done (  0.1 sec) Dimension = 42
Shell pair information
Shell pair cut-off parameter TPreSel        ...   2.5e-12
Total number of shell pairs                 ...      2145
Shell pairs after pre-screening             ...      1997
Total number of primitive shell pairs       ...      2281
Primitive shell pairs kept                  ...      2114
          la=0 lb=0:    376 shell pairs
          la=1 lb=0:    461 shell pairs
          la=1 lb=1:    153 shell pairs
          la=2 lb=0:    240 shell pairs
          la=2 lb=1:    136 shell pairs
          la=2 lb=2:     36 shell pairs
          la=3 lb=0:    176 shell pairs
          la=3 lb=1:    102 shell pairs
          la=3 lb=2:     48 shell pairs
          la=3 lb=3:     21 shell pairs
          la=4 lb=0:    114 shell pairs
          la=4 lb=1:     68 shell pairs
          la=4 lb=2:     32 shell pairs
          la=4 lb=3:     24 shell pairs
          la=4 lb=4:     10 shell pairs

Checking whether 4 symmetric matrices of dimension 199 fit in memory
:Max Core in MB      =   4096.00
 MB in use           =      5.51
 MB left             =   4090.49
 MB needed           =      0.61
 Data fit in memory  = YES
Calculating Nuclear repulsion               ... done (  0.0 sec) ENN=     11.815837557985 Eh

Diagonalization of the overlap matrix:
Smallest eigenvalue                        ... 8.338e-05
Time for diagonalization                   ...    0.002 sec
Threshold for overlap eigenvalues          ... 1.000e-07
Number of eigenvalues below threshold      ... 0
Time for construction of square roots      ...    0.002 sec
Total time needed                          ...    0.007 sec

-------------------
DFT GRID GENERATION
-------------------

General Integration Accuracy     IntAcc      ... 4.388
Radial Grid Type                 RadialGrid  ... OptM3 with GC (2021)
Angular Grid (max. ang.)         AngularGrid ... 4 (Lebedev-302)
Angular grid pruning method      GridPruning ... 4 (adaptive)
Weight generation scheme         WeightScheme... mBecke (2022)
Basis function cutoff            BFCut       ... 1.0000e-11
Integration weight cutoff        WCut        ... 1.0000e-14
Partially contracted basis set               ... off
Rotationally invariant grid construction     ... off
Angular grids for H and He will be reduced by one unit
Diffuse basis detected: some atoms will have their outermost
                        angular grid increased by 1.

Total number of grid points                  ...    14126
Total number of batches                      ...      221
Average number of points per batch           ...       63
Average number of grid points per atom       ...     7063

---------------------
SHARK GRID GENERATION
---------------------

General Integration Accuracy     IntAcc      ... 4.388
Radial Grid Type                 RadialGrid  ... OptM3 with GC (2021)
Angular Grid (max. ang.)         AngularGrid ... 4 (Lebedev-302)
Angular grid pruning method      GridPruning ... 4 (adaptive)
Weight generation scheme         WeightScheme... mBecke (2022)
Basis function cutoff            BFCut       ... 1.0000e-11
Integration weight cutoff        WCut        ... 1.0000e-14
Partially contracted basis set               ... off
Rotationally invariant grid construction     ... off
Angular grids for H and He will be reduced by one unit
Diffuse basis detected: some atoms will have their outermost
                        angular grid increased by 1.
Core-polarized basis detected: some atoms will have their core
                               angular grid increased.
Steep s-basis detected: some atoms will have their radial
                        grid points doubled.

Total number of grid points                  ...    33087
Total number of batches                      ...      518
Average number of points per batch           ...       63
Average number of grid points per atom       ...    16544
Grids setup in   0.7 sec
Initializing property integral containers    ... done (  0.0 sec)

SHARK setup successfully completed in   0.9 seconds

Maximum memory used throughout the entire STARTUP-calculation: 59.0 MB


           ************************************************************
           *        Program running with 8 parallel MPI-processes     *
           *              working on a common directory               *
           ************************************************************
-------------------------------------------------------------------------------
                                 ORCA GUESS
                   Start orbitals & Density for SCF / CASSCF
-------------------------------------------------------------------------------

------------
SCF SETTINGS
------------
Hamiltonian:
 Density Functional     Method          .... DFT(GTOs)
  Functional kind                       .... Exchange-Correlation
  Functional name                       .... Becke 97
  Functional family                     .... Hybrid GGA
  Functional refs                              
    [ 0] A. D. Becke.,  J. Chem. Phys. 107, 8554 (1997), doi: 10.1063/1.475007
  Fraction of HF Exchange               .... 0.1943
  Functional external parameters        .... 16
    Parameter  0 _cx0       =  8.094000e-01 : u^0 coefficient for exchange
    Parameter  1 _cx1       =  5.073000e-01 : u^1 coefficient for exchange
    Parameter  2 _cx2       =  7.481000e-01 : u^2 coefficient for exchange
    Parameter  3 _cx3       =  0.000000e+00 : u^3 coefficient for exchange
    Parameter  4 _cx4       =  0.000000e+00 : u^4 coefficient for exchange
    Parameter  5 _css0      =  1.737000e-01 : u^0 coefficient for same-spin correlation
    Parameter  6 _css1      =  2.348700e+00 : u^1 coefficient for same-spin correlation
    Parameter  7 _css2      = -2.486800e+00 : u^2 coefficient for same-spin correlation
    Parameter  8 _css3      =  0.000000e+00 : u^3 coefficient for same-spin correlation
    Parameter  9 _css4      =  0.000000e+00 : u^4 coefficient for same-spin correlation
    Parameter 10 _cos0      =  9.454000e-01 : u^0 coefficient for opposite-spin correlation
    Parameter 11 _cos1      =  7.471000e-01 : u^1 coefficient for opposite-spin correlation
    Parameter 12 _cos2      = -4.596100e+00 : u^2 coefficient for opposite-spin correlation
    Parameter 13 _cos3      =  0.000000e+00 : u^3 coefficient for opposite-spin correlation
    Parameter 14 _cos4      =  0.000000e+00 : u^4 coefficient for opposite-spin correlation
    Parameter 15 _cxx       =  1.943000e-01 : coefficient for exact exchange


General Settings:
 Integral files         IntName         .... /cluster/projects/nn14654k/ylvaos/basis_set_n_funcs/functionals/hyb_gga_xc_b97/LiS/inp/LiS_hyb_gga_xc_b97_augccpvqz
 Hartree-Fock type      HFTyp           .... UHF
 Total Charge           Charge          ....    0
 Multiplicity           Mult            ....    2
 Number of Electrons    NEL             ....   19
 Basis Dimension        Dim             ....  164
 Nuclear Repulsion      ENuc            ....     11.8158375580 Eh

Convergence Acceleration:
 AO-DIIS                CNVDIIS         .... on
   Start iteration      DIISMaxIt       ....    12
   Startup error        DIISStart       ....  0.200000
   # of expansion vecs  DIISMaxEq       ....     5
   Bias factor          DIISBfac        ....   1.050
   Max. coefficient     DIISMaxC        ....  10.000
 MO-DIIS                CNVKDIIS        .... off
 Trust-Rad. Augm. Hess. CNVTRAH         .... auto
   Auto Start mean grad. ratio tolernc. ....  1.125000
   Auto Start start iteration           ....    50
   Auto Start num. interpolation iter.  ....    10
   Max. Number of Micro iterations      ....    24
   Max. Number of Macro iterations      .... Maxiter - #DIIS iter
   Number of Davidson start vectors     ....     2
   Converg. threshold    (grad. norm)   ....   1.000e-05
   Grad. Scal. Fac. for Micro threshold ....   0.100
   Minimum threshold for Micro iter.    ....   1.000e-02
   NR start threshold (gradient norm)   ....   1.000e-04
   Initial trust radius                 ....   0.400
   Minimum AH scaling param. (alpha)    ....   1.000
   Maximum AH scaling param. (alpha)    .... 1000.000
   Quad. conv. algorithm                .... NR
   White noise on init. David. guess    .... on
   Maximum white noise                  ....   0.010
   Pseudo random numbers                .... off
   Inactive MOs                         .... canonical
   Orbital update algorithm             .... Taylor
   Preconditioner                       .... Diag
   Full preconditioner red. dimension   ....   250
 SOSCF                 CNVSOSCF           .... on
   Start iteration     SOSCFMaxIt         ....   150
   Startup grad/error  SOSCFStart         ....  0.003300
   Hessian update      SOSCFHessUp        .... L-BFGS
   Autom. constraints  SOSCFAutoConstrain .... off
 Level Shifting         CNVShift        .... on
   Level shift para.    LevelShift      ....    0.2500
   Turn off err/grad.   ShiftErr        ....    0.0010
 Zerner damping         CNVZerner       .... off
 Static damping         CNVDamp         .... on
   Fraction old density DampFac         ....    0.7000
   Max. Damping (<1)    DampMax         ....    0.9800
   Min. Damping (>=0)   DampMin         ....    0.0000
   Turn off err/grad.   DampErr         ....    0.1000

SCF Procedure:
 Maximum # iterations   MaxIter         ....   125
 SCF integral mode      SCFMode         .... Direct
   Integral package                     .... SHARK and LIBINT hybrid scheme
 Reset frequency        DirectResetFreq ....    20
 Integral Threshold     Thresh          ....  2.500e-11 Eh
 Primitive CutOff       TCut            ....  2.500e-12 Eh

Convergence Tolerance:
 Convergence Check Mode ConvCheckMode   .... Total+1el-Energy
 Convergence forced     ConvForced      .... 0
 Energy Change          TolE            ....  1.000e-08 Eh
 1-El. energy change                    ....  1.000e-05 Eh
 Orbital Gradient       TolG            ....  1.000e-05
 Orbital Rotation angle TolX            ....  1.000e-05
 DIIS Error             TolErr          ....  5.000e-07

------------------------------
INITIAL GUESS: MODEL POTENTIAL
------------------------------
Loading Hartree-Fock densities                     ... done
Calculating cut-offs                               ... done
Initializing the effective Hamiltonian             ... done
Setting up the integral package (SHARK)            ... done
Starting the Coulomb interaction                   ... done (   0.0 sec)
Making the grid                                    ... done (   0.0 sec)
Mapping shells                                     ... done
Starting the XC term evaluation                    ... done (   0.0 sec)
  promolecular density results
     # of electrons  =     18.999681821
     EX+EC           =    -22.205603634
Transforming the Hamiltonian                       ... done (   0.0 sec)
Diagonalizing the Hamiltonian                      ... done (   0.0 sec)
Back transforming the eigenvectors                 ... done (   0.0 sec)
Now organizing SCF variables                       ... done
                      ------------------
                      INITIAL GUESS DONE (   0.1 sec)
                      ------------------
             **** ENERGY FILE WAS UPDATED (/cluster/projects/nn14654k/ylvaos/basis_set_n_funcs/functionals/hyb_gga_xc_b97/LiS/inp/LiS_hyb_gga_xc_b97_augccpvqz.en.tmp) ****
Finished Guess after   0.2 sec
Maximum memory used throughout the entire GUESS-calculation: 12.1 MB


           ************************************************************
           *        Program running with 8 parallel MPI-processes     *
           *              working on a common directory               *
           ************************************************************

-------------------------------------------------------------------------------------------
                                      ORCA LEAN-SCF
                              memory conserving SCF solver
-------------------------------------------------------------------------------------------

----------------------------------------D-I-I-S--------------------------------------------
Iteration    Energy (Eh)           Delta-E    RMSDP     MaxDP     DIISErr   Damp  Time(sec)
-------------------------------------------------------------------------------------------
               ***  Starting incremental Fock matrix formation  ***
    1    -405.6364213335439786     0.00e+00  5.49e-03  9.71e-02  1.15e-01  0.700   0.5
Warning: op=1 Small HOMO/LUMO gap (   0.066) - skipping pre-diagonalization
         Will do a full diagonalization
    2    -405.6497977742691887    -1.34e-02  3.67e-03  6.26e-02  7.23e-02  0.700   0.6
                               ***Turning on AO-DIIS***
    3    -405.6581515124805151    -8.35e-03  1.98e-03  3.16e-02  4.49e-02  0.700   0.6
    4    -405.6636009433487402    -5.45e-03  4.54e-03  7.31e-02  3.17e-02  0.000   0.5
                              *** Initializing SOSCF ***
---------------------------------------S-O-S-C-F--------------------------------------
Iteration    Energy (Eh)           Delta-E    RMSDP     MaxDP     MaxGrad    Time(sec)
--------------------------------------------------------------------------------------
    5    -405.6757576287804454    -1.22e-02  1.92e-04  2.27e-03  2.54e-03     0.7
               *** Restarting incremental Fock matrix formation ***
    6    -405.6758008558608140    -4.32e-05  9.76e-05  1.09e-03  6.89e-04     0.5
    7    -405.6758091038793737    -8.25e-06  4.39e-05  6.74e-04  3.80e-04     0.4
    8    -405.6758123528176725    -3.25e-06  8.32e-06  1.29e-04  4.14e-05     0.4
    9    -405.6758124002174100    -4.74e-08  2.33e-06  3.29e-05  1.68e-05     0.4
   10    -405.6758124043212206    -4.10e-09  8.80e-07  1.61e-05  5.61e-06     0.4
                 **** Energy Check signals convergence ****

               *****************************************************
               *                     SUCCESS                       *
               *           SCF CONVERGED AFTER  10 CYCLES          *
               *****************************************************

             **** ENERGY FILE WAS UPDATED (/cluster/projects/nn14654k/ylvaos/basis_set_n_funcs/functionals/hyb_gga_xc_b97/LiS/inp/LiS_hyb_gga_xc_b97_augccpvqz.en.tmp) ****

----------------
TOTAL SCF ENERGY
----------------

Total Energy       :       -405.67581240505797 Eh          -11039.00007 eV

Components:
Nuclear Repulsion  :         11.81583755798484 Eh             321.52529 eV
Electronic Energy  :       -417.49164996304279 Eh          -11360.52535 eV
One Electron Energy:       -584.52150376936197 Eh          -15905.63874 eV
Two Electron Energy:        167.02985380631918 Eh            4545.11339 eV

Virial components:
Potential Energy   :       -810.23133246048656 Eh          -22047.51543 eV
Kinetic Energy     :        404.55552005542864 Eh           11008.51536 eV
Virial Ratio       :          2.00276919308746

DFT components:
N(Alpha)           :       10.000001335097 electrons
N(Beta)            :        9.000000912652 electrons
N(Total)           :       19.000002247749 electrons
E(XC)              :      -22.302870039287 Eh       

---------------
SCF CONVERGENCE
---------------

  Last Energy change         ...    4.1038e-09  Tolerance :   1.0000e-08
  Last MAX-Density change    ...    1.6150e-05  Tolerance :   1.0000e-07
  Last RMS-Density change    ...    8.7966e-07  Tolerance :   5.0000e-09
  Last DIIS Error            ...    2.5440e-03  Tolerance :   5.0000e-07
  Last Orbital Gradient      ...    5.6073e-06  Tolerance :   1.0000e-05
  Last Orbital Rotation      ...    1.7062e-05  Tolerance :   1.0000e-05


----------------------
UHF SPIN CONTAMINATION
----------------------

Warning: in a DFT calculation there is little theoretical justification to 
         calculate <S**2> as in Hartree-Fock theory. We will do it anyways
         but you should keep in mind that the values have only limited relevance

Expectation value of <S**2>     :     0.754209
Ideal value S*(S+1) for S=0.5   :     0.750000
Deviation                       :     0.004209

----------------
ORBITAL ENERGIES
----------------
                 SPIN UP ORBITALS
  NO   OCC          E(Eh)            E(eV) 
   0   1.0000     -88.773920     -2415.6612 
   1   1.0000      -7.878824      -214.3937 
   2   1.0000      -5.845187      -159.0556 
   3   1.0000      -5.829631      -158.6323 
   4   1.0000      -5.829075      -158.6172 
   5   1.0000      -2.018318       -54.9212 
   6   1.0000      -0.615916       -16.7599 
   7   1.0000      -0.248107        -6.7513 
   8   1.0000      -0.230710        -6.2779 
   9   1.0000      -0.207234        -5.6391 
  10   0.0000      -0.053155        -1.4464 
  11   0.0000      -0.001690        -0.0460 
  12   0.0000       0.000950         0.0258 
  13   0.0000       0.006709         0.1826 
  14   0.0000       0.012239         0.3330 
  15   0.0000       0.020888         0.5684 
  16   0.0000       0.021967         0.5977 
  17   0.0000       0.039542         1.0760 
  18   0.0000       0.055275         1.5041 
  19   0.0000       0.055812         1.5187 
  20   0.0000       0.057914         1.5759 

                 SPIN DOWN ORBITALS
  NO   OCC          E(Eh)            E(eV) 
   0   1.0000     -88.769255     -2415.5342 
   1   1.0000      -7.874344      -214.2718 
   2   1.0000      -5.829626      -158.6322 
   3   1.0000      -5.826378      -158.5438 
   4   1.0000      -5.825753      -158.5268 
   5   1.0000      -2.018526       -54.9269 
   6   1.0000      -0.569924       -15.5084 
   7   1.0000      -0.217027        -5.9056 
   8   1.0000      -0.193621        -5.2687 
   9   0.0000      -0.121693        -3.3114 
  10   0.0000      -0.053897        -1.4666 
  11   0.0000      -0.000428        -0.0116 
  12   0.0000       0.003354         0.0913 
  13   0.0000       0.006467         0.1760 
  14   0.0000       0.013743         0.3740 
  15   0.0000       0.021671         0.5897 
  16   0.0000       0.022755         0.6192 
  17   0.0000       0.040133         1.0921 
  18   0.0000       0.056622         1.5408 
  19   0.0000       0.057599         1.5674 
*Only the first 10 virtual orbitals were printed.

                    ********************************
                    * MULLIKEN POPULATION ANALYSIS *
                    ********************************

--------------------------------------------
MULLIKEN ATOMIC CHARGES AND SPIN POPULATIONS
--------------------------------------------
   0 Li:    0.428664   -0.004122
   1 S :   -0.428664    1.004122
Sum of atomic charges         :    0.0000000
Sum of atomic spin populations:    1.0000000

-----------------------------------------------------
MULLIKEN REDUCED ORBITAL CHARGES AND SPIN POPULATIONS
-----------------------------------------------------
CHARGE
  0 Lis       :     2.265100  s :     2.265100
      pz      :     0.150892  p :     0.250553
      px      :     0.069078
      py      :     0.030582
      dz2     :     0.025005  d :     0.045650
      dxz     :     0.013565
      dyz     :     0.007082
      dx2y2   :    -0.000001
      dxy     :    -0.000002
      f0      :     0.006908  f :     0.008562
      f+1     :     0.000945
      f-1     :     0.000715
      f+2     :    -0.000004
      f-2     :    -0.000005
      f+3     :     0.000001
      f-3     :     0.000001
      g0      :     0.001764  g :     0.001471
      g+1     :    -0.000202
      g-1     :    -0.000087
      g+2     :    -0.000004
      g-2     :    -0.000004
      g+3     :     0.000001
      g-3     :     0.000002
      g+4     :     0.000000
      g-4     :     0.000000

  1 S s       :     5.908316  s :     5.908316
      pz      :     3.654337  p :    10.522104
      px      :     3.750028
      py      :     3.117739
      dz2     :    -0.013058  d :    -0.002814
      dxz     :     0.005792
      dyz     :     0.003435
      dx2y2   :     0.000470
      dxy     :     0.000547
      f0      :    -0.001056  f :     0.000290
      f+1     :     0.000553
      f-1     :     0.000216
      f+2     :     0.000069
      f-2     :     0.000081
      f+3     :     0.000201
      f-3     :     0.000227
      g0      :     0.000639  g :     0.000768
      g+1     :     0.000081
      g-1     :     0.000041
      g+2     :     0.000001
      g-2     :     0.000002
      g+3     :     0.000001
      g-3     :     0.000001
      g+4     :     0.000000
      g-4     :     0.000002


SPIN
  0 Lis       :    -0.015083  s :    -0.015083
      pz      :    -0.006468  p :     0.007678
      px      :    -0.002785
      py      :     0.016931
      dz2     :    -0.001651  d :     0.003293
      dxz     :     0.000335
      dyz     :     0.004607
      dx2y2   :     0.000001
      dxy     :     0.000001
      f0      :    -0.000327  f :     0.000171
      f+1     :    -0.000049
      f-1     :     0.000544
      f+2     :    -0.000000
      f-2     :    -0.000000
      f+3     :     0.000001
      f-3     :     0.000002
      g0      :     0.000002  g :    -0.000181
      g+1     :    -0.000113
      g-1     :    -0.000070
      g+2     :    -0.000002
      g-2     :    -0.000002
      g+3     :     0.000001
      g-3     :     0.000002
      g+4     :    -0.000000
      g-4     :    -0.000000

  1 S s       :    -0.002921  s :    -0.002921
      pz      :     0.025176  p :     1.002442
      px      :     0.161953
      py      :     0.815313
      dz2     :     0.000610  d :     0.004123
      dxz     :     0.000409
      dyz     :     0.002410
      dx2y2   :     0.000321
      dxy     :     0.000373
      f0      :    -0.000173  f :     0.000441
      f+1     :    -0.000034
      f-1     :     0.000104
      f+2     :     0.000063
      f-2     :     0.000073
      f+3     :     0.000199
      f-3     :     0.000209
      g0      :     0.000008  g :     0.000037
      g+1     :     0.000002
      g-1     :     0.000026
      g+2     :    -0.000000
      g-2     :    -0.000000
      g+3     :     0.000001
      g-3     :     0.000001
      g+4     :    -0.000000
      g-4     :    -0.000002



                     *******************************
                     * LOEWDIN POPULATION ANALYSIS *
                     *******************************

-------------------------------------------
LOEWDIN ATOMIC CHARGES AND SPIN POPULATIONS
-------------------------------------------
   0 Li:   -0.808167    0.243596
   1 S :    0.808167    0.756404

----------------------------------------------------
LOEWDIN REDUCED ORBITAL CHARGES AND SPIN POPULATIONS
----------------------------------------------------
CHARGE
  0 Lis       :     2.140196  s :     2.140196
      pz      :     0.357733  p :     0.578862
      px      :     0.146072
      py      :     0.075057
      dz2     :     0.248452  d :     0.498172
      dxz     :     0.154954
      dyz     :     0.094756
      dx2y2   :     0.000005
      dxy     :     0.000006
      f0      :     0.158736  f :     0.378342
      f+1     :     0.133108
      f-1     :     0.086465
      f+2     :     0.000013
      f-2     :     0.000015
      f+3     :     0.000002
      f-3     :     0.000003
      g0      :     0.076056  g :     0.212594
      g+1     :     0.081495
      g-1     :     0.054994
      g+2     :     0.000017
      g-2     :     0.000020
      g+3     :     0.000005
      g-3     :     0.000007
      g+4     :     0.000000
      g-4     :     0.000000

  1 S s       :     5.321280  s :     5.321280
      pz      :     3.629871  p :     9.791469
      px      :     3.317126
      py      :     2.844473
      dz2     :     0.026211  d :     0.034420
      dxz     :     0.004689
      dyz     :     0.002589
      dx2y2   :     0.000431
      dxy     :     0.000501
      f0      :     0.027779  f :     0.032028
      f+1     :     0.002329
      f-1     :     0.001362
      f+2     :     0.000065
      f-2     :     0.000076
      f+3     :     0.000197
      f-3     :     0.000221
      g0      :     0.012534  g :     0.012636
      g+1     :     0.000067
      g-1     :     0.000029
      g+2     :     0.000001
      g-2     :     0.000001
      g+3     :     0.000001
      g-3     :     0.000001
      g+4     :     0.000000
      g-4     :     0.000002


SPIN
  0 Lis       :    -0.008194  s :    -0.008194
      pz      :    -0.003300  p :     0.045134
      px      :     0.001009
      py      :     0.047425
      dz2     :     0.000387  d :     0.079330
      dxz     :     0.011572
      dyz     :     0.067364
      dx2y2   :     0.000003
      dxy     :     0.000004
      f0      :     0.000974  f :     0.077198
      f+1     :     0.012958
      f-1     :     0.063241
      f+2     :     0.000010
      f-2     :     0.000012
      f+3     :     0.000002
      f-3     :     0.000002
      g0      :     0.000614  g :     0.050128
      g+1     :     0.009084
      g-1     :     0.040392
      g+2     :     0.000014
      g-2     :     0.000016
      g+3     :     0.000004
      g-3     :     0.000005
      g+4     :    -0.000000
      g-4     :    -0.000000

  1 S s       :     0.003260  s :     0.003260
      pz      :     0.004513  p :     0.748148
      px      :     0.124864
      py      :     0.618772
      dz2     :     0.000763  d :     0.003255
      dxz     :     0.000133
      dyz     :     0.001720
      dx2y2   :     0.000295
      dxy     :     0.000343
      f0      :     0.000117  f :     0.001690
      f+1     :     0.000102
      f-1     :     0.000937
      f+2     :     0.000061
      f-2     :     0.000071
      f+3     :     0.000195
      f-3     :     0.000206
      g0      :     0.000041  g :     0.000051
      g+1     :    -0.000005
      g-1     :     0.000016
      g+2     :    -0.000000
      g-2     :    -0.000000
      g+3     :     0.000001
      g-3     :     0.000001
      g+4     :    -0.000000
      g-4     :    -0.000002



                      *****************************
                      * MAYER POPULATION ANALYSIS *
                      *****************************

  NA   - Mulliken gross atomic population
  ZA   - Total nuclear charge
  QA   - Mulliken gross atomic charge
  VA   - Mayer's total valence
  BVA  - Mayer's bonded valence
  FA   - Mayer's free valence

  ATOM       NA         ZA         QA         VA         BVA        FA
  0 Li     2.5713     3.0000     0.4287     0.7131     0.7117     0.0014
  1 S     16.4287    16.0000    -0.4287     1.6645     0.7117     0.9528

  Mayer bond orders larger than 0.100000
B(  0-Li,  1-S ) :   0.7117 

-------
TIMINGS
-------

Total SCF time: 0 days 0 hours 0 min 5 sec 

Total time                  ....       5.691 sec
Sum of individual times     ....       5.321 sec  ( 93.5%)

SCF preparation             ....       0.090 sec  (  1.6%)
Fock matrix formation       ....       4.523 sec  ( 79.5%)
  Startup                   ....       0.028 sec  (  0.6% of F)
  Coulomb+Exchange Fock     ....       3.914 sec  ( 86.5% of F)
  XC integration            ....       0.474 sec  ( 10.5% of F)
    XC Preparation          ....       0.000 sec  (  0.0% of XC)
    Basis function eval.    ....       0.035 sec  (  7.4% of XC)
    Density eval.           ....       0.058 sec  ( 12.1% of XC)
    XC-Functional eval.     ....       0.013 sec  (  2.8% of XC)
    XC-Potential eval.      ....       0.166 sec  ( 35.0% of XC)
Diagonalization             ....       0.000 sec  (  0.0%)
Density matrix formation    ....       0.167 sec  (  2.9%)
Total Energy calculation    ....       0.031 sec  (  0.5%)
Population analysis         ....       0.022 sec  (  0.4%)
Orbital Transformation      ....       0.052 sec  (  0.9%)
Orbital Orthonormalization  ....       0.000 sec  (  0.0%)
DIIS solution               ....       0.312 sec  (  5.5%)
SOSCF solution              ....       0.124 sec  (  2.2%)
Finished LeanSCF after   5.7 sec

Maximum memory used throughout the entire LEANSCF-calculation: 22.5 MB


           ************************************************************
           *        Program running with 8 parallel MPI-processes     *
           *              working on a common directory               *
           ************************************************************

------------------------------------------------------------------------------
                         ORCA PROPERTY INTEGRAL CALCULATIONS
------------------------------------------------------------------------------

GBWName                                   ... /cluster/projects/nn14654k/ylvaos/basis_set_n_funcs/functionals/hyb_gga_xc_b97/LiS/inp/LiS_hyb_gga_xc_b97_augccpvqz.gbw
Number of atoms                           ...      2
Number of basis functions                 ...    199
Max core memory                           ...   4096 MB

Dipole integrals                          ... YES
Quadrupole integrals                      ... YES
Linear momentum integrals                 ...  NO
Angular momentum integrals                ...  NO
Higher moments length integrals           ...  NO
Higher moments velocity integrals         ...  NO
Kinetic energy integrals                  ...  NO
GIAO right hand sides                     ...  NO
GIAO dipole derivative integrals          ...  NO
SOC integrals                             ...  NO
EPR diamagnetic integrals (GIAO)          ...  NO
EPR gauge integrals                       ...  NO
Field gradient integrals                  ...  NO (   0 nuclei)
Spin-dipole/Fermi contact integrals       ...  NO (   0 nuclei)
Contact density integrals                 ...  NO (   0 nuclei)
Nucleus-orbit integrals                   ...  NO (   0 nuclei)
Geometric perturbations                   ...  NO (   2 nuclei)

Choice of electric origin   ... Center of mass
Position of electric origin ... (  0.0000,  0.0000,  1.3082) 
Choice of magnetic origin   ... GIAO
Position of magnetic origin ... (  0.0000,  0.0000,  0.0000) 

Calculating integrals                     ... Electric Dipole (Length)     done (  0.0 sec)
Calculating integrals                     ... Electric Quadrupole (Length) done (  0.0 sec)

Property integrals calculated in   0.0 sec

Maximum memory used throughout the entire PROPINT-calculation: 13.0 MB
------------------------------------------------------------------------------
                           ORCA ORBITAL LOCALIZATION
------------------------------------------------------------------------------

Input orbitals are from                  ... /cluster/projects/nn14654k/ylvaos/basis_set_n_funcs/functionals/hyb_gga_xc_b97/LiS/inp/LiS_hyb_gga_xc_b97_augccpvqz.gbw
Output orbitals are to                   ... /cluster/projects/nn14654k/ylvaos/basis_set_n_funcs/functionals/hyb_gga_xc_b97/LiS/inp/LiS_hyb_gga_xc_b97_augccpvqz.loc
Max. number of iterations                ... 128
Localizations seeded randomly            ... on
Convergence tolerance                    ... 1.000e-06
Threshold for strong local MOs           ... 9.500e-01
Threshold for bond MOs                   ... 8.500e-01
Operator                                 ... 0
Orbital range for localization           ... 5 to 9
Localization criterion                   ... NEW-BOYS
Doing the dipole integrals               ... o.k.
Initial value of the localization sum :    12.647430
ITERATION   0 : L=   15.6455938854 DL=  3.00e+00 (AVERGE_DL)=    0.5475548794 
ITERATION   1 : L=   15.8054419203 DL=  1.60e-01 (AVERGE_DL)=    0.1264310227 
ITERATION   2 : L=   15.8377967968 DL=  3.24e-02 (AVERGE_DL)=    0.0568813471 
ITERATION   3 : L=   15.8682948546 DL=  3.05e-02 (AVERGE_DL)=    0.0552250466 
ITERATION   4 : L=   15.8864906301 DL=  1.82e-02 (AVERGE_DL)=    0.0426565066 
ITERATION   5 : L=   15.8981756629 DL=  1.17e-02 (AVERGE_DL)=    0.0341833772 
ITERATION   6 : L=   15.9047772876 DL=  6.60e-03 (AVERGE_DL)=    0.0256936269 
ITERATION   7 : L=   15.9084949953 DL=  3.72e-03 (AVERGE_DL)=    0.0192813582 
ITERATION   8 : L=   15.9106029012 DL=  2.11e-03 (AVERGE_DL)=    0.0145186291 
ITERATION   9 : L=   15.9118653366 DL=  1.26e-03 (AVERGE_DL)=    0.0112358151 
ITERATION  10 : L=   15.9126859598 DL=  8.21e-04 (AVERGE_DL)=    0.0090588254 
ITERATION  11 : L=   15.9132718250 DL=  5.86e-04 (AVERGE_DL)=    0.0076541834 
ITERATION  12 : L=   15.9137254111 DL=  4.54e-04 (AVERGE_DL)=    0.0067348796 
ITERATION  13 : L=   15.9140968080 DL=  3.71e-04 (AVERGE_DL)=    0.0060942346 
ITERATION  14 : L=   15.9144106622 DL=  3.14e-04 (AVERGE_DL)=    0.0056022691 
ITERATION  15 : L=   15.9146797467 DL=  2.69e-04 (AVERGE_DL)=    0.0051873351 
ITERATION  16 : L=   15.9149114689 DL=  2.32e-04 (AVERGE_DL)=    0.0048137533 
ITERATION  17 : L=   15.9151108765 DL=  1.99e-04 (AVERGE_DL)=    0.0044655085 
ITERATION  18 : L=   15.9152819656 DL=  1.71e-04 (AVERGE_DL)=    0.0041362916 
ITERATION  19 : L=   15.9154282123 DL=  1.46e-04 (AVERGE_DL)=    0.0038242213 
ITERATION  20 : L=   15.9155527585 DL=  1.25e-04 (AVERGE_DL)=    0.0035291111 
ITERATION  21 : L=   15.9156584636 DL=  1.06e-04 (AVERGE_DL)=    0.0032512317 
ITERATION  22 : L=   15.9157479136 DL=  8.94e-05 (AVERGE_DL)=    0.0029908186 
ITERATION  23 : L=   15.9158234208 DL=  7.55e-05 (AVERGE_DL)=    0.0027478574 
ITERATION  24 : L=   15.9158870295 DL=  6.36e-05 (AVERGE_DL)=    0.0025220767 
ITERATION  25 : L=   15.9159405283 DL=  5.35e-05 (AVERGE_DL)=    0.0023129816 
ITERATION  26 : L=   15.9159854684 DL=  4.49e-05 (AVERGE_DL)=    0.0021199080 
ITERATION  27 : L=   15.9160231852 DL=  3.77e-05 (AVERGE_DL)=    0.0019420797 
ITERATION  28 : L=   15.9160548207 DL=  3.16e-05 (AVERGE_DL)=    0.0017786383 
ITERATION  29 : L=   15.9160813476 DL=  2.65e-05 (AVERGE_DL)=    0.0016287068 
ITERATION  30 : L=   15.9161035901 DL=  2.22e-05 (AVERGE_DL)=    0.0014913924 
ITERATION  31 : L=   15.9161222446 DL=  1.87e-05 (AVERGE_DL)=    0.0013658155 
ITERATION  32 : L=   15.9161378977 DL=  1.57e-05 (AVERGE_DL)=    0.0012511217 
ITERATION  33 : L=   15.9161510421 DL=  1.31e-05 (AVERGE_DL)=    0.0011464915 
ITERATION  34 : L=   15.9161620911 DL=  1.10e-05 (AVERGE_DL)=    0.0010511405 
ITERATION  35 : L=   15.9161713905 DL=  9.30e-06 (AVERGE_DL)=    0.0009643356 
ITERATION  36 : L=   15.9161792294 DL=  7.84e-06 (AVERGE_DL)=    0.0008853784 
ITERATION  37 : L=   15.9161858492 DL=  6.62e-06 (AVERGE_DL)=    0.0008136177 
ITERATION  38 : L=   15.9161914509 DL=  5.60e-06 (AVERGE_DL)=    0.0007484452 
ITERATION  39 : L=   15.9161962021 DL=  4.75e-06 (AVERGE_DL)=    0.0006892941 
ITERATION  40 : L=   15.9162002427 DL=  4.04e-06 (AVERGE_DL)=    0.0006356546 
ITERATION  41 : L=   15.9162036883 DL=  3.45e-06 (AVERGE_DL)=    0.0005869926 
ITERATION  42 : L=   15.9162066356 DL=  2.95e-06 (AVERGE_DL)=    0.0005428894 
ITERATION  43 : L=   15.9162091649 DL=  2.53e-06 (AVERGE_DL)=    0.0005029180 
ITERATION  44 : L=   15.9162113429 DL=  2.18e-06 (AVERGE_DL)=    0.0004666963 
ITERATION  45 : L=   15.9162132252 DL=  1.88e-06 (AVERGE_DL)=    0.0004338508 
ITERATION  46 : L=   15.9162148579 DL=  1.63e-06 (AVERGE_DL)=    0.0004040667 
ITERATION  47 : L=   15.9162162795 DL=  1.42e-06 (AVERGE_DL)=    0.0003770501 
ITERATION  48 : L=   15.9162175220 DL=  1.24e-06 (AVERGE_DL)=    0.0003524882 
ITERATION  49 : L=   15.9162186121 DL=  1.09e-06 (AVERGE_DL)=    0.0003301567 
ITERATION  50 : L=   15.9162195722 DL=  9.60e-07 (AVERGE_DL)=    0.0003098543 
LOCALIZATION SUM CONVERGED


--------------------------------------------------------------------------------
                    LOCALIZED MOLECULAR ORBITAL COMPOSITIONS
--------------------------------------------------------------------------------

The Mulliken populations for each LMO on each atom are computed
The LMO`s will be ordered according to atom index and type
  (A) Strongly localized MO`s have populations of >=0.950 on one atom
  (B) Two center bond orbitals have populations of >=0.850 on two atoms
  (C) Other MO`s are considered to be `delocalized`

FOUND  -   3 strongly local MO`s
       -   2 two center bond MO`s
       -   0 significantly delocalized MO`s

Rather strongly localized orbitals:
MO   7:   1S  -   0.972381
MO   6:   1S  -   0.977208
MO   5:   0Li -   1.047650
Bond-like localized orbitals:
MO   9:   1S  -   0.907424  and   0Li -   0.092576
MO   8:   1S  -   0.907322  and   0Li -   0.092678
Localized MO's were stored in: /cluster/projects/nn14654k/ylvaos/basis_set_n_funcs/functionals/hyb_gga_xc_b97/LiS/inp/LiS_hyb_gga_xc_b97_augccpvqz.loc
------------------------------------------------------------------------------
                           ORCA ORBITAL LOCALIZATION
------------------------------------------------------------------------------

Input orbitals are from                  ... /cluster/projects/nn14654k/ylvaos/basis_set_n_funcs/functionals/hyb_gga_xc_b97/LiS/inp/LiS_hyb_gga_xc_b97_augccpvqz.loc
Output orbitals are to                   ... /cluster/projects/nn14654k/ylvaos/basis_set_n_funcs/functionals/hyb_gga_xc_b97/LiS/inp/LiS_hyb_gga_xc_b97_augccpvqz.loc
Max. number of iterations                ... 128
Localizations seeded randomly            ... on
Convergence tolerance                    ... 1.000e-06
Threshold for strong local MOs           ... 9.500e-01
Threshold for bond MOs                   ... 8.500e-01
Operator                                 ... 1
Orbital range for localization           ... 5 to 8
Localization criterion                   ... NEW-BOYS
Doing the dipole integrals               ... o.k.
Initial value of the localization sum :    12.296704
ITERATION   0 : L=   15.0185208566 DL=  2.72e+00 (AVERGE_DL)=    0.6735251787 
ITERATION   1 : L=   15.0597150433 DL=  4.12e-02 (AVERGE_DL)=    0.0828595064 
ITERATION   2 : L=   15.0678582488 DL=  8.14e-03 (AVERGE_DL)=    0.0368402077 
ITERATION   3 : L=   15.0800083211 DL=  1.22e-02 (AVERGE_DL)=    0.0450001341 
ITERATION   4 : L=   15.1055964993 DL=  2.56e-02 (AVERGE_DL)=    0.0653046427 
ITERATION   5 : L=   15.1516949900 DL=  4.61e-02 (AVERGE_DL)=    0.0876531904 
ITERATION   6 : L=   15.2179667092 DL=  6.63e-02 (AVERGE_DL)=    0.1050965581 
ITERATION   7 : L=   15.2878898692 DL=  6.99e-02 (AVERGE_DL)=    0.1079530454 
ITERATION   8 : L=   15.3421782645 DL=  5.43e-02 (AVERGE_DL)=    0.0951213219 
ITERATION   9 : L=   15.3758053243 DL=  3.36e-02 (AVERGE_DL)=    0.0748632752 
ITERATION  10 : L=   15.3940776456 DL=  1.83e-02 (AVERGE_DL)=    0.0551850241 
ITERATION  11 : L=   15.4033847845 DL=  9.31e-03 (AVERGE_DL)=    0.0393851470 
ITERATION  12 : L=   15.4079912751 DL=  4.61e-03 (AVERGE_DL)=    0.0277082739 
ITERATION  13 : L=   15.4102450715 DL=  2.25e-03 (AVERGE_DL)=    0.0193812470 
ITERATION  14 : L=   15.4113434709 DL=  1.10e-03 (AVERGE_DL)=    0.0135302094 
ITERATION  15 : L=   15.4118783789 DL=  5.35e-04 (AVERGE_DL)=    0.0094419984 
ITERATION  16 : L=   15.4121389817 DL=  2.61e-04 (AVERGE_DL)=    0.0065904323 
ITERATION  17 : L=   15.4122660397 DL=  1.27e-04 (AVERGE_DL)=    0.0046017755 
ITERATION  18 : L=   15.4123280331 DL=  6.20e-05 (AVERGE_DL)=    0.0032143779 
ITERATION  19 : L=   15.4123582992 DL=  3.03e-05 (AVERGE_DL)=    0.0022459652 
ITERATION  20 : L=   15.4123730828 DL=  1.48e-05 (AVERGE_DL)=    0.0015696912 
ITERATION  21 : L=   15.4123803065 DL=  7.22e-06 (AVERGE_DL)=    0.0010972466 
ITERATION  22 : L=   15.4123838372 DL=  3.53e-06 (AVERGE_DL)=    0.0007671001 
ITERATION  23 : L=   15.4123855630 DL=  1.73e-06 (AVERGE_DL)=    0.0005363146 
ITERATION  24 : L=   15.4123864070 DL=  8.44e-07 (AVERGE_DL)=    0.0003750560 
LOCALIZATION SUM CONVERGED


--------------------------------------------------------------------------------
                    LOCALIZED MOLECULAR ORBITAL COMPOSITIONS
--------------------------------------------------------------------------------

The Mulliken populations for each LMO on each atom are computed
The LMO`s will be ordered according to atom index and type
  (A) Strongly localized MO`s have populations of >=0.950 on one atom
  (B) Two center bond orbitals have populations of >=0.850 on two atoms
  (C) Other MO`s are considered to be `delocalized`

FOUND  -   2 strongly local MO`s
       -   2 two center bond MO`s
       -   0 significantly delocalized MO`s

Rather strongly localized orbitals:
MO   6:   1S  -   0.978862
MO   5:   0Li -   1.047766
Bond-like localized orbitals:
MO   8:   1S  -   0.890765  and   0Li -   0.109235
MO   7:   1S  -   0.890515  and   0Li -   0.109485
Localized MO's were stored in: /cluster/projects/nn14654k/ylvaos/basis_set_n_funcs/functionals/hyb_gga_xc_b97/LiS/inp/LiS_hyb_gga_xc_b97_augccpvqz.loc

-------------------------   --------------------
FINAL SINGLE POINT ENERGY      -405.675812405058
-------------------------   --------------------



           ************************************************************
           *        Program running with 8 parallel MPI-processes     *
           *              working on a common directory               *
           ************************************************************

------------------------------------------------------------------------------
                              ORCA PROPERTY CALCULATIONS
------------------------------------------------------------------------------

GBWName                                 ... /cluster/projects/nn14654k/ylvaos/basis_set_n_funcs/functionals/hyb_gga_xc_b97/LiS/inp/LiS_hyb_gga_xc_b97_augccpvqz.gbw
Number of atoms                         ...      2
Number of basis functions               ...    199
Max core memory                         ...   4096 MB

Electric properties:
Dipole moment                           ... YES
Quadrupole moment                       ... YES
Static polarizability (Dipole/Dipole)   ...  NO
Static polarizability (Dipole/Quad.)    ...  NO
Static polarizability (Quad./Quad.)     ...  NO
Static polarizability (Velocity)        ...  NO
Static hyperpolarizability              ...  NO

Atomic electric properties:
Dipole moment                           ...  NO
Quadrupole moment                       ...  NO
Static polarizability                   ...  NO

Choice of electric origin               ... Center of mass
Position of electric origin             ...     0.000000     0.000000     1.308198

General magnetic properties:
Magnetizability                         ...  NO

EPR properties:
g-Tensor (aka g-matrix)                 ...  NO
Zero-Field splitting spin-orbit         ...  NO
Zero-field splitting spin-spin          ...  NO
Hyperfine couplings                     ...  NO (   0 nuclei)
Quadrupole couplings                    ...  NO (   0 nuclei)
Contact density                         ...  NO (   0 nuclei)

NMR properties:
Chemical shifts                         ...  NO (   0 nuclei)
Spin-rotation constants                 ...  NO (   0 nuclei)
Spin-spin couplings                     ...  NO (   0 nuclei,    0 pairs)

Choice of magnetic origin               ... GIAO
Position of magnetic origin             ...     0.000000     0.000000     0.000000

Properties with geometric perturbations:
SCF Hessian                             ...  NO
IR spectrum                             ...  NO
VCD spectrum                            ...  NO
X-ray spectroscopy properties:
SCF XES/XAS/RIXS spectra                ...  NO

SCF SOC stabilization energy            ...  NO
Diagonal Born-Oppenheimer correction    ...  NO

-------------
DIPOLE MOMENT
-------------

Method             : SCF
Type of density    : Electron Density
Multiplicity       :   2
Irrep              :   0
Energy             :  -405.6758124050579681 Eh
Basis              : AO
                                X                 Y                 Z
Electronic contribution:      0.000000005       0.000000002      -4.289199029
Nuclear contribution   :      0.000000000       0.000000000       1.549484202
                        -----------------------------------------
Total Dipole Moment    :      0.000000005       0.000000002      -2.739714827
                        -----------------------------------------
Magnitude (a.u.)       :      2.739714827
Magnitude (Debye)      :      6.963801668



--------------------
Rotational spectrum 
--------------------
 
Rotational constants in cm-1:             0.000000             0.639339             0.639339 
Rotational constants in MHz :             0.000000         19166.891897         19166.891897 

Dipole components along the rotational axes: 
x,y,z [a.u.] :    -2.739715     0.000000     0.000000 
x,y,z [Debye]:    -6.963802     0.000000     0.000000 

 

Dipole moment calculation done in   0.0 sec 

-----------------
QUADRUPOLE MOMENT
-----------------

Method             : SCF
Type of density    : Electron Density
Multiplicity       :   2
Irrep              :   0
Energy             :  -405.6758124050579681 Eh
Basis              : AO

                XX              YY              ZZ              XY              XZ              YZ
  NUC        0.000000000     0.000000000    41.817245673     0.000000000     0.000000000     0.000000000
  EL       -13.852167523   -12.173716418   -44.972715656     0.904550517     0.000000011    -0.000000005
  TOT      -13.852167523   -12.173716418    -3.155469982     0.904550517     0.000000011    -0.000000005 (a.u.)
           -18.631639063   -16.374064923    -4.244215044     1.216651381     0.000000015    -0.000000007 (Buckingham)

diagonalized tensor:
           -14.246842763   -11.779041178    -3.155469982 (a.u.)
           -19.162490758   -15.843213227    -4.244215044 (Buckingham)
           -18.237553246    -8.279720652    26.517273898 (traceless form in Buckingham)

             0.916553385    -0.399912355     0.000000001
            -0.399912355    -0.916553385    -0.000000000
            -0.000000001    -0.000000000     1.000000000
        
Isotropic quadrupole :    -9.727117974

Quadrupole moment calculation done in   0.0 sec (  0.0 sec for integrals)

Maximum memory used throughout the entire PROP-calculation: 7.6 MB

--------------------------------
SUGGESTED CITATIONS FOR THIS RUN
--------------------------------

Below you find a list of papers that are relevant to this ORCA run
We neither can nor want to force you to cite these papers, but we appreciate if you do
You receive ORCA, which is the product of decades of hard work by many enthusiastic individuals, for free
The only thing we kindly ask in return is that you cite our papers,
We deeply appreciate it, if you show your appreciation for ORCA by not just citing the generic ORCA reference.

Please note that relegating all ORCA citations to the supporting information does *not* help us.
SI sections are not indexed - citations you put there will not count into any citation statistics
But we need these citations in order to attract the funding resources that allow us to do what we are doing

Therefore, if you are a happy ORCA user, please consider citing a few of the papers listed below in the main body of your paper

In addition to the list printed below, the program has created the file /cluster/projects/nn14654k/ylvaos/basis_set_n_funcs/functionals/hyb_gga_xc_b97/LiS/inp/LiS_hyb_gga_xc_b97_augccpvqz.bibtex that contains the list in bibtex format
You can import this file easily into all common literature databanks and citation aid programs

It goes without saying that in many instances, there are alternative algorithms to achieve similar
results as the ones you have gotten from ORCA. It is, of course, also the case that in some instances
ORCA just re-implements algorithms worked out by others. We are fully aware of that and we are also
fully appreciative of our colleagues work. Hence this citation list should not be read as indicating
that the listed papers, which are focused on our own work, are the only ones worth citing. It simply
meant to make it easier for users to cite ORCA specific papers. It is not a substitute for doing your
own literature research and citing the relevant literature in a scientifically appropriate manner.

List of essential papers. We consider these as the minimum necessary citations

  1. Neese, F.
     Software update: the ORCA program system, version 6.0
     WIRES Comput. Molec. Sci. 2025 15(1), e70019
     doi.org/10.1002/wcms.70019

List of papers to cite with high priority. The work reported in these papers was absolutely
necessary for this run to complete.
Our perspective: the developers of density functionals and basis sets usually get cited in chemistry papers
Good! But without the algorithms to do something with them, the functionals or basis sets would not do anything.
Hence, in our opinion, the algorithm design and method developments papers are equally worthy of getting cited

  1. Lehtola, S.; Steigemann, C.; Oliveira, M.; Marques, M.
     Recent developments in Libxc - A comprehensive library of functionals for density functional theory
     Software X 2018 7 , 
     doi.org/10.1016/j.softx.2017.11.002
  2. Neese, F.
     The SHARK Integral Generation and Digestion System
     J. Comp. Chem. 2022 44(3), 381
     doi.org/10.1002/jcc.26942

List of suggested additional citations. These are papers that are important in the 'surrounding' of 
of this run, or papers that preceded the highly important papers. If you like your results we are grateful for a citation.

  1. Neese, F.
     The ORCA program system
     WIRES Comput. Molec. Sci. 2012 2(1), 73-78
     doi.org/10.1002/wcms.81
  2. Neese, F.
     Software update: the ORCA program system, version 4.0
     WIRES Comput. Molec. Sci. 2018 8(1), 1-6
     doi.org/10.1002/wcms.1327
  3. Neese, F.; Wennmohs, F.; Becker, U.; Riplinger, C.
     The ORCA quantum chemistry program package
     J. Chem. Phys. 2020 152(22), 224108
     doi.org/10.1063/5.0004608
  4. Neese, F.
     Software update: The ORCA program system—Version 5.0
     WIRES Comput. Molec. Sci. 2022 12(1), e1606
     doi.org/10.1002/wcms.1606

List of optional additional citations

  1. Neese, F.
     Approximate second-order SCF convergence for spin unrestricted wavefunctions
     Chem. Phys. Lett. 2000 325(1-3), 93-98
     doi.org/10.1016/s0009-2614(00)00662-x

Timings for individual modules:

Sum of individual times          ...        8.127 sec (=   0.135 min)
Startup calculation              ...        1.265 sec (=   0.021 min)  15.6 %
SCF iterations                   ...        6.335 sec (=   0.106 min)  78.0 %
Property integrals               ...        0.271 sec (=   0.005 min)   3.3 %
Property calculations            ...        0.247 sec (=   0.004 min)   3.0 %
Orbital localization             ...        0.008 sec (=   0.000 min)   0.1 %
                             ****ORCA TERMINATED NORMALLY****
TOTAL RUN TIME: 0 days 0 hours 0 minutes 8 seconds 801 msec
