
                                 *****************
                                 * O   R   C   A *
                                 *****************

                                            #,                                       
                                            ###                                      
                                            ####                                     
                                            #####                                    
                                            ######                                   
                                           ########,                                 
                                     ,,################,,,,,                         
                               ,,#################################,,                 
                          ,,##########################################,,             
                       ,#########################################, ''#####,          
                    ,#############################################,,   '####,        
                  ,##################################################,,,,####,       
                ,###########''''           ''''###############################       
              ,#####''   ,,,,##########,,,,          '''####'''          '####       
            ,##' ,,,,###########################,,,                        '##       
           ' ,,###''''                  '''############,,,                           
         ,,##''                                '''############,,,,        ,,,,,,###''
      ,#''                                            '''#######################'''  
     '                                                          ''''####''''         
             ,#######,   #######,   ,#######,      ##                                
            ,#'     '#,  ##    ##  ,#'     '#,    #''#        ,####,    ,#,          
            ##       ##  ##   ,#'  ##            #'  '#       #'       ,# #          
            ##       ##  #######   ##           ,######,      #####,      #          
            '#,     ,#'  ##    ##  '#,     ,#' ,#      #,     #,   #      #          
             '#######'   ##     ##  '#######'  #'      '#     '####' #    #          



                #########################################################
                #                        -***-                          #
                #          Department of theory and spectroscopy        #
                #                                                       #
                #                      Frank Neese                      #
                #                                                       #
                #     Directorship, Architecture, Infrastructure        #
                #                    SHARK, DRIVERS                     #
                #        Core code/Algorithms in most modules           #
                #                                                       #
                #        Max Planck Institute fuer Kohlenforschung      #
                #                Kaiser Wilhelm Platz 1                 #
                #                 D-45470 Muelheim/Ruhr                 #
                #                      Germany                          #
                #                                                       #
                #                  All rights reserved                  #
                #                        -***-                          #
                #########################################################


                         Program Version 6.1.1  -  RELEASE   -
                                (GIT: $487d211c$)
                          ($2025-11-21 10:33:24 +0100$)


 With contributions from (in alphabetic order):
[Max-Planck-Institut fuer Kohlenforschung]                               
  Daniel Aravena         : Magnetic Suceptibility                        
  Michael Atanasov       : Ab Initio Ligand Field Theory (pilot matlab implementation)
  Alexander A. Auer      : GIAO ZORA, VPT2 properties, NMR spectrum      
  Ute Becker             : All parallelization in ORCA, NUMFREQ, NUMCALC 
  Giovanni Bistoni       : ED, misc. LED, open-shell LED, HFLD           
  Dmytro Bykov           : pre 5.0 version of the SCF Hessian            
  Marcos Casanova-Páez   : Triplet and SCS-CIS(D). UHF-(DLPNO)-IP/EA/STEOM-CCSD. UHF-CVS-IP/STEOM-CCSD   
  Vijay G. Chilkuri      : MRCI spin determinant printing, contributions to CSF-ICE 
  Pauline Colinet        : FMM embedding                                 
  Dipayan Datta          : RHF DLPNO-CCSD density                        
  Achintya Kumar Dutta   : EOM-CC, STEOM-CC                              
  Nicolas Foglia         : Exact transition moments, OPA infrastructure, MCD improvements    
  Dmitry Ganyushin       : Spin-Orbit,Spin-Spin,Magnetic field MRCI      
  Miquel Garcia-Rates    : C-PCM and meta-GGA Hessian, CCSD/C-PCM, Gaussian charge scheme 
  Tiago L. C. Gouveia    : GS-ROHF, GS-ROCIS                             
  Yang Guo               : DLPNO-NEVPT2, F12-NEVPT2, CIM, IAO-localization        
  Andreas Hansen         : Spin unrestricted coupled pair/coupled cluster methods 
  Ingolf Harden          : AUTO-CI MPn and infrastructure                
  Benjamin Helmich-Paris : MC-RPA, TRAH-(SCF,CASSCF), AVAS, COSX integrals, SCF dyn. polar., MC-PDFT, srDFT 
  Lee Huntington         : MR-EOM, pCC                                   
  Robert Izsak           : Overlap fitted RIJCOSX, COSX-SCS-MP3, EOM     
  Riya Kayal             : Wick's Theorem for AUTO-CI, AUTO-CI UHF-CCSDT 
  Emily Kempfer          : AUTO-CI RHF CISDT and CCSDT, approximate NEVPT4
  Christian Kollmar      : KDIIS, OOCD, Brueckner-CCSD(T), CCSD density, CASPT2, CASPT2-K, improved NEVPT2 
  Axel Koslowski         : Symmetry handling                             
  Simone Kossmann        : meta-GGA functionals, TD-DFT gradient, OOMP2, (MP2 Hessian; deprecated post 5.0) 
  Lucas Lang             : DCDCAS, Hyperfine gauge corrections, ICE-SOC+SSC
  Marvin Lechner         : AUTO-CI (C++ implementation), FIC-MRCC        
  Spencer Leger          : CASSCF response                               
  Dagmar Lenk            : GEPOL surface, SMD, ORCA-2-JSON               
  Dimitrios Liakos       : Extrapolation schemes; Compound Job, Property file
  Dimitrios Manganas     : Further ROCIS development; embedding schemes. LFT, Crystal Embedding 
  Dimitrios Pantazis     : SARC Basis sets                               
  Anastasios Papadopoulos: AUTO-CI, single reference methods and gradients 
  Taras Petrenko         : pre 6.0 DFT Hessian and TD-DFT gradient,  ECA, NRVS 
  Petra Pikulova         : Analytic Raman intensities                    
  Peter Pinski           : DLPNO-MP2, DLPNO-MP2 Gradient                 
  Shashank Vittal Rao    : ES-AILFT, MagRelax                            
  Christoph Reimann      : Effective Core Potentials                     
  Marius Retegan         : Local ZFS, SOC                                
  Christoph Riplinger    : Optimizer, TS searches, QM/MM, DLPNO-CCSD(T), (RO)-DLPNO pert. Triples 
  Michael Roemelt        : Original ROCIS implementation, recursive CI coupling coefficients
  Masaaki Saitow         : Open-shell DLPNO-CCSD energy and density      
  Barbara Sandhoefer     : DKH picture change effects                    
  Yorick L. A. Schmerwitz: GMF and freeze-and-release deltaSCF, NEB S-IDPP initial path                    
  Kantharuban Sivalingam : CASSCF convergence/infrastructure, NEVPT2, NEVPT3, NEVPT4(SD), FIC-MRCI and CEPA variants
  Bernardo de Souza      : ESD, SOC TD-DFT                               
  Georgi L. Stoychev     : AutoAux, RI-MP2 NMR, DLPNO-MP2 response, X2C  
  Van Anh Tran           : RI-MP2 g-tensors                              
  Willem Van den Heuvel  : Paramagnetic NMR                              
  Zikuan Wang            : NOTCH, Electric field optimization            
  Frank Wennmohs         : Technical directorship and infrastructure     
  Hang Xu                : AUTO-CI-Response properties                   
                                                                         
[FACCTs GmbH]                                                            
  Markus Bursch, Nicolas Foglia, Miquel Garcia-Rates, Ingolf Harden, Hagen Neugebauer, Anastasios Papadopoulos, 
  Christoph Riplinger, Bernardo de Souza, Georgi L. Stoychev                                                    
                                                                 
  APM, various basis sets, CI-OPT, improved COSX, DLPNO-Multilevel,           
  DOCKER, DRACO, updates on ESD, Fragmentator, GOAT, IRC, LR-CPCM, L-BFGS, MBIS, meta-GGA TD-DFT gradient, ML-optimized integration grids, 
  MM, NACMEs, nearIR, NEB, NEB-TS, NL-DFT gradient (VV10), 2- and 3-layer-ONIOM, interface openCOSMO-RS, QMMM,   
  Crystal-QMMM, RESP, rigid body optimization, SF, symmetry and pop. for TD-DFT, various functionals, SOLVATOR                                   
                                                                         
[Other institutions]                                                     
  V. Asgeirsson          : NEB                                           
  Christoph Bannwarth    : sTDA-DFT, sTD-DFT, PBEh-3c, B97-3c, D3        
  Giovanni Bistoni       : ETS/NOCV, ADLD/ADEX, COVALED                  
  Martin Brehm           : Molecular dynamics                            
  Ronald Cardenas        : ETS/NOCV                                      
  Martina Colucci        : COVALED                                       
  Sebastian Ehlert       : rSCAN, r2SCAN, r2SCAN-3c, D4, dhf basis sets  
  Marvin Friede          : D4 for Fr, Ra, Ac-Lr                          
  Lars Goerigk           : TD-DFT with DH, B97 family of functionals     
  Stefan Grimme          : VdW corrections, initial TS optimization, DFT functionals, gCP, sTDA/sTD-DF 
  Waldemar Hujo          : DFT-NL                                        
  H. Jonsson             : NEB                                           
  Holger Kruse           : gCP                                           
  Marcel Mueller         : wB97X-3c, vDZP basis set                      
  Hagen Neugebauer       : wr2SCAN, Native XTB                           
  Gianluca Regni         : ADLD/ADEX                                     
  Tobias Risthaus        : pre 6.0 range-separated hybrid DFT and stability analysis
  Lukas Wittmann         : regularized MP2, r2SCAN double-hybrids, wr2SCAN        
                                                                         
We gratefully acknowledge several colleagues who have allowed us to      
interface, adapt or use parts of their codes:                            
  Ed Valeev, F. Pavosevic, A. Kumar             : LibInt (2-el integral package), F12 methods 
  Garnet Chan, S. Sharma, J. Yang, R. Olivares  : DMRG                   
  Ulf Ekstrom                                   : XCFun DFT Library      
  Mihaly Kallay                                 : mrcc  (arbitrary order and MRCC methods)
  Frank Weinhold                                : gennbo (NPA and NBO analysis)           
  Simon Mueller                                 : openCOSMO-RS                            
  Christopher J. Cramer and Donald G. Truhlar   : smd solvation model                     
  S Lehtola, MJT Oliveira, MAL Marques          : LibXC Library                           
  Liviu Ungur et al                             : ANISO software                          


 Your calculation uses the libint2 library for the computation of 2-el integrals
 For citations please refer to: http://libint.valeyev.net

 Your ORCA version has been built with support for libXC version: 7.0.0
 For citations please refer to: https://libxc.gitlab.io

 This ORCA versions uses:
   CBLAS   interface :  Fast vector & matrix operations
   LAPACKE interface :  Fast linear algebra routines
   SCALAPACK package :  Parallel linear algebra routines
   Shared memory     :  Shared parallel matrices
   BLAS/LAPACK       :  OpenBLAS 0.3.29  USE64BITINT DYNAMIC_ARCH NO_AFFINITY Cooperlake SINGLE_THREADED
        Core in use  :  Cooperlake
   Copyright (c) 2011-2014, The OpenBLAS Project


  ***********************************
  * Starting time: Wed May 20 12:36:34 2026
  * Host name:     c1-13
  * Process ID:    2041812
  * Working dir.:  /cluster/projects/nn14654k/ylvaos/basis_set_n_funcs/functionals/hyb_gga_xc_b97/LiS/out
  ***********************************

Using LibXC functional ID 407 : Becke 97
[ 1]  A. D. Becke.,  J. Chem. Phys. 107, 8554 (1997)
Using LibXC functional ID 407 : Becke 97
[ 1]  A. D. Becke.,  J. Chem. Phys. 107, 8554 (1997)
Your calculation utilizes LibXC
by S. Lehtola, C. Steigemann, M. J. T. Oliveira & M. A. L. Marques
Please cite in your paper:
Lehtola, S.; Steigemann, C.; Oliveira, M.J.T.; Marques, M. A. L. Software X, 7, (2018), 1.
   

================================================================================

----- Orbital basis set information -----
Your calculation utilizes the basis: cc-pVTZ 
       H, B-Ne : Obtained from the ccRepo (grant-hill.group.shef.ac.uk/ccrepo) Feb. 2017
                 T. H. Dunning, Jr., J. Chem. Phys. 90, 1007 (1989)
            He : Obtained from the ccRepo (grant-hill.group.shef.ac.uk/ccrepo) Feb. 2017
                 D. E. Woon, T. H. Dunning, Jr., J. Chem. Phys. 100, 2975 (1994)
  Li-Be, Na-Mg : Obtained from the ccRepo (grant-hill.group.shef.ac.uk/ccrepo) Feb. 2017
                 B. P. Prascher, D. E. Woon, K. A. Peterson, T. H. Dunning, Jr., A. K. Wilson, Theor. Chem. Acc. 128, 69 (2011)
         Al-Ar : Obtained from the ccRepo (grant-hill.group.shef.ac.uk/ccrepo) Feb. 2017
                 D. E. Woon, T. H. Dunning, Jr., J. Chem. Phys. 98, 1358 (1993)
            Ca : Obtained from the Peterson Research Group Website (tyr0.chem.wsu.edu/~kipeters) Feb. 2017
                 J. Koput, K. A. Peterson, J. Phys. Chem. 106, 9595 (2002)
         Sc-Zn : Obtained from the ccRepo (grant-hill.group.shef.ac.uk/ccrepo) Feb. 2017
                 N. B. Balabanov, K. A. Peterson, J. Chem. Phys. 123, 064107 (2005)
                 N. B. Balabanov, K. A. Peterson, J. Chem. Phys. 125, 074110 (2006)
         Ga-Kr : Obtained from the ccRepo (grant-hill.group.shef.ac.uk/ccrepo) Feb. 2017
                 A. K. Wilson, D. E. Woon, K. A. Peterson, T. H. Dunning, Jr., J. Chem. Phys. 110, 7667 (1999)
             Y : Obtained from the ccRepo (grant-hill.group.shef.ac.uk/ccrepo) Feb. 2017
                 K. A. Peterson, D. Figgen, M. Dolg, H. Stoll, J. Chem. Phys. 126, 124101 (2007)
        Ag, Au : Obtained from the Peterson Research Group Website (tyr0.chem.wsu.edu/~kipeters) Feb. 2017
                 K. A. Peterson, C. Puzzarini, Theor. Chem. Acc. 114, 283 (2005)

================================================================================
                                        WARNINGS
                       Please study these warnings very carefully!
================================================================================


WARNING: your system is open-shell and RHF/RKS was chosen
  ===> : WILL SWITCH to UHF/UKS


================================================================================
                                       INPUT FILE
================================================================================
NAME = /cluster/projects/nn14654k/ylvaos/basis_set_n_funcs/functionals/hyb_gga_xc_b97/LiS/inp/LiS_hyb_gga_xc_b97_ccpvtz.inp
|  1> ! dft cc-pVTZ TightSCF
|  2> %pal nprocs 8 end
|  3> 
|  4> %loc
|  5>   LocMet NewBoys
|  6>   Occ true
|  7> end
|  8> 
|  9> %method
| 10>   
| 11>   functional hyb_gga_xc_b97
| 12> end
| 13> 
| 14> %elprop
| 15>   Dipole true
| 16>   Quadrupole true
| 17> end
| 18> 
| 19> * xyz 0 2
| 20> Li    0.000000000000   0.000000000000  -1.074850000000
| 21> S    0.000000000000   0.000000000000   1.074850000000
| 22> *
| 23> 
| 24> 
| 25>                          ****END OF INPUT****
================================================================================

                       ****************************
                       * Single Point Calculation *
                       ****************************

---------------------------------
CARTESIAN COORDINATES (ANGSTROEM)
---------------------------------
  Li     0.000000    0.000000   -1.074850
  S      0.000000    0.000000    1.074850

----------------------------
CARTESIAN COORDINATES (A.U.)
----------------------------
  NO LB      ZA    FRAG     MASS         X           Y           Z
   0 Li    3.0000    0     6.941    0.000000    0.000000   -2.031172
   1 S    16.0000    0    32.060    0.000000    0.000000    2.031172

--------------------------------
INTERNAL COORDINATES (ANGSTROEM)
--------------------------------
 Li     0   0   0     0.000000000000     0.00000000     0.00000000
 S      1   0   0     2.149700000000     0.00000000     0.00000000

---------------------------
INTERNAL COORDINATES (A.U.)
---------------------------
 Li     0   0   0     0.000000000000     0.00000000     0.00000000
 S      1   0   0     4.062344270091     0.00000000     0.00000000

---------------------
BASIS SET INFORMATION
---------------------
There are 2 groups of distinct atoms

 Group   1 Type Li  : 20s5p2d1f contracted to 4s3p2d1f pattern {9911/311/11/1}
 Group   2 Type S   : 41s16p2d1f contracted to 5s4p2d1f pattern {13131311/7711/11/1}

Atom   0Li   basis set group =>   1
Atom   1S    basis set group =>   2


           ************************************************************
           *        Program running with 8 parallel MPI-processes     *
           *              working on a common directory               *
           ************************************************************
------------------------------------------------------------------------------
                             ORCA STARTUP CALCULATIONS
------------------------------------------------------------------------------
------------------------------------------------------------------------------
                   ___                                                        
                  /   \      - P O W E R E D   B Y -                         
                 /     \                                                     
                 |  |  |   _    _      __       _____    __    __             
                 |  |  |  | |  | |    /  \     |  _  \  |  |  /  |          
                  \  \/   | |  | |   /    \    | | | |  |  | /  /          
                 / \  \   | |__| |  /  /\  \   | |_| |  |  |/  /          
                |  |  |   |  __  | /  /__\  \  |    /   |      \           
                |  |  |   | |  | | |   __   |  |    \   |  |\   \          
                \     /   | |  | | |  |  |  |  | |\  \  |  | \   \       
                 \___/    |_|  |_| |__|  |__|  |_| \__\ |__|  \__/        
                                                                              
                      - O R C A' S   B I G   F R I E N D -                    
                                      &                                       
                       - I N T E G R A L  F E E D E R -                       
                                                                              
 v1 FN, 2020, v2 2021, v3 2022-2024                                           
------------------------------------------------------------------------------


----------------------
SHARK INTEGRAL PACKAGE
----------------------

Number of atoms                             ...      2
Number of basis functions                   ...     96
Number of shells                            ...     44
Maximum angular momentum                    ...      3
Integral batch strategy                     ... SHARK/LIBINT Hybrid
RI-J (if used) integral strategy            ... SPLIT-RIJ (Revised 2003 algorithm where possible)
Printlevel                                  ...      1
Contraction scheme used                     ... PARTIAL GENERAL contraction
Prescreening option                         ... SCHWARTZ
   Thresh                                   ... 2.500e-11
   Tcut                                     ... 2.500e-12
   Tpresel                                  ... 2.500e-12 
Coulomb Range Separation                    ... NOT USED
Exchange Range Separation                   ... NOT USED
Multipole approximations                    ... NOT USED
Finite Nucleus Model                        ... NOT USED
CABS basis                                  ... NOT available
Auxiliary Coulomb fitting basis             ... NOT available
Auxiliary J/K fitting basis                 ... NOT available
Auxiliary Correlation fitting basis         ... NOT available
Auxiliary 'external' fitting basis          ... NOT available

Checking pre-screening integrals            ... done (  0.0 sec) Dimension = 44
Save PGC pre-screening integrals            ... done (  0.0 sec) Dimension = 44
Calculate PGC overlap integrals             ... done (  0.0 sec) Dimension = 22
Calculating pre-screening integrals (ORCA)  ... done (  0.0 sec) Dimension = 22
Shell pair information
Shell pair cut-off parameter TPreSel        ...   2.5e-12
Total number of shell pairs                 ...       990
Shell pairs after pre-screening             ...       865
Total number of primitive shell pairs       ...      1084
Primitive shell pairs kept                  ...       943
          la=0 lb=0:    268 shell pairs
          la=1 lb=0:    271 shell pairs
          la=1 lb=1:     78 shell pairs
          la=2 lb=0:    104 shell pairs
          la=2 lb=1:     48 shell pairs
          la=2 lb=2:     10 shell pairs
          la=3 lb=0:     51 shell pairs
          la=3 lb=1:     24 shell pairs
          la=3 lb=2:      8 shell pairs
          la=3 lb=3:      3 shell pairs

Checking whether 4 symmetric matrices of dimension 96 fit in memory
:Max Core in MB      =   4096.00
 MB in use           =      2.78
 MB left             =   4093.22
 MB needed           =      0.14
 Data fit in memory  = YES
Calculating Nuclear repulsion               ... done (  0.0 sec) ENN=     11.815837557985 Eh

Diagonalization of the overlap matrix:
Smallest eigenvalue                        ... 4.294e-03
Time for diagonalization                   ...    0.001 sec
Threshold for overlap eigenvalues          ... 1.000e-07
Number of eigenvalues below threshold      ... 0
Time for construction of square roots      ...    0.020 sec
Total time needed                          ...    0.024 sec

-------------------
DFT GRID GENERATION
-------------------

General Integration Accuracy     IntAcc      ... 4.388
Radial Grid Type                 RadialGrid  ... OptM3 with GC (2021)
Angular Grid (max. ang.)         AngularGrid ... 4 (Lebedev-302)
Angular grid pruning method      GridPruning ... 4 (adaptive)
Weight generation scheme         WeightScheme... mBecke (2022)
Basis function cutoff            BFCut       ... 1.0000e-11
Integration weight cutoff        WCut        ... 1.0000e-14
Partially contracted basis set               ... off
Rotationally invariant grid construction     ... off
Angular grids for H and He will be reduced by one unit

Total number of grid points                  ...    13486
Total number of batches                      ...      212
Average number of points per batch           ...       63
Average number of grid points per atom       ...     6743

---------------------
SHARK GRID GENERATION
---------------------

General Integration Accuracy     IntAcc      ... 4.388
Radial Grid Type                 RadialGrid  ... OptM3 with GC (2021)
Angular Grid (max. ang.)         AngularGrid ... 4 (Lebedev-302)
Angular grid pruning method      GridPruning ... 4 (adaptive)
Weight generation scheme         WeightScheme... mBecke (2022)
Basis function cutoff            BFCut       ... 1.0000e-11
Integration weight cutoff        WCut        ... 1.0000e-14
Partially contracted basis set               ... off
Rotationally invariant grid construction     ... off
Angular grids for H and He will be reduced by one unit
Core-polarized basis detected: some atoms will have their core
                               angular grid increased.
Steep s-basis detected: some atoms will have their radial
                        grid points doubled.

Total number of grid points                  ...    31699
Total number of batches                      ...      497
Average number of points per batch           ...       63
Average number of grid points per atom       ...    15850
Grids setup in   1.1 sec
Initializing property integral containers    ... done (  0.0 sec)

SHARK setup successfully completed in   1.3 seconds

Maximum memory used throughout the entire STARTUP-calculation: 47.6 MB


           ************************************************************
           *        Program running with 8 parallel MPI-processes     *
           *              working on a common directory               *
           ************************************************************
-------------------------------------------------------------------------------
                                 ORCA GUESS
                   Start orbitals & Density for SCF / CASSCF
-------------------------------------------------------------------------------

------------
SCF SETTINGS
------------
Hamiltonian:
 Density Functional     Method          .... DFT(GTOs)
  Functional kind                       .... Exchange-Correlation
  Functional name                       .... Becke 97
  Functional family                     .... Hybrid GGA
  Functional refs                              
    [ 0] A. D. Becke.,  J. Chem. Phys. 107, 8554 (1997), doi: 10.1063/1.475007
  Fraction of HF Exchange               .... 0.1943
  Functional external parameters        .... 16
    Parameter  0 _cx0       =  8.094000e-01 : u^0 coefficient for exchange
    Parameter  1 _cx1       =  5.073000e-01 : u^1 coefficient for exchange
    Parameter  2 _cx2       =  7.481000e-01 : u^2 coefficient for exchange
    Parameter  3 _cx3       =  0.000000e+00 : u^3 coefficient for exchange
    Parameter  4 _cx4       =  0.000000e+00 : u^4 coefficient for exchange
    Parameter  5 _css0      =  1.737000e-01 : u^0 coefficient for same-spin correlation
    Parameter  6 _css1      =  2.348700e+00 : u^1 coefficient for same-spin correlation
    Parameter  7 _css2      = -2.486800e+00 : u^2 coefficient for same-spin correlation
    Parameter  8 _css3      =  0.000000e+00 : u^3 coefficient for same-spin correlation
    Parameter  9 _css4      =  0.000000e+00 : u^4 coefficient for same-spin correlation
    Parameter 10 _cos0      =  9.454000e-01 : u^0 coefficient for opposite-spin correlation
    Parameter 11 _cos1      =  7.471000e-01 : u^1 coefficient for opposite-spin correlation
    Parameter 12 _cos2      = -4.596100e+00 : u^2 coefficient for opposite-spin correlation
    Parameter 13 _cos3      =  0.000000e+00 : u^3 coefficient for opposite-spin correlation
    Parameter 14 _cos4      =  0.000000e+00 : u^4 coefficient for opposite-spin correlation
    Parameter 15 _cxx       =  1.943000e-01 : coefficient for exact exchange


General Settings:
 Integral files         IntName         .... /cluster/projects/nn14654k/ylvaos/basis_set_n_funcs/functionals/hyb_gga_xc_b97/LiS/inp/LiS_hyb_gga_xc_b97_ccpvtz
 Hartree-Fock type      HFTyp           .... UHF
 Total Charge           Charge          ....    0
 Multiplicity           Mult            ....    2
 Number of Electrons    NEL             ....   19
 Basis Dimension        Dim             ....   64
 Nuclear Repulsion      ENuc            ....     11.8158375580 Eh

Convergence Acceleration:
 AO-DIIS                CNVDIIS         .... on
   Start iteration      DIISMaxIt       ....    12
   Startup error        DIISStart       ....  0.200000
   # of expansion vecs  DIISMaxEq       ....     5
   Bias factor          DIISBfac        ....   1.050
   Max. coefficient     DIISMaxC        ....  10.000
 MO-DIIS                CNVKDIIS        .... off
 Trust-Rad. Augm. Hess. CNVTRAH         .... auto
   Auto Start mean grad. ratio tolernc. ....  1.125000
   Auto Start start iteration           ....    50
   Auto Start num. interpolation iter.  ....    10
   Max. Number of Micro iterations      ....    24
   Max. Number of Macro iterations      .... Maxiter - #DIIS iter
   Number of Davidson start vectors     ....     2
   Converg. threshold    (grad. norm)   ....   1.000e-05
   Grad. Scal. Fac. for Micro threshold ....   0.100
   Minimum threshold for Micro iter.    ....   1.000e-02
   NR start threshold (gradient norm)   ....   1.000e-04
   Initial trust radius                 ....   0.400
   Minimum AH scaling param. (alpha)    ....   1.000
   Maximum AH scaling param. (alpha)    .... 1000.000
   Quad. conv. algorithm                .... NR
   White noise on init. David. guess    .... on
   Maximum white noise                  ....   0.010
   Pseudo random numbers                .... off
   Inactive MOs                         .... canonical
   Orbital update algorithm             .... Taylor
   Preconditioner                       .... Diag
   Full preconditioner red. dimension   ....   250
 SOSCF                 CNVSOSCF           .... on
   Start iteration     SOSCFMaxIt         ....   150
   Startup grad/error  SOSCFStart         ....  0.003300
   Hessian update      SOSCFHessUp        .... L-BFGS
   Autom. constraints  SOSCFAutoConstrain .... off
 Level Shifting         CNVShift        .... on
   Level shift para.    LevelShift      ....    0.2500
   Turn off err/grad.   ShiftErr        ....    0.0010
 Zerner damping         CNVZerner       .... off
 Static damping         CNVDamp         .... on
   Fraction old density DampFac         ....    0.7000
   Max. Damping (<1)    DampMax         ....    0.9800
   Min. Damping (>=0)   DampMin         ....    0.0000
   Turn off err/grad.   DampErr         ....    0.1000

SCF Procedure:
 Maximum # iterations   MaxIter         ....   125
 SCF integral mode      SCFMode         .... Direct
   Integral package                     .... SHARK and LIBINT hybrid scheme
 Reset frequency        DirectResetFreq ....    20
 Integral Threshold     Thresh          ....  2.500e-11 Eh
 Primitive CutOff       TCut            ....  2.500e-12 Eh

Convergence Tolerance:
 Convergence Check Mode ConvCheckMode   .... Total+1el-Energy
 Convergence forced     ConvForced      .... 0
 Energy Change          TolE            ....  1.000e-08 Eh
 1-El. energy change                    ....  1.000e-05 Eh
 Orbital Gradient       TolG            ....  1.000e-05
 Orbital Rotation angle TolX            ....  1.000e-05
 DIIS Error             TolErr          ....  5.000e-07

------------------------------
INITIAL GUESS: MODEL POTENTIAL
------------------------------
Loading Hartree-Fock densities                     ... done
Calculating cut-offs                               ... done
Initializing the effective Hamiltonian             ... done
Setting up the integral package (SHARK)            ... done
Starting the Coulomb interaction                   ... done (   0.0 sec)
Making the grid                                    ... done (   0.0 sec)
Mapping shells                                     ... done
Starting the XC term evaluation                    ... done (   0.0 sec)
  promolecular density results
     # of electrons  =     18.999659774
     EX+EC           =    -22.205601173
Transforming the Hamiltonian                       ... done (   0.0 sec)
Diagonalizing the Hamiltonian                      ... done (   0.0 sec)
Back transforming the eigenvectors                 ... done (   0.0 sec)
Now organizing SCF variables                       ... done
                      ------------------
                      INITIAL GUESS DONE (   0.1 sec)
                      ------------------
             **** ENERGY FILE WAS UPDATED (/cluster/projects/nn14654k/ylvaos/basis_set_n_funcs/functionals/hyb_gga_xc_b97/LiS/inp/LiS_hyb_gga_xc_b97_ccpvtz.en.tmp) ****
Finished Guess after   0.2 sec
Maximum memory used throughout the entire GUESS-calculation: 6.4 MB


           ************************************************************
           *        Program running with 8 parallel MPI-processes     *
           *              working on a common directory               *
           ************************************************************

-------------------------------------------------------------------------------------------
                                      ORCA LEAN-SCF
                              memory conserving SCF solver
-------------------------------------------------------------------------------------------

----------------------------------------D-I-I-S--------------------------------------------
Iteration    Energy (Eh)           Delta-E    RMSDP     MaxDP     DIISErr   Damp  Time(sec)
-------------------------------------------------------------------------------------------
               ***  Starting incremental Fock matrix formation  ***
    1    -405.6346932175630968     0.00e+00  6.55e-03  7.39e-02  1.33e-01  0.700   0.1
Warning: op=1 Small HOMO/LUMO gap (   0.066) - skipping pre-diagonalization
         Will do a full diagonalization
    2    -405.6469867237569247    -1.23e-02  4.63e-03  5.20e-02  8.43e-02  0.700   0.2
                               ***Turning on AO-DIIS***
    3    -405.6547409207045121    -7.75e-03  2.65e-03  2.93e-02  5.28e-02  0.700   0.1
    4    -405.6598334350525192    -5.09e-03  5.93e-03  6.38e-02  3.71e-02  0.000   0.1
                              *** Initializing SOSCF ***
---------------------------------------S-O-S-C-F--------------------------------------
Iteration    Energy (Eh)           Delta-E    RMSDP     MaxDP     MaxGrad    Time(sec)
--------------------------------------------------------------------------------------
    5    -405.6712017647853941    -1.14e-02  3.65e-04  2.90e-03  2.50e-03     0.1
               *** Restarting incremental Fock matrix formation ***
    6    -405.6712421774385575    -4.04e-05  1.97e-04  1.07e-03  7.04e-04     0.1
    7    -405.6712507882540990    -8.61e-06  1.10e-04  1.07e-03  4.22e-04     0.1
    8    -405.6712534220719135    -2.63e-06  2.37e-05  2.16e-04  8.83e-05     0.1
    9    -405.6712535116159870    -8.95e-08  3.85e-06  2.13e-05  1.11e-05     0.1
   10    -405.6712535148616325    -3.25e-09  1.75e-06  1.24e-05  6.92e-06     0.1
                 **** Energy Check signals convergence ****

               *****************************************************
               *                     SUCCESS                       *
               *           SCF CONVERGED AFTER  10 CYCLES          *
               *****************************************************

             **** ENERGY FILE WAS UPDATED (/cluster/projects/nn14654k/ylvaos/basis_set_n_funcs/functionals/hyb_gga_xc_b97/LiS/inp/LiS_hyb_gga_xc_b97_ccpvtz.en.tmp) ****

----------------
TOTAL SCF ENERGY
----------------

Total Energy       :       -405.67125351566904 Eh          -11038.87601 eV

Components:
Nuclear Repulsion  :         11.81583755798484 Eh             321.52529 eV
Electronic Energy  :       -417.48709107365386 Eh          -11360.40130 eV
One Electron Energy:       -584.56297112843913 Eh          -15906.76713 eV
Two Electron Energy:        167.07588005478527 Eh            4546.36583 eV

Virial components:
Potential Energy   :       -810.21993780230719 Eh          -22047.20537 eV
Kinetic Energy     :        404.54868428663821 Eh           11008.32935 eV
Virial Ratio       :          2.00277486807555

DFT components:
N(Alpha)           :        9.999988008374 electrons
N(Beta)            :        8.999987744035 electrons
N(Total)           :       18.999975752409 electrons
E(XC)              :      -22.305937492958 Eh       

---------------
SCF CONVERGENCE
---------------

  Last Energy change         ...    3.2456e-09  Tolerance :   1.0000e-08
  Last MAX-Density change    ...    1.2401e-05  Tolerance :   1.0000e-07
  Last RMS-Density change    ...    1.7482e-06  Tolerance :   5.0000e-09
  Last DIIS Error            ...    2.5037e-03  Tolerance :   5.0000e-07
  Last Orbital Gradient      ...    6.9160e-06  Tolerance :   1.0000e-05
  Last Orbital Rotation      ...    1.8547e-05  Tolerance :   1.0000e-05


----------------------
UHF SPIN CONTAMINATION
----------------------

Warning: in a DFT calculation there is little theoretical justification to 
         calculate <S**2> as in Hartree-Fock theory. We will do it anyways
         but you should keep in mind that the values have only limited relevance

Expectation value of <S**2>     :     0.753993
Ideal value S*(S+1) for S=0.5   :     0.750000
Deviation                       :     0.003993

----------------
ORBITAL ENERGIES
----------------
                 SPIN UP ORBITALS
  NO   OCC          E(Eh)            E(eV) 
   0   1.0000     -88.769215     -2415.5331 
   1   1.0000      -7.875738      -214.3097 
   2   1.0000      -5.841739      -158.9618 
   3   1.0000      -5.826071      -158.5354 
   4   1.0000      -5.825466      -158.5190 
   5   1.0000      -2.017290       -54.8932 
   6   1.0000      -0.613973       -16.7071 
   7   1.0000      -0.246176        -6.6988 
   8   1.0000      -0.228813        -6.2263 
   9   1.0000      -0.205158        -5.5826 
  10   0.0000      -0.053129        -1.4457 
  11   0.0000       0.001760         0.0479 
  12   0.0000       0.005466         0.1487 
  13   0.0000       0.025554         0.6954 
  14   0.0000       0.064601         1.7579 
  15   0.0000       0.067333         1.8322 
  16   0.0000       0.070749         1.9252 
  17   0.0000       0.138707         3.7744 
  18   0.0000       0.138911         3.7800 
  19   0.0000       0.141412         3.8480 
  20   0.0000       0.174039         4.7358 

                 SPIN DOWN ORBITALS
  NO   OCC          E(Eh)            E(eV) 
   0   1.0000     -88.764566     -2415.4066 
   1   1.0000      -7.871277      -214.1883 
   2   1.0000      -5.826260      -158.5406 
   3   1.0000      -5.822848      -158.4478 
   4   1.0000      -5.822183      -158.4297 
   5   1.0000      -2.017497       -54.8989 
   6   1.0000      -0.567973       -15.4553 
   7   1.0000      -0.215121        -5.8537 
   8   1.0000      -0.191508        -5.2112 
   9   0.0000      -0.120057        -3.2669 
  10   0.0000      -0.052947        -1.4407 
  11   0.0000       0.005168         0.1406 
  12   0.0000       0.012272         0.3339 
  13   0.0000       0.027533         0.7492 
  14   0.0000       0.066510         1.8098 
  15   0.0000       0.070191         1.9100 
  16   0.0000       0.071801         1.9538 
  17   0.0000       0.139789         3.8038 
  18   0.0000       0.140099         3.8123 
  19   0.0000       0.143325         3.9001 
*Only the first 10 virtual orbitals were printed.

                    ********************************
                    * MULLIKEN POPULATION ANALYSIS *
                    ********************************

--------------------------------------------
MULLIKEN ATOMIC CHARGES AND SPIN POPULATIONS
--------------------------------------------
   0 Li:    0.326996    0.018638
   1 S :   -0.326996    0.981362
Sum of atomic charges         :   -0.0000000
Sum of atomic spin populations:    1.0000000

-----------------------------------------------------
MULLIKEN REDUCED ORBITAL CHARGES AND SPIN POPULATIONS
-----------------------------------------------------
CHARGE
  0 Lis       :     2.197727  s :     2.197727
      pz      :     0.190163  p :     0.356800
      px      :     0.127923
      py      :     0.038714
      dz2     :     0.036867  d :     0.099185
      dxz     :     0.044525
      dyz     :     0.017781
      dx2y2   :     0.000011
      dxy     :     0.000000
      f0      :     0.003776  f :     0.019291
      f+1     :     0.010071
      f-1     :     0.005420
      f+2     :     0.000015
      f-2     :     0.000001
      f+3     :     0.000005
      f-3     :     0.000003

  1 S s       :     5.884422  s :     5.884422
      pz      :     3.680749  p :    10.432471
      px      :     3.805291
      py      :     2.946431
      dz2     :     0.004999  d :     0.009465
      dxz     :     0.002300
      dyz     :     0.001203
      dx2y2   :     0.000926
      dxy     :     0.000037
      f0      :     0.000211  f :     0.000638
      f+1     :     0.000080
      f-1     :    -0.000022
      f+2     :     0.000092
      f-2     :     0.000004
      f+3     :     0.000139
      f-3     :     0.000134


SPIN
  0 Lis       :    -0.015049  s :    -0.015049
      pz      :    -0.009670  p :     0.016463
      px      :    -0.011230
      py      :     0.037362
      dz2     :    -0.003113  d :     0.012349
      dxz     :    -0.001877
      dyz     :     0.017332
      dx2y2   :     0.000007
      dxy     :     0.000000
      f0      :    -0.000377  f :     0.004875
      f+1     :    -0.000066
      f-1     :     0.005298
      f+2     :     0.000013
      f-2     :     0.000001
      f+3     :     0.000004
      f-3     :     0.000003

  1 S s       :     0.017098  s :     0.017098
      pz      :     0.010423  p :     0.962190
      px      :     0.022718
      py      :     0.929049
      dz2     :    -0.000004  d :     0.001892
      dxz     :     0.000039
      dyz     :     0.001181
      dx2y2   :     0.000650
      dxy     :     0.000026
      f0      :    -0.000098  f :     0.000181
      f+1     :    -0.000060
      f-1     :    -0.000023
      f+2     :     0.000089
      f-2     :     0.000004
      f+3     :     0.000136
      f-3     :     0.000134



                     *******************************
                     * LOEWDIN POPULATION ANALYSIS *
                     *******************************

-------------------------------------------
LOEWDIN ATOMIC CHARGES AND SPIN POPULATIONS
-------------------------------------------
   0 Li:   -0.429525    0.150563
   1 S :    0.429525    0.849437

----------------------------------------------------
LOEWDIN REDUCED ORBITAL CHARGES AND SPIN POPULATIONS
----------------------------------------------------
CHARGE
  0 Lis       :     2.225580  s :     2.225580
      pz      :     0.335261  p :     0.582639
      px      :     0.183004
      py      :     0.064375
      dz2     :     0.187701  d :     0.397712
      dxz     :     0.141872
      dyz     :     0.068122
      dx2y2   :     0.000016
      dxy     :     0.000001
      f0      :     0.080888  f :     0.223594
      f+1     :     0.091816
      f-1     :     0.050850
      f+2     :     0.000031
      f-2     :     0.000001
      f+3     :     0.000005
      f-3     :     0.000003

  1 S s       :     5.469776  s :     5.469776
      pz      :     3.692414  p :    10.091388
      px      :     3.573098
      py      :     2.825877
      dz2     :     0.006989  d :     0.008563
      dxz     :     0.000388
      dyz     :     0.000244
      dx2y2   :     0.000906
      dxy     :     0.000036
      f0      :     0.000306  f :     0.000747
      f+1     :     0.000013
      f-1     :     0.000060
      f+2     :     0.000091
      f-2     :     0.000004
      f+3     :     0.000139
      f-3     :     0.000134


SPIN
  0 Lis       :    -0.010427  s :    -0.010427
      pz      :    -0.004551  p :     0.045944
      px      :    -0.011879
      py      :     0.062374
      dz2     :     0.000156  d :     0.065006
      dxz     :    -0.001069
      dyz     :     0.065907
      dx2y2   :     0.000011
      dxy     :     0.000000
      f0      :     0.000854  f :     0.050041
      f+1     :     0.001578
      f-1     :     0.047578
      f+2     :     0.000024
      f-2     :     0.000001
      f+3     :     0.000004
      f-3     :     0.000003

  1 S s       :     0.007061  s :     0.007061
      pz      :     0.006035  p :     0.841040
      px      :     0.020896
      py      :     0.814109
      dz2     :     0.000149  d :     0.000989
      dxz     :     0.000006
      dyz     :     0.000174
      dx2y2   :     0.000635
      dxy     :     0.000025
      f0      :    -0.000066  f :     0.000347
      f+1     :    -0.000006
      f-1     :     0.000057
      f+2     :     0.000089
      f-2     :     0.000004
      f+3     :     0.000136
      f-3     :     0.000134



                      *****************************
                      * MAYER POPULATION ANALYSIS *
                      *****************************

  NA   - Mulliken gross atomic population
  ZA   - Total nuclear charge
  QA   - Mulliken gross atomic charge
  VA   - Mayer's total valence
  BVA  - Mayer's bonded valence
  FA   - Mayer's free valence

  ATOM       NA         ZA         QA         VA         BVA        FA
  0 Li     2.6730     3.0000     0.3270     1.1631     1.1587     0.0045
  1 S     16.3270    16.0000    -0.3270     2.0472     1.1587     0.8886

  Mayer bond orders larger than 0.100000
B(  0-Li,  1-S ) :   1.1587 

-------
TIMINGS
-------

Total SCF time: 0 days 0 hours 0 min 1 sec 

Total time                  ....       1.509 sec
Sum of individual times     ....       1.417 sec  ( 93.9%)

SCF preparation             ....       0.093 sec  (  6.1%)
Fock matrix formation       ....       0.879 sec  ( 58.2%)
  Startup                   ....       0.028 sec  (  3.1% of F)
  Coulomb+Exchange Fock     ....       0.234 sec  ( 26.6% of F)
  XC integration            ....       0.291 sec  ( 33.1% of F)
    Basis function eval.    ....       0.017 sec  (  6.0% of XC)
    Density eval.           ....       0.009 sec  (  3.0% of XC)
    XC-Functional eval.     ....       0.012 sec  (  4.3% of XC)
    XC-Potential eval.      ....       0.023 sec  (  8.0% of XC)
Diagonalization             ....       0.000 sec  (  0.0%)
Density matrix formation    ....       0.183 sec  ( 12.1%)
Total Energy calculation    ....       0.023 sec  (  1.5%)
Population analysis         ....       0.011 sec  (  0.7%)
Orbital Transformation      ....       0.055 sec  (  3.7%)
Orbital Orthonormalization  ....       0.000 sec  (  0.0%)
DIIS solution               ....       0.093 sec  (  6.2%)
SOSCF solution              ....       0.080 sec  (  5.3%)
Finished LeanSCF after   1.5 sec

Maximum memory used throughout the entire LEANSCF-calculation: 10.7 MB


           ************************************************************
           *        Program running with 8 parallel MPI-processes     *
           *              working on a common directory               *
           ************************************************************

------------------------------------------------------------------------------
                         ORCA PROPERTY INTEGRAL CALCULATIONS
------------------------------------------------------------------------------

GBWName                                   ... /cluster/projects/nn14654k/ylvaos/basis_set_n_funcs/functionals/hyb_gga_xc_b97/LiS/inp/LiS_hyb_gga_xc_b97_ccpvtz.gbw
Number of atoms                           ...      2
Number of basis functions                 ...     96
Max core memory                           ...   4096 MB

Dipole integrals                          ... YES
Quadrupole integrals                      ... YES
Linear momentum integrals                 ...  NO
Angular momentum integrals                ...  NO
Higher moments length integrals           ...  NO
Higher moments velocity integrals         ...  NO
Kinetic energy integrals                  ...  NO
GIAO right hand sides                     ...  NO
GIAO dipole derivative integrals          ...  NO
SOC integrals                             ...  NO
EPR diamagnetic integrals (GIAO)          ...  NO
EPR gauge integrals                       ...  NO
Field gradient integrals                  ...  NO (   0 nuclei)
Spin-dipole/Fermi contact integrals       ...  NO (   0 nuclei)
Contact density integrals                 ...  NO (   0 nuclei)
Nucleus-orbit integrals                   ...  NO (   0 nuclei)
Geometric perturbations                   ...  NO (   2 nuclei)

Choice of electric origin   ... Center of mass
Position of electric origin ... (  0.0000,  0.0000,  1.3082) 
Choice of magnetic origin   ... GIAO
Position of magnetic origin ... (  0.0000,  0.0000,  0.0000) 

Calculating integrals                     ... Electric Dipole (Length)     done (  0.0 sec)
Calculating integrals                     ... Electric Quadrupole (Length) done (  0.0 sec)

Property integrals calculated in   0.0 sec

Maximum memory used throughout the entire PROPINT-calculation: 6.7 MB
------------------------------------------------------------------------------
                           ORCA ORBITAL LOCALIZATION
------------------------------------------------------------------------------

Input orbitals are from                  ... /cluster/projects/nn14654k/ylvaos/basis_set_n_funcs/functionals/hyb_gga_xc_b97/LiS/inp/LiS_hyb_gga_xc_b97_ccpvtz.gbw
Output orbitals are to                   ... /cluster/projects/nn14654k/ylvaos/basis_set_n_funcs/functionals/hyb_gga_xc_b97/LiS/inp/LiS_hyb_gga_xc_b97_ccpvtz.loc
Max. number of iterations                ... 128
Localizations seeded randomly            ... on
Convergence tolerance                    ... 1.000e-06
Threshold for strong local MOs           ... 9.500e-01
Threshold for bond MOs                   ... 8.500e-01
Operator                                 ... 0
Orbital range for localization           ... 5 to 9
Localization criterion                   ... NEW-BOYS
Doing the dipole integrals               ... o.k.
Initial value of the localization sum :    12.492678
ITERATION   0 : L=   15.5921844331 DL=  3.10e+00 (AVERGE_DL)=    0.5567320766 
ITERATION   1 : L=   15.8041312384 DL=  2.12e-01 (AVERGE_DL)=    0.1455839295 
ITERATION   2 : L=   15.8428425617 DL=  3.87e-02 (AVERGE_DL)=    0.0622184243 
ITERATION   3 : L=   15.8720178556 DL=  2.92e-02 (AVERGE_DL)=    0.0540141592 
ITERATION   4 : L=   15.8853813298 DL=  1.34e-02 (AVERGE_DL)=    0.0365560859 
ITERATION   5 : L=   15.8922400247 DL=  6.86e-03 (AVERGE_DL)=    0.0261891101 
ITERATION   6 : L=   15.8953476519 DL=  3.11e-03 (AVERGE_DL)=    0.0176284635 
ITERATION   7 : L=   15.8967516429 DL=  1.40e-03 (AVERGE_DL)=    0.0118490127 
ITERATION   8 : L=   15.8973783207 DL=  6.27e-04 (AVERGE_DL)=    0.0079162982 
ITERATION   9 : L=   15.8976681695 DL=  2.90e-04 (AVERGE_DL)=    0.0053837612 
ITERATION  10 : L=   15.8978152873 DL=  1.47e-04 (AVERGE_DL)=    0.0038355929 
ITERATION  11 : L=   15.8979033886 DL=  8.81e-05 (AVERGE_DL)=    0.0029681875 
ITERATION  12 : L=   15.8979671747 DL=  6.38e-05 (AVERGE_DL)=    0.0025255899 
ITERATION  13 : L=   15.8980203513 DL=  5.32e-05 (AVERGE_DL)=    0.0023060048 
ITERATION  14 : L=   15.8980679408 DL=  4.76e-05 (AVERGE_DL)=    0.0021815036 
ITERATION  15 : L=   15.8981115694 DL=  4.36e-05 (AVERGE_DL)=    0.0020887440 
ITERATION  16 : L=   15.8981516558 DL=  4.01e-05 (AVERGE_DL)=    0.0020021598 
ITERATION  17 : L=   15.8981882890 DL=  3.66e-05 (AVERGE_DL)=    0.0019139810 
ITERATION  18 : L=   15.8982215121 DL=  3.32e-05 (AVERGE_DL)=    0.0018227189 
ITERATION  19 : L=   15.8982514293 DL=  2.99e-05 (AVERGE_DL)=    0.0017296600 
ITERATION  20 : L=   15.8982782041 DL=  2.68e-05 (AVERGE_DL)=    0.0016362994 
ITERATION  21 : L=   15.8983020448 DL=  2.38e-05 (AVERGE_DL)=    0.0015440433 
ITERATION  22 : L=   15.8983231847 DL=  2.11e-05 (AVERGE_DL)=    0.0014539571 
ITERATION  23 : L=   15.8983418641 DL=  1.87e-05 (AVERGE_DL)=    0.0013667268 
ITERATION  24 : L=   15.8983583219 DL=  1.65e-05 (AVERGE_DL)=    0.0012828791 
ITERATION  25 : L=   15.8983727866 DL=  1.45e-05 (AVERGE_DL)=    0.0012026946 
ITERATION  26 : L=   15.8983854717 DL=  1.27e-05 (AVERGE_DL)=    0.0011262825 
ITERATION  27 : L=   15.8983965752 DL=  1.11e-05 (AVERGE_DL)=    0.0010537302 
ITERATION  28 : L=   15.8984062773 DL=  9.70e-06 (AVERGE_DL)=    0.0009849910 
ITERATION  29 : L=   15.8984147418 DL=  8.46e-06 (AVERGE_DL)=    0.0009200281 
ITERATION  30 : L=   15.8984221152 DL=  7.37e-06 (AVERGE_DL)=    0.0008586863 
ITERATION  31 : L=   15.8984285296 DL=  6.41e-06 (AVERGE_DL)=    0.0008008960 
ITERATION  32 : L=   15.8984341024 DL=  5.57e-06 (AVERGE_DL)=    0.0007465131 
ITERATION  33 : L=   15.8984389381 DL=  4.84e-06 (AVERGE_DL)=    0.0006953893 
ITERATION  34 : L=   15.8984431293 DL=  4.19e-06 (AVERGE_DL)=    0.0006473949 
ITERATION  35 : L=   15.8984467576 DL=  3.63e-06 (AVERGE_DL)=    0.0006023600 
ITERATION  36 : L=   15.8984498954 DL=  3.14e-06 (AVERGE_DL)=    0.0005601605 
ITERATION  37 : L=   15.8984526062 DL=  2.71e-06 (AVERGE_DL)=    0.0005206490 
ITERATION  38 : L=   15.8984549456 DL=  2.34e-06 (AVERGE_DL)=    0.0004836761 
ITERATION  39 : L=   15.8984569627 DL=  2.02e-06 (AVERGE_DL)=    0.0004491184 
ITERATION  40 : L=   15.8984587003 DL=  1.74e-06 (AVERGE_DL)=    0.0004168475 
ITERATION  41 : L=   15.8984601958 DL=  1.50e-06 (AVERGE_DL)=    0.0003867134 
ITERATION  42 : L=   15.8984614818 DL=  1.29e-06 (AVERGE_DL)=    0.0003586163 
ITERATION  43 : L=   15.8984625867 DL=  1.10e-06 (AVERGE_DL)=    0.0003323931 
ITERATION  44 : L=   15.8984635351 DL=  9.48e-07 (AVERGE_DL)=    0.0003079645 
LOCALIZATION SUM CONVERGED


--------------------------------------------------------------------------------
                    LOCALIZED MOLECULAR ORBITAL COMPOSITIONS
--------------------------------------------------------------------------------

The Mulliken populations for each LMO on each atom are computed
The LMO`s will be ordered according to atom index and type
  (A) Strongly localized MO`s have populations of >=0.950 on one atom
  (B) Two center bond orbitals have populations of >=0.850 on two atoms
  (C) Other MO`s are considered to be `delocalized`

FOUND  -   2 strongly local MO`s
       -   3 two center bond MO`s
       -   0 significantly delocalized MO`s

Rather strongly localized orbitals:
MO   6:   1S  -   0.966957
MO   5:   0Li -   0.999256
Bond-like localized orbitals:
MO   9:   1S  -   0.873513  and   0Li -   0.126487
MO   8:   1S  -   0.873280  and   0Li -   0.126720
MO   7:   1S  -   0.939074  and   0Li -   0.060926
Localized MO's were stored in: /cluster/projects/nn14654k/ylvaos/basis_set_n_funcs/functionals/hyb_gga_xc_b97/LiS/inp/LiS_hyb_gga_xc_b97_ccpvtz.loc
------------------------------------------------------------------------------
                           ORCA ORBITAL LOCALIZATION
------------------------------------------------------------------------------

Input orbitals are from                  ... /cluster/projects/nn14654k/ylvaos/basis_set_n_funcs/functionals/hyb_gga_xc_b97/LiS/inp/LiS_hyb_gga_xc_b97_ccpvtz.loc
Output orbitals are to                   ... /cluster/projects/nn14654k/ylvaos/basis_set_n_funcs/functionals/hyb_gga_xc_b97/LiS/inp/LiS_hyb_gga_xc_b97_ccpvtz.loc
Max. number of iterations                ... 128
Localizations seeded randomly            ... on
Convergence tolerance                    ... 1.000e-06
Threshold for strong local MOs           ... 9.500e-01
Threshold for bond MOs                   ... 8.500e-01
Operator                                 ... 1
Orbital range for localization           ... 5 to 8
Localization criterion                   ... NEW-BOYS
Doing the dipole integrals               ... o.k.
Initial value of the localization sum :    12.147840
ITERATION   0 : L=   15.0044690044 DL=  2.86e+00 (AVERGE_DL)=    0.6900035205 
ITERATION   1 : L=   15.2229817016 DL=  2.19e-01 (AVERGE_DL)=    0.1908370584 
ITERATION   2 : L=   15.2856345731 DL=  6.27e-02 (AVERGE_DL)=    0.1021868155 
ITERATION   3 : L=   15.3367083563 DL=  5.11e-02 (AVERGE_DL)=    0.0922621114 
ITERATION   4 : L=   15.3656708794 DL=  2.90e-02 (AVERGE_DL)=    0.0694772421 
ITERATION   5 : L=   15.3809342507 DL=  1.53e-02 (AVERGE_DL)=    0.0504370422 
ITERATION   6 : L=   15.3883884485 DL=  7.45e-03 (AVERGE_DL)=    0.0352472169 
ITERATION   7 : L=   15.3918984797 DL=  3.51e-03 (AVERGE_DL)=    0.0241868809 
ITERATION   8 : L=   15.3935168647 DL=  1.62e-03 (AVERGE_DL)=    0.0164234842 
ITERATION   9 : L=   15.3942545634 DL=  7.38e-04 (AVERGE_DL)=    0.0110882719 
ITERATION  10 : L=   15.3945886445 DL=  3.34e-04 (AVERGE_DL)=    0.0074619164 
ITERATION  11 : L=   15.3947393689 DL=  1.51e-04 (AVERGE_DL)=    0.0050120580 
ITERATION  12 : L=   15.3948072165 DL=  6.78e-05 (AVERGE_DL)=    0.0033627260 
ITERATION  13 : L=   15.3948377147 DL=  3.05e-05 (AVERGE_DL)=    0.0022545583 
ITERATION  14 : L=   15.3948514120 DL=  1.37e-05 (AVERGE_DL)=    0.0015109223 
ITERATION  15 : L=   15.3948575602 DL=  6.15e-06 (AVERGE_DL)=    0.0010122791 
ITERATION  16 : L=   15.3948603190 DL=  2.76e-06 (AVERGE_DL)=    0.0006780770 
ITERATION  17 : L=   15.3948615564 DL=  1.24e-06 (AVERGE_DL)=    0.0004541327 
ITERATION  18 : L=   15.3948621115 DL=  5.55e-07 (AVERGE_DL)=    0.0003041864 
LOCALIZATION SUM CONVERGED


--------------------------------------------------------------------------------
                    LOCALIZED MOLECULAR ORBITAL COMPOSITIONS
--------------------------------------------------------------------------------

The Mulliken populations for each LMO on each atom are computed
The LMO`s will be ordered according to atom index and type
  (A) Strongly localized MO`s have populations of >=0.950 on one atom
  (B) Two center bond orbitals have populations of >=0.850 on two atoms
  (C) Other MO`s are considered to be `delocalized`

FOUND  -   2 strongly local MO`s
       -   2 two center bond MO`s
       -   0 significantly delocalized MO`s

Rather strongly localized orbitals:
MO   6:   1S  -   0.973587
MO   5:   0Li -   0.999334
Bond-like localized orbitals:
MO   8:   1S  -   0.848820  and   0Li -   0.151180
MO   7:   1S  -   0.848966  and   0Li -   0.151034
Localized MO's were stored in: /cluster/projects/nn14654k/ylvaos/basis_set_n_funcs/functionals/hyb_gga_xc_b97/LiS/inp/LiS_hyb_gga_xc_b97_ccpvtz.loc

-------------------------   --------------------
FINAL SINGLE POINT ENERGY      -405.671253515669
-------------------------   --------------------



           ************************************************************
           *        Program running with 8 parallel MPI-processes     *
           *              working on a common directory               *
           ************************************************************

------------------------------------------------------------------------------
                              ORCA PROPERTY CALCULATIONS
------------------------------------------------------------------------------

GBWName                                 ... /cluster/projects/nn14654k/ylvaos/basis_set_n_funcs/functionals/hyb_gga_xc_b97/LiS/inp/LiS_hyb_gga_xc_b97_ccpvtz.gbw
Number of atoms                         ...      2
Number of basis functions               ...     96
Max core memory                         ...   4096 MB

Electric properties:
Dipole moment                           ... YES
Quadrupole moment                       ... YES
Static polarizability (Dipole/Dipole)   ...  NO
Static polarizability (Dipole/Quad.)    ...  NO
Static polarizability (Quad./Quad.)     ...  NO
Static polarizability (Velocity)        ...  NO
Static hyperpolarizability              ...  NO

Atomic electric properties:
Dipole moment                           ...  NO
Quadrupole moment                       ...  NO
Static polarizability                   ...  NO

Choice of electric origin               ... Center of mass
Position of electric origin             ...     0.000000     0.000000     1.308198

General magnetic properties:
Magnetizability                         ...  NO

EPR properties:
g-Tensor (aka g-matrix)                 ...  NO
Zero-Field splitting spin-orbit         ...  NO
Zero-field splitting spin-spin          ...  NO
Hyperfine couplings                     ...  NO (   0 nuclei)
Quadrupole couplings                    ...  NO (   0 nuclei)
Contact density                         ...  NO (   0 nuclei)

NMR properties:
Chemical shifts                         ...  NO (   0 nuclei)
Spin-rotation constants                 ...  NO (   0 nuclei)
Spin-spin couplings                     ...  NO (   0 nuclei,    0 pairs)

Choice of magnetic origin               ... GIAO
Position of magnetic origin             ...     0.000000     0.000000     0.000000

Properties with geometric perturbations:
SCF Hessian                             ...  NO
IR spectrum                             ...  NO
VCD spectrum                            ...  NO
X-ray spectroscopy properties:
SCF XES/XAS/RIXS spectra                ...  NO

SCF SOC stabilization energy            ...  NO
Diagonal Born-Oppenheimer correction    ...  NO

-------------
DIPOLE MOMENT
-------------

Method             : SCF
Type of density    : Electron Density
Multiplicity       :   2
Irrep              :   0
Energy             :  -405.6712535156690365 Eh
Basis              : AO
                                X                 Y                 Z
Electronic contribution:      0.000000000      -0.000000000      -4.232780778
Nuclear contribution   :      0.000000000       0.000000000       1.549484202
                        -----------------------------------------
Total Dipole Moment    :      0.000000000      -0.000000000      -2.683296576
                        -----------------------------------------
Magnitude (a.u.)       :      2.683296576
Magnitude (Debye)      :      6.820397871



--------------------
Rotational spectrum 
--------------------
 
Rotational constants in cm-1:             0.000000             0.639339             0.639339 
Rotational constants in MHz :             0.000000         19166.891897         19166.891897 

Dipole components along the rotational axes: 
x,y,z [a.u.] :    -2.683297    -0.000000     0.000000 
x,y,z [Debye]:    -6.820398    -0.000000     0.000000 

 

Dipole moment calculation done in   0.0 sec 

-----------------
QUADRUPOLE MOMENT
-----------------

Method             : SCF
Type of density    : Electron Density
Multiplicity       :   2
Irrep              :   0
Energy             :  -405.6712535156690365 Eh
Basis              : AO

                XX              YY              ZZ              XY              XZ              YZ
  NUC        0.000000000     0.000000000    41.817245673     0.000000000     0.000000000     0.000000000
  EL       -14.167164491   -11.700670852   -44.873468615    -0.246062841    -0.000000000     0.000000000
  TOT      -14.167164491   -11.700670852    -3.056222942    -0.246062841    -0.000000000     0.000000000 (a.u.)
           -19.055320757   -15.737802459    -4.110724380    -0.330962937    -0.000000000     0.000000000 (Buckingham)

diagonalized tensor:
           -14.191472696   -11.676362647    -3.056222942 (a.u.)
           -19.088016125   -15.705107092    -4.110724380 (Buckingham)
           -18.360200777    -8.211473680    26.571674457 (traceless form in Buckingham)

            -0.995155833    -0.098310057    -0.000000000
            -0.098310057     0.995155833     0.000000000
             0.000000000    -0.000000000     1.000000000
        
Isotropic quadrupole :    -9.641352762

Quadrupole moment calculation done in   0.0 sec (  0.0 sec for integrals)

Maximum memory used throughout the entire PROP-calculation: 3.1 MB

--------------------------------
SUGGESTED CITATIONS FOR THIS RUN
--------------------------------

Below you find a list of papers that are relevant to this ORCA run
We neither can nor want to force you to cite these papers, but we appreciate if you do
You receive ORCA, which is the product of decades of hard work by many enthusiastic individuals, for free
The only thing we kindly ask in return is that you cite our papers,
We deeply appreciate it, if you show your appreciation for ORCA by not just citing the generic ORCA reference.

Please note that relegating all ORCA citations to the supporting information does *not* help us.
SI sections are not indexed - citations you put there will not count into any citation statistics
But we need these citations in order to attract the funding resources that allow us to do what we are doing

Therefore, if you are a happy ORCA user, please consider citing a few of the papers listed below in the main body of your paper

In addition to the list printed below, the program has created the file /cluster/projects/nn14654k/ylvaos/basis_set_n_funcs/functionals/hyb_gga_xc_b97/LiS/inp/LiS_hyb_gga_xc_b97_ccpvtz.bibtex that contains the list in bibtex format
You can import this file easily into all common literature databanks and citation aid programs

It goes without saying that in many instances, there are alternative algorithms to achieve similar
results as the ones you have gotten from ORCA. It is, of course, also the case that in some instances
ORCA just re-implements algorithms worked out by others. We are fully aware of that and we are also
fully appreciative of our colleagues work. Hence this citation list should not be read as indicating
that the listed papers, which are focused on our own work, are the only ones worth citing. It simply
meant to make it easier for users to cite ORCA specific papers. It is not a substitute for doing your
own literature research and citing the relevant literature in a scientifically appropriate manner.

List of essential papers. We consider these as the minimum necessary citations

  1. Neese, F.
     Software update: the ORCA program system, version 6.0
     WIRES Comput. Molec. Sci. 2025 15(1), e70019
     doi.org/10.1002/wcms.70019

List of papers to cite with high priority. The work reported in these papers was absolutely
necessary for this run to complete.
Our perspective: the developers of density functionals and basis sets usually get cited in chemistry papers
Good! But without the algorithms to do something with them, the functionals or basis sets would not do anything.
Hence, in our opinion, the algorithm design and method developments papers are equally worthy of getting cited

  1. Lehtola, S.; Steigemann, C.; Oliveira, M.; Marques, M.
     Recent developments in Libxc - A comprehensive library of functionals for density functional theory
     Software X 2018 7 , 
     doi.org/10.1016/j.softx.2017.11.002
  2. Neese, F.
     The SHARK Integral Generation and Digestion System
     J. Comp. Chem. 2022 44(3), 381
     doi.org/10.1002/jcc.26942

List of suggested additional citations. These are papers that are important in the 'surrounding' of 
of this run, or papers that preceded the highly important papers. If you like your results we are grateful for a citation.

  1. Neese, F.
     The ORCA program system
     WIRES Comput. Molec. Sci. 2012 2(1), 73-78
     doi.org/10.1002/wcms.81
  2. Neese, F.
     Software update: the ORCA program system, version 4.0
     WIRES Comput. Molec. Sci. 2018 8(1), 1-6
     doi.org/10.1002/wcms.1327
  3. Neese, F.; Wennmohs, F.; Becker, U.; Riplinger, C.
     The ORCA quantum chemistry program package
     J. Chem. Phys. 2020 152(22), 224108
     doi.org/10.1063/5.0004608
  4. Neese, F.
     Software update: The ORCA program system—Version 5.0
     WIRES Comput. Molec. Sci. 2022 12(1), e1606
     doi.org/10.1002/wcms.1606

List of optional additional citations

  1. Neese, F.
     Approximate second-order SCF convergence for spin unrestricted wavefunctions
     Chem. Phys. Lett. 2000 325(1-3), 93-98
     doi.org/10.1016/s0009-2614(00)00662-x

Timings for individual modules:

Sum of individual times          ...        4.101 sec (=   0.068 min)
Startup calculation              ...        1.480 sec (=   0.025 min)  36.1 %
SCF iterations                   ...        2.080 sec (=   0.035 min)  50.7 %
Property integrals               ...        0.270 sec (=   0.005 min)   6.6 %
Property calculations            ...        0.264 sec (=   0.004 min)   6.4 %
Orbital localization             ...        0.007 sec (=   0.000 min)   0.2 %
                             ****ORCA TERMINATED NORMALLY****
TOTAL RUN TIME: 0 days 0 hours 0 minutes 5 seconds 268 msec
