
                                 *****************
                                 * O   R   C   A *
                                 *****************

                                            #,                                       
                                            ###                                      
                                            ####                                     
                                            #####                                    
                                            ######                                   
                                           ########,                                 
                                     ,,################,,,,,                         
                               ,,#################################,,                 
                          ,,##########################################,,             
                       ,#########################################, ''#####,          
                    ,#############################################,,   '####,        
                  ,##################################################,,,,####,       
                ,###########''''           ''''###############################       
              ,#####''   ,,,,##########,,,,          '''####'''          '####       
            ,##' ,,,,###########################,,,                        '##       
           ' ,,###''''                  '''############,,,                           
         ,,##''                                '''############,,,,        ,,,,,,###''
      ,#''                                            '''#######################'''  
     '                                                          ''''####''''         
             ,#######,   #######,   ,#######,      ##                                
            ,#'     '#,  ##    ##  ,#'     '#,    #''#        ,####,    ,#,          
            ##       ##  ##   ,#'  ##            #'  '#       #'       ,# #          
            ##       ##  #######   ##           ,######,      #####,      #          
            '#,     ,#'  ##    ##  '#,     ,#' ,#      #,     #,   #      #          
             '#######'   ##     ##  '#######'  #'      '#     '####' #    #          



                #########################################################
                #                        -***-                          #
                #          Department of theory and spectroscopy        #
                #                                                       #
                #                      Frank Neese                      #
                #                                                       #
                #     Directorship, Architecture, Infrastructure        #
                #                    SHARK, DRIVERS                     #
                #        Core code/Algorithms in most modules           #
                #                                                       #
                #        Max Planck Institute fuer Kohlenforschung      #
                #                Kaiser Wilhelm Platz 1                 #
                #                 D-45470 Muelheim/Ruhr                 #
                #                      Germany                          #
                #                                                       #
                #                  All rights reserved                  #
                #                        -***-                          #
                #########################################################


                         Program Version 6.1.1  -  RELEASE   -
                                (GIT: $487d211c$)
                          ($2025-11-21 10:33:24 +0100$)


 With contributions from (in alphabetic order):
[Max-Planck-Institut fuer Kohlenforschung]                               
  Daniel Aravena         : Magnetic Suceptibility                        
  Michael Atanasov       : Ab Initio Ligand Field Theory (pilot matlab implementation)
  Alexander A. Auer      : GIAO ZORA, VPT2 properties, NMR spectrum      
  Ute Becker             : All parallelization in ORCA, NUMFREQ, NUMCALC 
  Giovanni Bistoni       : ED, misc. LED, open-shell LED, HFLD           
  Dmytro Bykov           : pre 5.0 version of the SCF Hessian            
  Marcos Casanova-Páez   : Triplet and SCS-CIS(D). UHF-(DLPNO)-IP/EA/STEOM-CCSD. UHF-CVS-IP/STEOM-CCSD   
  Vijay G. Chilkuri      : MRCI spin determinant printing, contributions to CSF-ICE 
  Pauline Colinet        : FMM embedding                                 
  Dipayan Datta          : RHF DLPNO-CCSD density                        
  Achintya Kumar Dutta   : EOM-CC, STEOM-CC                              
  Nicolas Foglia         : Exact transition moments, OPA infrastructure, MCD improvements    
  Dmitry Ganyushin       : Spin-Orbit,Spin-Spin,Magnetic field MRCI      
  Miquel Garcia-Rates    : C-PCM and meta-GGA Hessian, CCSD/C-PCM, Gaussian charge scheme 
  Tiago L. C. Gouveia    : GS-ROHF, GS-ROCIS                             
  Yang Guo               : DLPNO-NEVPT2, F12-NEVPT2, CIM, IAO-localization        
  Andreas Hansen         : Spin unrestricted coupled pair/coupled cluster methods 
  Ingolf Harden          : AUTO-CI MPn and infrastructure                
  Benjamin Helmich-Paris : MC-RPA, TRAH-(SCF,CASSCF), AVAS, COSX integrals, SCF dyn. polar., MC-PDFT, srDFT 
  Lee Huntington         : MR-EOM, pCC                                   
  Robert Izsak           : Overlap fitted RIJCOSX, COSX-SCS-MP3, EOM     
  Riya Kayal             : Wick's Theorem for AUTO-CI, AUTO-CI UHF-CCSDT 
  Emily Kempfer          : AUTO-CI RHF CISDT and CCSDT, approximate NEVPT4
  Christian Kollmar      : KDIIS, OOCD, Brueckner-CCSD(T), CCSD density, CASPT2, CASPT2-K, improved NEVPT2 
  Axel Koslowski         : Symmetry handling                             
  Simone Kossmann        : meta-GGA functionals, TD-DFT gradient, OOMP2, (MP2 Hessian; deprecated post 5.0) 
  Lucas Lang             : DCDCAS, Hyperfine gauge corrections, ICE-SOC+SSC
  Marvin Lechner         : AUTO-CI (C++ implementation), FIC-MRCC        
  Spencer Leger          : CASSCF response                               
  Dagmar Lenk            : GEPOL surface, SMD, ORCA-2-JSON               
  Dimitrios Liakos       : Extrapolation schemes; Compound Job, Property file
  Dimitrios Manganas     : Further ROCIS development; embedding schemes. LFT, Crystal Embedding 
  Dimitrios Pantazis     : SARC Basis sets                               
  Anastasios Papadopoulos: AUTO-CI, single reference methods and gradients 
  Taras Petrenko         : pre 6.0 DFT Hessian and TD-DFT gradient,  ECA, NRVS 
  Petra Pikulova         : Analytic Raman intensities                    
  Peter Pinski           : DLPNO-MP2, DLPNO-MP2 Gradient                 
  Shashank Vittal Rao    : ES-AILFT, MagRelax                            
  Christoph Reimann      : Effective Core Potentials                     
  Marius Retegan         : Local ZFS, SOC                                
  Christoph Riplinger    : Optimizer, TS searches, QM/MM, DLPNO-CCSD(T), (RO)-DLPNO pert. Triples 
  Michael Roemelt        : Original ROCIS implementation, recursive CI coupling coefficients
  Masaaki Saitow         : Open-shell DLPNO-CCSD energy and density      
  Barbara Sandhoefer     : DKH picture change effects                    
  Yorick L. A. Schmerwitz: GMF and freeze-and-release deltaSCF, NEB S-IDPP initial path                    
  Kantharuban Sivalingam : CASSCF convergence/infrastructure, NEVPT2, NEVPT3, NEVPT4(SD), FIC-MRCI and CEPA variants
  Bernardo de Souza      : ESD, SOC TD-DFT                               
  Georgi L. Stoychev     : AutoAux, RI-MP2 NMR, DLPNO-MP2 response, X2C  
  Van Anh Tran           : RI-MP2 g-tensors                              
  Willem Van den Heuvel  : Paramagnetic NMR                              
  Zikuan Wang            : NOTCH, Electric field optimization            
  Frank Wennmohs         : Technical directorship and infrastructure     
  Hang Xu                : AUTO-CI-Response properties                   
                                                                         
[FACCTs GmbH]                                                            
  Markus Bursch, Nicolas Foglia, Miquel Garcia-Rates, Ingolf Harden, Hagen Neugebauer, Anastasios Papadopoulos, 
  Christoph Riplinger, Bernardo de Souza, Georgi L. Stoychev                                                    
                                                                 
  APM, various basis sets, CI-OPT, improved COSX, DLPNO-Multilevel,           
  DOCKER, DRACO, updates on ESD, Fragmentator, GOAT, IRC, LR-CPCM, L-BFGS, MBIS, meta-GGA TD-DFT gradient, ML-optimized integration grids, 
  MM, NACMEs, nearIR, NEB, NEB-TS, NL-DFT gradient (VV10), 2- and 3-layer-ONIOM, interface openCOSMO-RS, QMMM,   
  Crystal-QMMM, RESP, rigid body optimization, SF, symmetry and pop. for TD-DFT, various functionals, SOLVATOR                                   
                                                                         
[Other institutions]                                                     
  V. Asgeirsson          : NEB                                           
  Christoph Bannwarth    : sTDA-DFT, sTD-DFT, PBEh-3c, B97-3c, D3        
  Giovanni Bistoni       : ETS/NOCV, ADLD/ADEX, COVALED                  
  Martin Brehm           : Molecular dynamics                            
  Ronald Cardenas        : ETS/NOCV                                      
  Martina Colucci        : COVALED                                       
  Sebastian Ehlert       : rSCAN, r2SCAN, r2SCAN-3c, D4, dhf basis sets  
  Marvin Friede          : D4 for Fr, Ra, Ac-Lr                          
  Lars Goerigk           : TD-DFT with DH, B97 family of functionals     
  Stefan Grimme          : VdW corrections, initial TS optimization, DFT functionals, gCP, sTDA/sTD-DF 
  Waldemar Hujo          : DFT-NL                                        
  H. Jonsson             : NEB                                           
  Holger Kruse           : gCP                                           
  Marcel Mueller         : wB97X-3c, vDZP basis set                      
  Hagen Neugebauer       : wr2SCAN, Native XTB                           
  Gianluca Regni         : ADLD/ADEX                                     
  Tobias Risthaus        : pre 6.0 range-separated hybrid DFT and stability analysis
  Lukas Wittmann         : regularized MP2, r2SCAN double-hybrids, wr2SCAN        
                                                                         
We gratefully acknowledge several colleagues who have allowed us to      
interface, adapt or use parts of their codes:                            
  Ed Valeev, F. Pavosevic, A. Kumar             : LibInt (2-el integral package), F12 methods 
  Garnet Chan, S. Sharma, J. Yang, R. Olivares  : DMRG                   
  Ulf Ekstrom                                   : XCFun DFT Library      
  Mihaly Kallay                                 : mrcc  (arbitrary order and MRCC methods)
  Frank Weinhold                                : gennbo (NPA and NBO analysis)           
  Simon Mueller                                 : openCOSMO-RS                            
  Christopher J. Cramer and Donald G. Truhlar   : smd solvation model                     
  S Lehtola, MJT Oliveira, MAL Marques          : LibXC Library                           
  Liviu Ungur et al                             : ANISO software                          


 Your calculation uses the libint2 library for the computation of 2-el integrals
 For citations please refer to: http://libint.valeyev.net

 Your ORCA version has been built with support for libXC version: 7.0.0
 For citations please refer to: https://libxc.gitlab.io

 This ORCA versions uses:
   CBLAS   interface :  Fast vector & matrix operations
   LAPACKE interface :  Fast linear algebra routines
   SCALAPACK package :  Parallel linear algebra routines
   Shared memory     :  Shared parallel matrices
   BLAS/LAPACK       :  OpenBLAS 0.3.29  USE64BITINT DYNAMIC_ARCH NO_AFFINITY Cooperlake SINGLE_THREADED
        Core in use  :  Cooperlake
   Copyright (c) 2011-2014, The OpenBLAS Project


  ***********************************
  * Starting time: Wed May 20 12:36:34 2026
  * Host name:     c1-47
  * Process ID:    3540021
  * Working dir.:  /cluster/projects/nn14654k/ylvaos/basis_set_n_funcs/functionals/hyb_gga_xc_b97/LiS/out
  ***********************************

Using LibXC functional ID 407 : Becke 97
[ 1]  A. D. Becke.,  J. Chem. Phys. 107, 8554 (1997)
Using LibXC functional ID 407 : Becke 97
[ 1]  A. D. Becke.,  J. Chem. Phys. 107, 8554 (1997)
Your calculation utilizes LibXC
by S. Lehtola, C. Steigemann, M. J. T. Oliveira & M. A. L. Marques
Please cite in your paper:
Lehtola, S.; Steigemann, C.; Oliveira, M.J.T.; Marques, M. A. L. Software X, 7, (2018), 1.
   

================================================================================

----- Orbital basis set information -----
Your calculation utilizes the basis: cc-pVDZ 
       H, B-Ne : Obtained from the ccRepo (grant-hill.group.shef.ac.uk/ccrepo) Feb. 2017
                 T. H. Dunning, Jr., J. Chem. Phys. 90, 1007 (1989)
            He : Obtained from the ccRepo (grant-hill.group.shef.ac.uk/ccrepo) Feb. 2017
                 D. E. Woon, T. H. Dunning, Jr., J. Chem. Phys. 100, 2975 (1994)
  Li-Be, Na-Mg : Obtained from the ccRepo (grant-hill.group.shef.ac.uk/ccrepo) Feb. 2017
                 B. P. Prascher, D. E. Woon, K. A. Peterson, T. H. Dunning, Jr., A. K. Wilson, Theor. Chem. Acc. 128, 69 (2011)
         Al-Ar : Obtained from the ccRepo (grant-hill.group.shef.ac.uk/ccrepo) Feb. 2017
                 D. E. Woon, T. H. Dunning, Jr., J. Chem. Phys. 98, 1358 (1993)
            Ca : Obtained from the Peterson Research Group Website (tyr0.chem.wsu.edu/~kipeters) Feb. 2017
                 J. Koput, K. A. Peterson, J. Phys. Chem. 106, 9595 (2002)
         Sc-Zn : Obtained from the ccRepo (grant-hill.group.shef.ac.uk/ccrepo) Feb. 2017
                 N. B. Balabanov, K. A. Peterson, J. Chem. Phys. 123, 064107 (2005)
                 N. B. Balabanov, K. A. Peterson, J. Chem. Phys. 125, 074110 (2006)
         Ga-Kr : Obtained from the ccRepo (grant-hill.group.shef.ac.uk/ccrepo) Feb. 2017
                 A. K. Wilson, D. E. Woon, K. A. Peterson, T. H. Dunning, Jr., J. Chem. Phys. 110, 7667 (1999)

================================================================================
                                        WARNINGS
                       Please study these warnings very carefully!
================================================================================


WARNING: your system is open-shell and RHF/RKS was chosen
  ===> : WILL SWITCH to UHF/UKS


================================================================================
                                       INPUT FILE
================================================================================
NAME = /cluster/projects/nn14654k/ylvaos/basis_set_n_funcs/functionals/hyb_gga_xc_b97/LiS/inp/LiS_hyb_gga_xc_b97_ccpvdz.inp
|  1> ! dft cc-pVDZ TightSCF
|  2> %pal nprocs 8 end
|  3> 
|  4> %loc
|  5>   LocMet NewBoys
|  6>   Occ true
|  7> end
|  8> 
|  9> %method
| 10>   
| 11>   functional hyb_gga_xc_b97
| 12> end
| 13> 
| 14> %elprop
| 15>   Dipole true
| 16>   Quadrupole true
| 17> end
| 18> 
| 19> * xyz 0 2
| 20> Li    0.000000000000   0.000000000000  -1.074850000000
| 21> S    0.000000000000   0.000000000000   1.074850000000
| 22> *
| 23> 
| 24> 
| 25>                          ****END OF INPUT****
================================================================================

                       ****************************
                       * Single Point Calculation *
                       ****************************

---------------------------------
CARTESIAN COORDINATES (ANGSTROEM)
---------------------------------
  Li     0.000000    0.000000   -1.074850
  S      0.000000    0.000000    1.074850

----------------------------
CARTESIAN COORDINATES (A.U.)
----------------------------
  NO LB      ZA    FRAG     MASS         X           Y           Z
   0 Li    3.0000    0     6.941    0.000000    0.000000   -2.031172
   1 S    16.0000    0    32.060    0.000000    0.000000    2.031172

--------------------------------
INTERNAL COORDINATES (ANGSTROEM)
--------------------------------
 Li     0   0   0     0.000000000000     0.00000000     0.00000000
 S      1   0   0     2.149700000000     0.00000000     0.00000000

---------------------------
INTERNAL COORDINATES (A.U.)
---------------------------
 Li     0   0   0     0.000000000000     0.00000000     0.00000000
 S      1   0   0     4.062344270091     0.00000000     0.00000000

---------------------
BASIS SET INFORMATION
---------------------
There are 2 groups of distinct atoms

 Group   1 Type Li  : 17s4p1d contracted to 3s2p1d pattern {881/31/1}
 Group   2 Type S   : 34s15p1d contracted to 4s3p1d pattern {1111111/771/1}

Atom   0Li   basis set group =>   1
Atom   1S    basis set group =>   2


           ************************************************************
           *        Program running with 8 parallel MPI-processes     *
           *              working on a common directory               *
           ************************************************************
------------------------------------------------------------------------------
                             ORCA STARTUP CALCULATIONS
------------------------------------------------------------------------------
------------------------------------------------------------------------------
                   ___                                                        
                  /   \      - P O W E R E D   B Y -                         
                 /     \                                                     
                 |  |  |   _    _      __       _____    __    __             
                 |  |  |  | |  | |    /  \     |  _  \  |  |  /  |          
                  \  \/   | |  | |   /    \    | | | |  |  | /  /          
                 / \  \   | |__| |  /  /\  \   | |_| |  |  |/  /          
                |  |  |   |  __  | /  /__\  \  |    /   |      \           
                |  |  |   | |  | | |   __   |  |    \   |  |\   \          
                \     /   | |  | | |  |  |  |  | |\  \  |  | \   \       
                 \___/    |_|  |_| |__|  |__|  |_| \__\ |__|  \__/        
                                                                              
                      - O R C A' S   B I G   F R I E N D -                    
                                      &                                       
                       - I N T E G R A L  F E E D E R -                       
                                                                              
 v1 FN, 2020, v2 2021, v3 2022-2024                                           
------------------------------------------------------------------------------


----------------------
SHARK INTEGRAL PACKAGE
----------------------

Number of atoms                             ...      2
Number of basis functions                   ...     61
Number of shells                            ...     33
Maximum angular momentum                    ...      2
Integral batch strategy                     ... SHARK/LIBINT Hybrid
RI-J (if used) integral strategy            ... SPLIT-RIJ (Revised 2003 algorithm where possible)
Printlevel                                  ...      1
Contraction scheme used                     ... PARTIAL GENERAL contraction
Prescreening option                         ... SCHWARTZ
   Thresh                                   ... 2.500e-11
   Tcut                                     ... 2.500e-12
   Tpresel                                  ... 2.500e-12 
Coulomb Range Separation                    ... NOT USED
Exchange Range Separation                   ... NOT USED
Multipole approximations                    ... NOT USED
Finite Nucleus Model                        ... NOT USED
CABS basis                                  ... NOT available
Auxiliary Coulomb fitting basis             ... NOT available
Auxiliary J/K fitting basis                 ... NOT available
Auxiliary Correlation fitting basis         ... NOT available
Auxiliary 'external' fitting basis          ... NOT available

Checking pre-screening integrals            ... done (  0.0 sec) Dimension = 33
Save PGC pre-screening integrals            ... done (  0.0 sec) Dimension = 33
Calculate PGC overlap integrals             ... done (  0.0 sec) Dimension = 14
Calculating pre-screening integrals (ORCA)  ... done (  0.0 sec) Dimension = 14
Shell pair information
Shell pair cut-off parameter TPreSel        ...   2.5e-12
Total number of shell pairs                 ...       561
Shell pairs after pre-screening             ...       479
Total number of primitive shell pairs       ...       633
Primitive shell pairs kept                  ...       551
          la=0 lb=0:    176 shell pairs
          la=1 lb=0:    183 shell pairs
          la=1 lb=1:     55 shell pairs
          la=2 lb=0:     42 shell pairs
          la=2 lb=1:     20 shell pairs
          la=2 lb=2:      3 shell pairs

Checking whether 4 symmetric matrices of dimension 61 fit in memory
:Max Core in MB      =   4096.00
 MB in use           =      1.66
 MB left             =   4094.34
 MB needed           =      0.06
 Data fit in memory  = YES
Calculating Nuclear repulsion               ... done (  0.0 sec) ENN=     11.815837557985 Eh

Diagonalization of the overlap matrix:
Smallest eigenvalue                        ... 1.244e-02
Time for diagonalization                   ...    0.000 sec
Threshold for overlap eigenvalues          ... 1.000e-07
Number of eigenvalues below threshold      ... 0
Time for construction of square roots      ...    0.001 sec
Total time needed                          ...    0.004 sec

-------------------
DFT GRID GENERATION
-------------------

General Integration Accuracy     IntAcc      ... 4.388
Radial Grid Type                 RadialGrid  ... OptM3 with GC (2021)
Angular Grid (max. ang.)         AngularGrid ... 4 (Lebedev-302)
Angular grid pruning method      GridPruning ... 4 (adaptive)
Weight generation scheme         WeightScheme... mBecke (2022)
Basis function cutoff            BFCut       ... 1.0000e-11
Integration weight cutoff        WCut        ... 1.0000e-14
Partially contracted basis set               ... off
Rotationally invariant grid construction     ... off
Angular grids for H and He will be reduced by one unit

Total number of grid points                  ...    13486
Total number of batches                      ...      212
Average number of points per batch           ...       63
Average number of grid points per atom       ...     6743

---------------------
SHARK GRID GENERATION
---------------------

General Integration Accuracy     IntAcc      ... 4.388
Radial Grid Type                 RadialGrid  ... OptM3 with GC (2021)
Angular Grid (max. ang.)         AngularGrid ... 4 (Lebedev-302)
Angular grid pruning method      GridPruning ... 4 (adaptive)
Weight generation scheme         WeightScheme... mBecke (2022)
Basis function cutoff            BFCut       ... 1.0000e-11
Integration weight cutoff        WCut        ... 1.0000e-14
Partially contracted basis set               ... off
Rotationally invariant grid construction     ... off
Angular grids for H and He will be reduced by one unit
Core-polarized basis detected: some atoms will have their core
                               angular grid increased.
Steep s-basis detected: some atoms will have their radial
                        grid points doubled.

Total number of grid points                  ...    31699
Total number of batches                      ...      497
Average number of points per batch           ...       63
Average number of grid points per atom       ...    15850
Grids setup in   1.1 sec
Initializing property integral containers    ... done (  0.0 sec)

SHARK setup successfully completed in   1.2 seconds

Maximum memory used throughout the entire STARTUP-calculation: 24.9 MB


           ************************************************************
           *        Program running with 8 parallel MPI-processes     *
           *              working on a common directory               *
           ************************************************************
-------------------------------------------------------------------------------
                                 ORCA GUESS
                   Start orbitals & Density for SCF / CASSCF
-------------------------------------------------------------------------------

------------
SCF SETTINGS
------------
Hamiltonian:
 Density Functional     Method          .... DFT(GTOs)
  Functional kind                       .... Exchange-Correlation
  Functional name                       .... Becke 97
  Functional family                     .... Hybrid GGA
  Functional refs                              
    [ 0] A. D. Becke.,  J. Chem. Phys. 107, 8554 (1997), doi: 10.1063/1.475007
  Fraction of HF Exchange               .... 0.1943
  Functional external parameters        .... 16
    Parameter  0 _cx0       =  8.094000e-01 : u^0 coefficient for exchange
    Parameter  1 _cx1       =  5.073000e-01 : u^1 coefficient for exchange
    Parameter  2 _cx2       =  7.481000e-01 : u^2 coefficient for exchange
    Parameter  3 _cx3       =  0.000000e+00 : u^3 coefficient for exchange
    Parameter  4 _cx4       =  0.000000e+00 : u^4 coefficient for exchange
    Parameter  5 _css0      =  1.737000e-01 : u^0 coefficient for same-spin correlation
    Parameter  6 _css1      =  2.348700e+00 : u^1 coefficient for same-spin correlation
    Parameter  7 _css2      = -2.486800e+00 : u^2 coefficient for same-spin correlation
    Parameter  8 _css3      =  0.000000e+00 : u^3 coefficient for same-spin correlation
    Parameter  9 _css4      =  0.000000e+00 : u^4 coefficient for same-spin correlation
    Parameter 10 _cos0      =  9.454000e-01 : u^0 coefficient for opposite-spin correlation
    Parameter 11 _cos1      =  7.471000e-01 : u^1 coefficient for opposite-spin correlation
    Parameter 12 _cos2      = -4.596100e+00 : u^2 coefficient for opposite-spin correlation
    Parameter 13 _cos3      =  0.000000e+00 : u^3 coefficient for opposite-spin correlation
    Parameter 14 _cos4      =  0.000000e+00 : u^4 coefficient for opposite-spin correlation
    Parameter 15 _cxx       =  1.943000e-01 : coefficient for exact exchange


General Settings:
 Integral files         IntName         .... /cluster/projects/nn14654k/ylvaos/basis_set_n_funcs/functionals/hyb_gga_xc_b97/LiS/inp/LiS_hyb_gga_xc_b97_ccpvdz
 Hartree-Fock type      HFTyp           .... UHF
 Total Charge           Charge          ....    0
 Multiplicity           Mult            ....    2
 Number of Electrons    NEL             ....   19
 Basis Dimension        Dim             ....   32
 Nuclear Repulsion      ENuc            ....     11.8158375580 Eh

Convergence Acceleration:
 AO-DIIS                CNVDIIS         .... on
   Start iteration      DIISMaxIt       ....    12
   Startup error        DIISStart       ....  0.200000
   # of expansion vecs  DIISMaxEq       ....     5
   Bias factor          DIISBfac        ....   1.050
   Max. coefficient     DIISMaxC        ....  10.000
 MO-DIIS                CNVKDIIS        .... off
 Trust-Rad. Augm. Hess. CNVTRAH         .... auto
   Auto Start mean grad. ratio tolernc. ....  1.125000
   Auto Start start iteration           ....    50
   Auto Start num. interpolation iter.  ....    10
   Max. Number of Micro iterations      ....    24
   Max. Number of Macro iterations      .... Maxiter - #DIIS iter
   Number of Davidson start vectors     ....     2
   Converg. threshold    (grad. norm)   ....   1.000e-05
   Grad. Scal. Fac. for Micro threshold ....   0.100
   Minimum threshold for Micro iter.    ....   1.000e-02
   NR start threshold (gradient norm)   ....   1.000e-04
   Initial trust radius                 ....   0.400
   Minimum AH scaling param. (alpha)    ....   1.000
   Maximum AH scaling param. (alpha)    .... 1000.000
   Quad. conv. algorithm                .... NR
   White noise on init. David. guess    .... on
   Maximum white noise                  ....   0.010
   Pseudo random numbers                .... off
   Inactive MOs                         .... canonical
   Orbital update algorithm             .... Taylor
   Preconditioner                       .... Diag
   Full preconditioner red. dimension   ....   250
 SOSCF                 CNVSOSCF           .... on
   Start iteration     SOSCFMaxIt         ....   150
   Startup grad/error  SOSCFStart         ....  0.003300
   Hessian update      SOSCFHessUp        .... L-BFGS
   Autom. constraints  SOSCFAutoConstrain .... off
 Level Shifting         CNVShift        .... on
   Level shift para.    LevelShift      ....    0.2500
   Turn off err/grad.   ShiftErr        ....    0.0010
 Zerner damping         CNVZerner       .... off
 Static damping         CNVDamp         .... on
   Fraction old density DampFac         ....    0.7000
   Max. Damping (<1)    DampMax         ....    0.9800
   Min. Damping (>=0)   DampMin         ....    0.0000
   Turn off err/grad.   DampErr         ....    0.1000

SCF Procedure:
 Maximum # iterations   MaxIter         ....   125
 SCF integral mode      SCFMode         .... Direct
   Integral package                     .... SHARK and LIBINT hybrid scheme
 Reset frequency        DirectResetFreq ....    20
 Integral Threshold     Thresh          ....  2.500e-11 Eh
 Primitive CutOff       TCut            ....  2.500e-12 Eh

Convergence Tolerance:
 Convergence Check Mode ConvCheckMode   .... Total+1el-Energy
 Convergence forced     ConvForced      .... 0
 Energy Change          TolE            ....  1.000e-08 Eh
 1-El. energy change                    ....  1.000e-05 Eh
 Orbital Gradient       TolG            ....  1.000e-05
 Orbital Rotation angle TolX            ....  1.000e-05
 DIIS Error             TolErr          ....  5.000e-07

------------------------------
INITIAL GUESS: MODEL POTENTIAL
------------------------------
Loading Hartree-Fock densities                     ... done
Calculating cut-offs                               ... done
Initializing the effective Hamiltonian             ... done
Setting up the integral package (SHARK)            ... done
Starting the Coulomb interaction                   ... done (   0.0 sec)
Making the grid                                    ... done (   0.0 sec)
Mapping shells                                     ... done
Starting the XC term evaluation                    ... done (   0.0 sec)
  promolecular density results
     # of electrons  =     18.999659774
     EX+EC           =    -22.205601173
Transforming the Hamiltonian                       ... done (   0.0 sec)
Diagonalizing the Hamiltonian                      ... done (   0.0 sec)
Back transforming the eigenvectors                 ... done (   0.0 sec)
Now organizing SCF variables                       ... done
                      ------------------
                      INITIAL GUESS DONE (   0.1 sec)
                      ------------------
             **** ENERGY FILE WAS UPDATED (/cluster/projects/nn14654k/ylvaos/basis_set_n_funcs/functionals/hyb_gga_xc_b97/LiS/inp/LiS_hyb_gga_xc_b97_ccpvdz.en.tmp) ****
Finished Guess after   0.1 sec
Maximum memory used throughout the entire GUESS-calculation: 3.9 MB


           ************************************************************
           *        Program running with 8 parallel MPI-processes     *
           *              working on a common directory               *
           ************************************************************

-------------------------------------------------------------------------------------------
                                      ORCA LEAN-SCF
                              memory conserving SCF solver
-------------------------------------------------------------------------------------------

----------------------------------------D-I-I-S--------------------------------------------
Iteration    Energy (Eh)           Delta-E    RMSDP     MaxDP     DIISErr   Damp  Time(sec)
-------------------------------------------------------------------------------------------
               ***  Starting incremental Fock matrix formation  ***
    1    -405.6397633638740103     0.00e+00  4.96e-03  1.43e-02  9.51e-02  0.700   0.1
Warning: op=1 Small HOMO/LUMO gap (   0.066) - skipping pre-diagonalization
         Will do a full diagonalization
    2    -405.6443247512704033    -4.56e-03  4.06e-03  1.01e-02  6.46e-02  0.700   0.1
                               ***Turning on AO-DIIS***
    3    -405.6474927270747344    -3.17e-03  2.63e-03  5.77e-03  4.31e-02  0.700   0.1
    4    -405.6496799152635049    -2.19e-03  6.34e-03  1.55e-02  3.03e-02  0.000   0.1
                              *** Initializing SOSCF ***
---------------------------------------S-O-S-C-F--------------------------------------
Iteration    Energy (Eh)           Delta-E    RMSDP     MaxDP     MaxGrad    Time(sec)
--------------------------------------------------------------------------------------
    5    -405.6547823062648490    -5.10e-03  7.58e-04  3.09e-03  1.92e-03     0.1
               *** Restarting incremental Fock matrix formation ***
    6    -405.6548100981310085    -2.78e-05  4.95e-04  1.45e-03  8.29e-04     0.1
    7    -405.6548202839388750    -1.02e-05  3.37e-04  1.19e-03  4.42e-04     0.1
    8    -405.6548224968866521    -2.21e-06  8.01e-05  2.45e-04  1.45e-04     0.1
    9    -405.6548227123575430    -2.15e-07  1.07e-05  2.91e-05  1.99e-05     0.1
   10    -405.6548227171393819    -4.78e-09  5.82e-06  1.79e-05  8.69e-06     0.1
                 **** Energy Check signals convergence ****

               *****************************************************
               *                     SUCCESS                       *
               *           SCF CONVERGED AFTER  10 CYCLES          *
               *****************************************************

             **** ENERGY FILE WAS UPDATED (/cluster/projects/nn14654k/ylvaos/basis_set_n_funcs/functionals/hyb_gga_xc_b97/LiS/inp/LiS_hyb_gga_xc_b97_ccpvdz.en.tmp) ****

----------------
TOTAL SCF ENERGY
----------------

Total Energy       :       -405.65482271794025 Eh          -11038.42891 eV

Components:
Nuclear Repulsion  :         11.81583755798484 Eh             321.52529 eV
Electronic Energy  :       -417.47066027592507 Eh          -11359.95420 eV
One Electron Energy:       -584.55677621372820 Eh          -15906.59856 eV
Two Electron Energy:        167.08611593780316 Eh            4546.64436 eV

Virial components:
Potential Energy   :       -810.44987329262926 Eh          -22053.46223 eV
Kinetic Energy     :        404.79505057468907 Eh           11015.03332 eV
Virial Ratio       :          2.00212396901106

DFT components:
N(Alpha)           :        9.999997904549 electrons
N(Beta)            :        8.999997065137 electrons
N(Total)           :       18.999994969686 electrons
E(XC)              :      -22.315750002027 Eh       

---------------
SCF CONVERGENCE
---------------

  Last Energy change         ...    4.7818e-09  Tolerance :   1.0000e-08
  Last MAX-Density change    ...    1.7921e-05  Tolerance :   1.0000e-07
  Last RMS-Density change    ...    5.8185e-06  Tolerance :   5.0000e-09
  Last DIIS Error            ...    1.9190e-03  Tolerance :   5.0000e-07
  Last Orbital Gradient      ...    8.6916e-06  Tolerance :   1.0000e-05
  Last Orbital Rotation      ...    3.0208e-05  Tolerance :   1.0000e-05


----------------------
UHF SPIN CONTAMINATION
----------------------

Warning: in a DFT calculation there is little theoretical justification to 
         calculate <S**2> as in Hartree-Fock theory. We will do it anyways
         but you should keep in mind that the values have only limited relevance

Expectation value of <S**2>     :     0.753190
Ideal value S*(S+1) for S=0.5   :     0.750000
Deviation                       :     0.003190

----------------
ORBITAL ENERGIES
----------------
                 SPIN UP ORBITALS
  NO   OCC          E(Eh)            E(eV) 
   0   1.0000     -88.757692     -2415.2196 
   1   1.0000      -7.874074      -214.2644 
   2   1.0000      -5.839576      -158.9029 
   3   1.0000      -5.823968      -158.4782 
   4   1.0000      -5.822850      -158.4478 
   5   1.0000      -2.024551       -55.0908 
   6   1.0000      -0.613970       -16.7070 
   7   1.0000      -0.244730        -6.6594 
   8   1.0000      -0.227760        -6.1977 
   9   1.0000      -0.203049        -5.5252 
  10   0.0000      -0.054776        -1.4905 
  11   0.0000       0.003471         0.0945 
  12   0.0000       0.007353         0.2001 
  13   0.0000       0.032876         0.8946 
  14   0.0000       0.085077         2.3151 
  15   0.0000       0.087894         2.3917 
  16   0.0000       0.091134         2.4799 
  17   0.0000       0.193814         5.2739 
  18   0.0000       0.234225         6.3736 
  19   0.0000       0.234478         6.3805 
  20   0.0000       0.263608         7.1731 

                 SPIN DOWN ORBITALS
  NO   OCC          E(Eh)            E(eV) 
   0   1.0000     -88.752993     -2415.0917 
   1   1.0000      -7.869486      -214.1396 
   2   1.0000      -5.824193      -158.4844 
   3   1.0000      -5.820597      -158.3865 
   4   1.0000      -5.819402      -158.3540 
   5   1.0000      -2.024718       -55.0954 
   6   1.0000      -0.568190       -15.4612 
   7   1.0000      -0.213501        -5.8096 
   8   1.0000      -0.188681        -5.1343 
   9   0.0000      -0.120009        -3.2656 
  10   0.0000      -0.054048        -1.4707 
  11   0.0000       0.007756         0.2110 
  12   0.0000       0.015722         0.4278 
  13   0.0000       0.034909         0.9499 
  14   0.0000       0.086935         2.3656 
  15   0.0000       0.089915         2.4467 
  16   0.0000       0.091760         2.4969 
  17   0.0000       0.196345         5.3428 
  18   0.0000       0.235366         6.4046 
  19   0.0000       0.235551         6.4097 
*Only the first 10 virtual orbitals were printed.

                    ********************************
                    * MULLIKEN POPULATION ANALYSIS *
                    ********************************

--------------------------------------------
MULLIKEN ATOMIC CHARGES AND SPIN POPULATIONS
--------------------------------------------
   0 Li:    0.284674    0.010798
   1 S :   -0.284674    0.989202
Sum of atomic charges         :   -0.0000000
Sum of atomic spin populations:    1.0000000

-----------------------------------------------------
MULLIKEN REDUCED ORBITAL CHARGES AND SPIN POPULATIONS
-----------------------------------------------------
CHARGE
  0 Lis       :     2.233713  s :     2.233713
      pz      :     0.193900  p :     0.397121
      px      :     0.052104
      py      :     0.151117
      dz2     :     0.023167  d :     0.084492
      dxz     :     0.018850
      dyz     :     0.042453
      dx2y2   :     0.000017
      dxy     :     0.000005

  1 S s       :     5.887232  s :     5.887232
      pz      :     3.658126  p :    10.391172
      px      :     2.987758
      py      :     3.745288
      dz2     :     0.003089  d :     0.006271
      dxz     :     0.000836
      dyz     :     0.001593
      dx2y2   :     0.000583
      dxy     :     0.000168


SPIN
  0 Lis       :    -0.018966  s :    -0.018966
      pz      :    -0.012575  p :     0.017465
      px      :     0.041777
      py      :    -0.011737
      dz2     :    -0.002825  d :     0.012299
      dxz     :     0.016073
      dyz     :    -0.000966
      dx2y2   :     0.000013
      dxy     :     0.000004

  1 S s       :     0.020155  s :     0.020155
      pz      :     0.013749  p :     0.967839
      px      :     0.881865
      py      :     0.072224
      dz2     :    -0.000143  d :     0.001208
      dxz     :     0.000737
      dyz     :     0.000026
      dx2y2   :     0.000457
      dxy     :     0.000132



                     *******************************
                     * LOEWDIN POPULATION ANALYSIS *
                     *******************************

-------------------------------------------
LOEWDIN ATOMIC CHARGES AND SPIN POPULATIONS
-------------------------------------------
   0 Li:   -0.053690    0.078227
   1 S :    0.053690    0.921773

----------------------------------------------------
LOEWDIN REDUCED ORBITAL CHARGES AND SPIN POPULATIONS
----------------------------------------------------
CHARGE
  0 Lis       :     2.237263  s :     2.237263
      pz      :     0.284295  p :     0.535258
      px      :     0.069421
      py      :     0.181542
      dz2     :     0.125942  d :     0.281169
      dxz     :     0.053508
      dyz     :     0.101696
      dx2y2   :     0.000018
      dxy     :     0.000005

  1 S s       :     5.593564  s :     5.593564
      pz      :     3.753684  p :    10.346339
      px      :     2.936254
      py      :     3.656401
      dz2     :     0.004478  d :     0.006407
      dxz     :     0.000365
      dyz     :     0.000813
      dx2y2   :     0.000582
      dxy     :     0.000168


SPIN
  0 Lis       :    -0.012439  s :    -0.012439
      pz      :    -0.005612  p :     0.041198
      px      :     0.057255
      py      :    -0.010446
      dz2     :     0.000529  d :     0.049469
      dxz     :     0.046952
      dyz     :     0.001969
      dx2y2   :     0.000014
      dxy     :     0.000004

  1 S s       :     0.008295  s :     0.008295
      pz      :     0.008591  p :     0.912569
      px      :     0.835932
      py      :     0.068046
      dz2     :     0.000031  d :     0.000909
      dxz     :     0.000312
      dyz     :    -0.000022
      dx2y2   :     0.000456
      dxy     :     0.000132



                      *****************************
                      * MAYER POPULATION ANALYSIS *
                      *****************************

  NA   - Mulliken gross atomic population
  ZA   - Total nuclear charge
  QA   - Mulliken gross atomic charge
  VA   - Mayer's total valence
  BVA  - Mayer's bonded valence
  FA   - Mayer's free valence

  ATOM       NA         ZA         QA         VA         BVA        FA
  0 Li     2.7153     3.0000     0.2847     1.2112     1.2060     0.0052
  1 S     16.2847    16.0000    -0.2847     2.0893     1.2060     0.8833

  Mayer bond orders larger than 0.100000
B(  0-Li,  1-S ) :   1.2060 

-------
TIMINGS
-------

Total SCF time: 0 days 0 hours 0 min 1 sec 

Total time                  ....       1.014 sec
Sum of individual times     ....       0.930 sec  ( 91.7%)

SCF preparation             ....       0.061 sec  (  6.0%)
Fock matrix formation       ....       0.549 sec  ( 54.2%)
  Startup                   ....       0.015 sec  (  2.7% of F)
  Coulomb+Exchange Fock     ....       0.049 sec  (  8.9% of F)
  XC integration            ....       0.265 sec  ( 48.2% of F)
    Basis function eval.    ....       0.011 sec  (  4.2% of XC)
    Density eval.           ....       0.004 sec  (  1.5% of XC)
    XC-Functional eval.     ....       0.012 sec  (  4.7% of XC)
    XC-Potential eval.      ....       0.007 sec  (  2.5% of XC)
Diagonalization             ....       0.000 sec  (  0.0%)
Density matrix formation    ....       0.117 sec  ( 11.5%)
Total Energy calculation    ....       0.019 sec  (  1.8%)
Population analysis         ....       0.011 sec  (  1.1%)
Orbital Transformation      ....       0.027 sec  (  2.7%)
Orbital Orthonormalization  ....       0.000 sec  (  0.0%)
DIIS solution               ....       0.058 sec  (  5.7%)
SOSCF solution              ....       0.090 sec  (  8.8%)
Finished LeanSCF after   1.0 sec

Maximum memory used throughout the entire LEANSCF-calculation: 5.9 MB


           ************************************************************
           *        Program running with 8 parallel MPI-processes     *
           *              working on a common directory               *
           ************************************************************

------------------------------------------------------------------------------
                         ORCA PROPERTY INTEGRAL CALCULATIONS
------------------------------------------------------------------------------

GBWName                                   ... /cluster/projects/nn14654k/ylvaos/basis_set_n_funcs/functionals/hyb_gga_xc_b97/LiS/inp/LiS_hyb_gga_xc_b97_ccpvdz.gbw
Number of atoms                           ...      2
Number of basis functions                 ...     61
Max core memory                           ...   4096 MB

Dipole integrals                          ... YES
Quadrupole integrals                      ... YES
Linear momentum integrals                 ...  NO
Angular momentum integrals                ...  NO
Higher moments length integrals           ...  NO
Higher moments velocity integrals         ...  NO
Kinetic energy integrals                  ...  NO
GIAO right hand sides                     ...  NO
GIAO dipole derivative integrals          ...  NO
SOC integrals                             ...  NO
EPR diamagnetic integrals (GIAO)          ...  NO
EPR gauge integrals                       ...  NO
Field gradient integrals                  ...  NO (   0 nuclei)
Spin-dipole/Fermi contact integrals       ...  NO (   0 nuclei)
Contact density integrals                 ...  NO (   0 nuclei)
Nucleus-orbit integrals                   ...  NO (   0 nuclei)
Geometric perturbations                   ...  NO (   2 nuclei)

Choice of electric origin   ... Center of mass
Position of electric origin ... (  0.0000,  0.0000,  1.3082) 
Choice of magnetic origin   ... GIAO
Position of magnetic origin ... (  0.0000,  0.0000,  0.0000) 

Calculating integrals                     ... Electric Dipole (Length)     done (  0.0 sec)
Calculating integrals                     ... Electric Quadrupole (Length) done (  0.0 sec)

Property integrals calculated in   0.0 sec

Maximum memory used throughout the entire PROPINT-calculation: 4.1 MB
------------------------------------------------------------------------------
                           ORCA ORBITAL LOCALIZATION
------------------------------------------------------------------------------

Input orbitals are from                  ... /cluster/projects/nn14654k/ylvaos/basis_set_n_funcs/functionals/hyb_gga_xc_b97/LiS/inp/LiS_hyb_gga_xc_b97_ccpvdz.gbw
Output orbitals are to                   ... /cluster/projects/nn14654k/ylvaos/basis_set_n_funcs/functionals/hyb_gga_xc_b97/LiS/inp/LiS_hyb_gga_xc_b97_ccpvdz.loc
Max. number of iterations                ... 128
Localizations seeded randomly            ... on
Convergence tolerance                    ... 1.000e-06
Threshold for strong local MOs           ... 9.500e-01
Threshold for bond MOs                   ... 8.500e-01
Operator                                 ... 0
Orbital range for localization           ... 5 to 9
Localization criterion                   ... NEW-BOYS
Doing the dipole integrals               ... o.k.
Initial value of the localization sum :    13.507618
ITERATION   0 : L=   15.5291953985 DL=  2.02e+00 (AVERGE_DL)=    0.4496195221 
ITERATION   1 : L=   15.5970914144 DL=  6.79e-02 (AVERGE_DL)=    0.0823990387 
ITERATION   2 : L=   15.6809900526 DL=  8.39e-02 (AVERGE_DL)=    0.0915961998 
ITERATION   3 : L=   15.7838244771 DL=  1.03e-01 (AVERGE_DL)=    0.1014073096 
ITERATION   4 : L=   15.8477476396 DL=  6.39e-02 (AVERGE_DL)=    0.0799519622 
ITERATION   5 : L=   15.8770757421 DL=  2.93e-02 (AVERGE_DL)=    0.0541554268 
ITERATION   6 : L=   15.8888152920 DL=  1.17e-02 (AVERGE_DL)=    0.0342630265 
ITERATION   7 : L=   15.8947242283 DL=  5.91e-03 (AVERGE_DL)=    0.0243083038 
ITERATION   8 : L=   15.8992012981 DL=  4.48e-03 (AVERGE_DL)=    0.0211590874 
ITERATION   9 : L=   15.9036976045 DL=  4.50e-03 (AVERGE_DL)=    0.0212044957 
ITERATION  10 : L=   15.9085924572 DL=  4.89e-03 (AVERGE_DL)=    0.0221243140 
ITERATION  11 : L=   15.9138825582 DL=  5.29e-03 (AVERGE_DL)=    0.0230002195 
ITERATION  12 : L=   15.9193854417 DL=  5.50e-03 (AVERGE_DL)=    0.0234582258 
ITERATION  13 : L=   15.9248279049 DL=  5.44e-03 (AVERGE_DL)=    0.0233290873 
ITERATION  14 : L=   15.9299189590 DL=  5.09e-03 (AVERGE_DL)=    0.0225633644 
ITERATION  15 : L=   15.9344184542 DL=  4.50e-03 (AVERGE_DL)=    0.0212120136 
ITERATION  16 : L=   15.9381829772 DL=  3.76e-03 (AVERGE_DL)=    0.0194023787 
ITERATION  17 : L=   15.9411767031 DL=  2.99e-03 (AVERGE_DL)=    0.0173023868 
ITERATION  18 : L=   15.9434517160 DL=  2.28e-03 (AVERGE_DL)=    0.0150831459 
ITERATION  19 : L=   15.9451134837 DL=  1.66e-03 (AVERGE_DL)=    0.0128909570 
ITERATION  20 : L=   15.9462870728 DL=  1.17e-03 (AVERGE_DL)=    0.0108332318 
ITERATION  21 : L=   15.9470928823 DL=  8.06e-04 (AVERGE_DL)=    0.0089766892 
ITERATION  22 : L=   15.9476335801 DL=  5.41e-04 (AVERGE_DL)=    0.0073532157 
ITERATION  23 : L=   15.9479898490 DL=  3.56e-04 (AVERGE_DL)=    0.0059688258 
ITERATION  24 : L=   15.9482214607 DL=  2.32e-04 (AVERGE_DL)=    0.0048126060 
ITERATION  25 : L=   15.9483707719 DL=  1.49e-04 (AVERGE_DL)=    0.0038640804 
ITERATION  26 : L=   15.9484667850 DL=  9.60e-05 (AVERGE_DL)=    0.0030985988 
ITERATION  27 : L=   15.9485288213 DL=  6.20e-05 (AVERGE_DL)=    0.0024907071 
ITERATION  28 : L=   15.9485694736 DL=  4.07e-05 (AVERGE_DL)=    0.0020162424 
ITERATION  29 : L=   15.9485967986 DL=  2.73e-05 (AVERGE_DL)=    0.0016530286 
ITERATION  30 : L=   15.9486158691 DL=  1.91e-05 (AVERGE_DL)=    0.0013809601 
ITERATION  31 : L=   15.9486298364 DL=  1.40e-05 (AVERGE_DL)=    0.0011818313 
ITERATION  32 : L=   15.9486406316 DL=  1.08e-05 (AVERGE_DL)=    0.0010389991 
ITERATION  33 : L=   15.9486494252 DL=  8.79e-06 (AVERGE_DL)=    0.0009377456 
ITERATION  34 : L=   15.9486569182 DL=  7.49e-06 (AVERGE_DL)=    0.0008656205 
ITERATION  35 : L=   15.9486635265 DL=  6.61e-06 (AVERGE_DL)=    0.0008129100 
ITERATION  36 : L=   15.9486694948 DL=  5.97e-06 (AVERGE_DL)=    0.0007725489 
ITERATION  37 : L=   15.9486749668 DL=  5.47e-06 (AVERGE_DL)=    0.0007397331 
ITERATION  38 : L=   15.9486800279 DL=  5.06e-06 (AVERGE_DL)=    0.0007114134 
ITERATION  39 : L=   15.9486847300 DL=  4.70e-06 (AVERGE_DL)=    0.0006857157 
ITERATION  40 : L=   15.9486891066 DL=  4.38e-06 (AVERGE_DL)=    0.0006615569 
ITERATION  41 : L=   15.9486931813 DL=  4.07e-06 (AVERGE_DL)=    0.0006383350 
ITERATION  42 : L=   15.9486969728 DL=  3.79e-06 (AVERGE_DL)=    0.0006157520 
ITERATION  43 : L=   15.9487004972 DL=  3.52e-06 (AVERGE_DL)=    0.0005936676 
ITERATION  44 : L=   15.9487037695 DL=  3.27e-06 (AVERGE_DL)=    0.0005720384 
ITERATION  45 : L=   15.9487068040 DL=  3.03e-06 (AVERGE_DL)=    0.0005508681 
ITERATION  46 : L=   15.9487096150 DL=  2.81e-06 (AVERGE_DL)=    0.0005301832 
ITERATION  47 : L=   15.9487122160 DL=  2.60e-06 (AVERGE_DL)=    0.0005100074 
ITERATION  48 : L=   15.9487146208 DL=  2.40e-06 (AVERGE_DL)=    0.0004903794 
ITERATION  49 : L=   15.9487168422 DL=  2.22e-06 (AVERGE_DL)=    0.0004713185 
ITERATION  50 : L=   15.9487188928 DL=  2.05e-06 (AVERGE_DL)=    0.0004528428 
ITERATION  51 : L=   15.9487207848 DL=  1.89e-06 (AVERGE_DL)=    0.0004349707 
ITERATION  52 : L=   15.9487225295 DL=  1.74e-06 (AVERGE_DL)=    0.0004176882 
ITERATION  53 : L=   15.9487241376 DL=  1.61e-06 (AVERGE_DL)=    0.0004010136 
ITERATION  54 : L=   15.9487256193 DL=  1.48e-06 (AVERGE_DL)=    0.0003849360 
ITERATION  55 : L=   15.9487269843 DL=  1.36e-06 (AVERGE_DL)=    0.0003694478 
ITERATION  56 : L=   15.9487282412 DL=  1.26e-06 (AVERGE_DL)=    0.0003545383 
ITERATION  57 : L=   15.9487293986 DL=  1.16e-06 (AVERGE_DL)=    0.0003402006 
ITERATION  58 : L=   15.9487304640 DL=  1.07e-06 (AVERGE_DL)=    0.0003264024 
ITERATION  59 : L=   15.9487314446 DL=  9.81e-07 (AVERGE_DL)=    0.0003131484 
LOCALIZATION SUM CONVERGED


--------------------------------------------------------------------------------
                    LOCALIZED MOLECULAR ORBITAL COMPOSITIONS
--------------------------------------------------------------------------------

The Mulliken populations for each LMO on each atom are computed
The LMO`s will be ordered according to atom index and type
  (A) Strongly localized MO`s have populations of >=0.950 on one atom
  (B) Two center bond orbitals have populations of >=0.850 on two atoms
  (C) Other MO`s are considered to be `delocalized`

FOUND  -   2 strongly local MO`s
       -   3 two center bond MO`s
       -   0 significantly delocalized MO`s

Rather strongly localized orbitals:
MO   6:   1S  -   0.972270
MO   5:   0Li -   1.000722
Bond-like localized orbitals:
MO   9:   1S  -   0.874178  and   0Li -   0.125822
MO   8:   1S  -   0.874855  and   0Li -   0.125145
MO   7:   1S  -   0.919180  and   0Li -   0.080820
Localized MO's were stored in: /cluster/projects/nn14654k/ylvaos/basis_set_n_funcs/functionals/hyb_gga_xc_b97/LiS/inp/LiS_hyb_gga_xc_b97_ccpvdz.loc
------------------------------------------------------------------------------
                           ORCA ORBITAL LOCALIZATION
------------------------------------------------------------------------------

Input orbitals are from                  ... /cluster/projects/nn14654k/ylvaos/basis_set_n_funcs/functionals/hyb_gga_xc_b97/LiS/inp/LiS_hyb_gga_xc_b97_ccpvdz.loc
Output orbitals are to                   ... /cluster/projects/nn14654k/ylvaos/basis_set_n_funcs/functionals/hyb_gga_xc_b97/LiS/inp/LiS_hyb_gga_xc_b97_ccpvdz.loc
Max. number of iterations                ... 128
Localizations seeded randomly            ... on
Convergence tolerance                    ... 1.000e-06
Threshold for strong local MOs           ... 9.500e-01
Threshold for bond MOs                   ... 8.500e-01
Operator                                 ... 1
Orbital range for localization           ... 5 to 8
Localization criterion                   ... NEW-BOYS
Doing the dipole integrals               ... o.k.
Initial value of the localization sum :    13.383700
ITERATION   0 : L=   14.7991793223 DL=  1.42e+00 (AVERGE_DL)=    0.4857089047 
ITERATION   1 : L=   14.8975269286 DL=  9.83e-02 (AVERGE_DL)=    0.1280283864 
ITERATION   2 : L=   15.0295670358 DL=  1.32e-01 (AVERGE_DL)=    0.1483465016 
ITERATION   3 : L=   15.2080750078 DL=  1.79e-01 (AVERGE_DL)=    0.1724857347 
ITERATION   4 : L=   15.3337226785 DL=  1.26e-01 (AVERGE_DL)=    0.1447110171 
ITERATION   5 : L=   15.3928780666 DL=  5.92e-02 (AVERGE_DL)=    0.0992936622 
ITERATION   6 : L=   15.4146273546 DL=  2.17e-02 (AVERGE_DL)=    0.0602069874 
ITERATION   7 : L=   15.4217580157 DL=  7.13e-03 (AVERGE_DL)=    0.0344738091 
ITERATION   8 : L=   15.4239772448 DL=  2.22e-03 (AVERGE_DL)=    0.0192320442 
ITERATION   9 : L=   15.4246520394 DL=  6.75e-04 (AVERGE_DL)=    0.0106049876 
ITERATION  10 : L=   15.4248549830 DL=  2.03e-04 (AVERGE_DL)=    0.0058158352 
ITERATION  11 : L=   15.4249156888 DL=  6.07e-05 (AVERGE_DL)=    0.0031808219 
ITERATION  12 : L=   15.4249337973 DL=  1.81e-05 (AVERGE_DL)=    0.0017372620 
ITERATION  13 : L=   15.4249391913 DL=  5.39e-06 (AVERGE_DL)=    0.0009481575 
ITERATION  14 : L=   15.4249407965 DL=  1.61e-06 (AVERGE_DL)=    0.0005172388 
ITERATION  15 : L=   15.4249412743 DL=  4.78e-07 (AVERGE_DL)=    0.0002821828 
LOCALIZATION SUM CONVERGED


--------------------------------------------------------------------------------
                    LOCALIZED MOLECULAR ORBITAL COMPOSITIONS
--------------------------------------------------------------------------------

The Mulliken populations for each LMO on each atom are computed
The LMO`s will be ordered according to atom index and type
  (A) Strongly localized MO`s have populations of >=0.950 on one atom
  (B) Two center bond orbitals have populations of >=0.850 on two atoms
  (C) Other MO`s are considered to be `delocalized`

FOUND  -   2 strongly local MO`s
       -   2 two center bond MO`s
       -   0 significantly delocalized MO`s

Rather strongly localized orbitals:
MO   6:   1S  -   0.982510
MO   5:   0Li -   1.000733
Bond-like localized orbitals:
MO   8:   1S  -   0.834298  and   0Li -   0.165702
MO   7:   1S  -   0.834382  and   0Li -   0.165618
Localized MO's were stored in: /cluster/projects/nn14654k/ylvaos/basis_set_n_funcs/functionals/hyb_gga_xc_b97/LiS/inp/LiS_hyb_gga_xc_b97_ccpvdz.loc

-------------------------   --------------------
FINAL SINGLE POINT ENERGY      -405.654822717940
-------------------------   --------------------



           ************************************************************
           *        Program running with 8 parallel MPI-processes     *
           *              working on a common directory               *
           ************************************************************

------------------------------------------------------------------------------
                              ORCA PROPERTY CALCULATIONS
------------------------------------------------------------------------------

GBWName                                 ... /cluster/projects/nn14654k/ylvaos/basis_set_n_funcs/functionals/hyb_gga_xc_b97/LiS/inp/LiS_hyb_gga_xc_b97_ccpvdz.gbw
Number of atoms                         ...      2
Number of basis functions               ...     61
Max core memory                         ...   4096 MB

Electric properties:
Dipole moment                           ... YES
Quadrupole moment                       ... YES
Static polarizability (Dipole/Dipole)   ...  NO
Static polarizability (Dipole/Quad.)    ...  NO
Static polarizability (Quad./Quad.)     ...  NO
Static polarizability (Velocity)        ...  NO
Static hyperpolarizability              ...  NO

Atomic electric properties:
Dipole moment                           ...  NO
Quadrupole moment                       ...  NO
Static polarizability                   ...  NO

Choice of electric origin               ... Center of mass
Position of electric origin             ...     0.000000     0.000000     1.308198

General magnetic properties:
Magnetizability                         ...  NO

EPR properties:
g-Tensor (aka g-matrix)                 ...  NO
Zero-Field splitting spin-orbit         ...  NO
Zero-field splitting spin-spin          ...  NO
Hyperfine couplings                     ...  NO (   0 nuclei)
Quadrupole couplings                    ...  NO (   0 nuclei)
Contact density                         ...  NO (   0 nuclei)

NMR properties:
Chemical shifts                         ...  NO (   0 nuclei)
Spin-rotation constants                 ...  NO (   0 nuclei)
Spin-spin couplings                     ...  NO (   0 nuclei,    0 pairs)

Choice of magnetic origin               ... GIAO
Position of magnetic origin             ...     0.000000     0.000000     0.000000

Properties with geometric perturbations:
SCF Hessian                             ...  NO
IR spectrum                             ...  NO
VCD spectrum                            ...  NO
X-ray spectroscopy properties:
SCF XES/XAS/RIXS spectra                ...  NO

SCF SOC stabilization energy            ...  NO
Diagonal Born-Oppenheimer correction    ...  NO

-------------
DIPOLE MOMENT
-------------

Method             : SCF
Type of density    : Electron Density
Multiplicity       :   2
Irrep              :   0
Energy             :  -405.6548227179402488 Eh
Basis              : AO
                                X                 Y                 Z
Electronic contribution:      0.000000000      -0.000000000      -4.179004599
Nuclear contribution   :      0.000000000       0.000000000       1.549484202
                        -----------------------------------------
Total Dipole Moment    :      0.000000000      -0.000000000      -2.629520397
                        -----------------------------------------
Magnitude (a.u.)       :      2.629520397
Magnitude (Debye)      :      6.683709686



--------------------
Rotational spectrum 
--------------------
 
Rotational constants in cm-1:             0.000000             0.639339             0.639339 
Rotational constants in MHz :             0.000000         19166.891897         19166.891897 

Dipole components along the rotational axes: 
x,y,z [a.u.] :    -2.629520    -0.000000     0.000000 
x,y,z [Debye]:    -6.683710    -0.000000     0.000000 

 

Dipole moment calculation done in   0.0 sec 

-----------------
QUADRUPOLE MOMENT
-----------------

Method             : SCF
Type of density    : Electron Density
Multiplicity       :   2
Irrep              :   0
Energy             :  -405.6548227179402488 Eh
Basis              : AO

                XX              YY              ZZ              XY              XZ              YZ
  NUC        0.000000000     0.000000000    41.817245673     0.000000000     0.000000000     0.000000000
  EL       -11.848375832   -14.129213097   -45.032125675     0.612728765    -0.000000000     0.000000001
  TOT      -11.848375832   -14.129213097    -3.214880001     0.612728765    -0.000000000     0.000000001 (a.u.)
           -15.936470709   -19.004274835    -4.324123551     0.824141144    -0.000000000     0.000000001 (Buckingham)

diagonalized tensor:
           -14.283395251   -11.694193678    -3.214880001 (a.u.)
           -19.211655105   -15.729090438    -4.324123551 (Buckingham)
           -18.370096222    -7.922402220    26.292498442 (traceless form in Buckingham)

             0.244024889    -0.969768969    -0.000000000
            -0.969768969    -0.244024889     0.000000000
             0.000000000    -0.000000000     1.000000000
        
Isotropic quadrupole :    -9.730822977

Quadrupole moment calculation done in   0.0 sec (  0.0 sec for integrals)

Maximum memory used throughout the entire PROP-calculation: 1.8 MB

--------------------------------
SUGGESTED CITATIONS FOR THIS RUN
--------------------------------

Below you find a list of papers that are relevant to this ORCA run
We neither can nor want to force you to cite these papers, but we appreciate if you do
You receive ORCA, which is the product of decades of hard work by many enthusiastic individuals, for free
The only thing we kindly ask in return is that you cite our papers,
We deeply appreciate it, if you show your appreciation for ORCA by not just citing the generic ORCA reference.

Please note that relegating all ORCA citations to the supporting information does *not* help us.
SI sections are not indexed - citations you put there will not count into any citation statistics
But we need these citations in order to attract the funding resources that allow us to do what we are doing

Therefore, if you are a happy ORCA user, please consider citing a few of the papers listed below in the main body of your paper

In addition to the list printed below, the program has created the file /cluster/projects/nn14654k/ylvaos/basis_set_n_funcs/functionals/hyb_gga_xc_b97/LiS/inp/LiS_hyb_gga_xc_b97_ccpvdz.bibtex that contains the list in bibtex format
You can import this file easily into all common literature databanks and citation aid programs

It goes without saying that in many instances, there are alternative algorithms to achieve similar
results as the ones you have gotten from ORCA. It is, of course, also the case that in some instances
ORCA just re-implements algorithms worked out by others. We are fully aware of that and we are also
fully appreciative of our colleagues work. Hence this citation list should not be read as indicating
that the listed papers, which are focused on our own work, are the only ones worth citing. It simply
meant to make it easier for users to cite ORCA specific papers. It is not a substitute for doing your
own literature research and citing the relevant literature in a scientifically appropriate manner.

List of essential papers. We consider these as the minimum necessary citations

  1. Neese, F.
     Software update: the ORCA program system, version 6.0
     WIRES Comput. Molec. Sci. 2025 15(1), e70019
     doi.org/10.1002/wcms.70019

List of papers to cite with high priority. The work reported in these papers was absolutely
necessary for this run to complete.
Our perspective: the developers of density functionals and basis sets usually get cited in chemistry papers
Good! But without the algorithms to do something with them, the functionals or basis sets would not do anything.
Hence, in our opinion, the algorithm design and method developments papers are equally worthy of getting cited

  1. Lehtola, S.; Steigemann, C.; Oliveira, M.; Marques, M.
     Recent developments in Libxc - A comprehensive library of functionals for density functional theory
     Software X 2018 7 , 
     doi.org/10.1016/j.softx.2017.11.002
  2. Neese, F.
     The SHARK Integral Generation and Digestion System
     J. Comp. Chem. 2022 44(3), 381
     doi.org/10.1002/jcc.26942

List of suggested additional citations. These are papers that are important in the 'surrounding' of 
of this run, or papers that preceded the highly important papers. If you like your results we are grateful for a citation.

  1. Neese, F.
     The ORCA program system
     WIRES Comput. Molec. Sci. 2012 2(1), 73-78
     doi.org/10.1002/wcms.81
  2. Neese, F.
     Software update: the ORCA program system, version 4.0
     WIRES Comput. Molec. Sci. 2018 8(1), 1-6
     doi.org/10.1002/wcms.1327
  3. Neese, F.; Wennmohs, F.; Becker, U.; Riplinger, C.
     The ORCA quantum chemistry program package
     J. Chem. Phys. 2020 152(22), 224108
     doi.org/10.1063/5.0004608
  4. Neese, F.
     Software update: The ORCA program system—Version 5.0
     WIRES Comput. Molec. Sci. 2022 12(1), e1606
     doi.org/10.1002/wcms.1606

List of optional additional citations

  1. Neese, F.
     Approximate second-order SCF convergence for spin unrestricted wavefunctions
     Chem. Phys. Lett. 2000 325(1-3), 93-98
     doi.org/10.1016/s0009-2614(00)00662-x

Timings for individual modules:

Sum of individual times          ...        3.891 sec (=   0.065 min)
Startup calculation              ...        1.559 sec (=   0.026 min)  40.1 %
SCF iterations                   ...        1.607 sec (=   0.027 min)  41.3 %
Property integrals               ...        0.465 sec (=   0.008 min)  12.0 %
Property calculations            ...        0.253 sec (=   0.004 min)   6.5 %
Orbital localization             ...        0.006 sec (=   0.000 min)   0.2 %
                             ****ORCA TERMINATED NORMALLY****
TOTAL RUN TIME: 0 days 0 hours 0 minutes 5 seconds 416 msec
