
                                 *****************
                                 * O   R   C   A *
                                 *****************

                                            #,                                       
                                            ###                                      
                                            ####                                     
                                            #####                                    
                                            ######                                   
                                           ########,                                 
                                     ,,################,,,,,                         
                               ,,#################################,,                 
                          ,,##########################################,,             
                       ,#########################################, ''#####,          
                    ,#############################################,,   '####,        
                  ,##################################################,,,,####,       
                ,###########''''           ''''###############################       
              ,#####''   ,,,,##########,,,,          '''####'''          '####       
            ,##' ,,,,###########################,,,                        '##       
           ' ,,###''''                  '''############,,,                           
         ,,##''                                '''############,,,,        ,,,,,,###''
      ,#''                                            '''#######################'''  
     '                                                          ''''####''''         
             ,#######,   #######,   ,#######,      ##                                
            ,#'     '#,  ##    ##  ,#'     '#,    #''#        ,####,    ,#,          
            ##       ##  ##   ,#'  ##            #'  '#       #'       ,# #          
            ##       ##  #######   ##           ,######,      #####,      #          
            '#,     ,#'  ##    ##  '#,     ,#' ,#      #,     #,   #      #          
             '#######'   ##     ##  '#######'  #'      '#     '####' #    #          



                #########################################################
                #                        -***-                          #
                #          Department of theory and spectroscopy        #
                #                                                       #
                #                      Frank Neese                      #
                #                                                       #
                #     Directorship, Architecture, Infrastructure        #
                #                    SHARK, DRIVERS                     #
                #        Core code/Algorithms in most modules           #
                #                                                       #
                #        Max Planck Institute fuer Kohlenforschung      #
                #                Kaiser Wilhelm Platz 1                 #
                #                 D-45470 Muelheim/Ruhr                 #
                #                      Germany                          #
                #                                                       #
                #                  All rights reserved                  #
                #                        -***-                          #
                #########################################################


                         Program Version 6.1.1  -  RELEASE   -
                                (GIT: $487d211c$)
                          ($2025-11-21 10:33:24 +0100$)


 With contributions from (in alphabetic order):
[Max-Planck-Institut fuer Kohlenforschung]                               
  Daniel Aravena         : Magnetic Suceptibility                        
  Michael Atanasov       : Ab Initio Ligand Field Theory (pilot matlab implementation)
  Alexander A. Auer      : GIAO ZORA, VPT2 properties, NMR spectrum      
  Ute Becker             : All parallelization in ORCA, NUMFREQ, NUMCALC 
  Giovanni Bistoni       : ED, misc. LED, open-shell LED, HFLD           
  Dmytro Bykov           : pre 5.0 version of the SCF Hessian            
  Marcos Casanova-Páez   : Triplet and SCS-CIS(D). UHF-(DLPNO)-IP/EA/STEOM-CCSD. UHF-CVS-IP/STEOM-CCSD   
  Vijay G. Chilkuri      : MRCI spin determinant printing, contributions to CSF-ICE 
  Pauline Colinet        : FMM embedding                                 
  Dipayan Datta          : RHF DLPNO-CCSD density                        
  Achintya Kumar Dutta   : EOM-CC, STEOM-CC                              
  Nicolas Foglia         : Exact transition moments, OPA infrastructure, MCD improvements    
  Dmitry Ganyushin       : Spin-Orbit,Spin-Spin,Magnetic field MRCI      
  Miquel Garcia-Rates    : C-PCM and meta-GGA Hessian, CCSD/C-PCM, Gaussian charge scheme 
  Tiago L. C. Gouveia    : GS-ROHF, GS-ROCIS                             
  Yang Guo               : DLPNO-NEVPT2, F12-NEVPT2, CIM, IAO-localization        
  Andreas Hansen         : Spin unrestricted coupled pair/coupled cluster methods 
  Ingolf Harden          : AUTO-CI MPn and infrastructure                
  Benjamin Helmich-Paris : MC-RPA, TRAH-(SCF,CASSCF), AVAS, COSX integrals, SCF dyn. polar., MC-PDFT, srDFT 
  Lee Huntington         : MR-EOM, pCC                                   
  Robert Izsak           : Overlap fitted RIJCOSX, COSX-SCS-MP3, EOM     
  Riya Kayal             : Wick's Theorem for AUTO-CI, AUTO-CI UHF-CCSDT 
  Emily Kempfer          : AUTO-CI RHF CISDT and CCSDT, approximate NEVPT4
  Christian Kollmar      : KDIIS, OOCD, Brueckner-CCSD(T), CCSD density, CASPT2, CASPT2-K, improved NEVPT2 
  Axel Koslowski         : Symmetry handling                             
  Simone Kossmann        : meta-GGA functionals, TD-DFT gradient, OOMP2, (MP2 Hessian; deprecated post 5.0) 
  Lucas Lang             : DCDCAS, Hyperfine gauge corrections, ICE-SOC+SSC
  Marvin Lechner         : AUTO-CI (C++ implementation), FIC-MRCC        
  Spencer Leger          : CASSCF response                               
  Dagmar Lenk            : GEPOL surface, SMD, ORCA-2-JSON               
  Dimitrios Liakos       : Extrapolation schemes; Compound Job, Property file
  Dimitrios Manganas     : Further ROCIS development; embedding schemes. LFT, Crystal Embedding 
  Dimitrios Pantazis     : SARC Basis sets                               
  Anastasios Papadopoulos: AUTO-CI, single reference methods and gradients 
  Taras Petrenko         : pre 6.0 DFT Hessian and TD-DFT gradient,  ECA, NRVS 
  Petra Pikulova         : Analytic Raman intensities                    
  Peter Pinski           : DLPNO-MP2, DLPNO-MP2 Gradient                 
  Shashank Vittal Rao    : ES-AILFT, MagRelax                            
  Christoph Reimann      : Effective Core Potentials                     
  Marius Retegan         : Local ZFS, SOC                                
  Christoph Riplinger    : Optimizer, TS searches, QM/MM, DLPNO-CCSD(T), (RO)-DLPNO pert. Triples 
  Michael Roemelt        : Original ROCIS implementation, recursive CI coupling coefficients
  Masaaki Saitow         : Open-shell DLPNO-CCSD energy and density      
  Barbara Sandhoefer     : DKH picture change effects                    
  Yorick L. A. Schmerwitz: GMF and freeze-and-release deltaSCF, NEB S-IDPP initial path                    
  Kantharuban Sivalingam : CASSCF convergence/infrastructure, NEVPT2, NEVPT3, NEVPT4(SD), FIC-MRCI and CEPA variants
  Bernardo de Souza      : ESD, SOC TD-DFT                               
  Georgi L. Stoychev     : AutoAux, RI-MP2 NMR, DLPNO-MP2 response, X2C  
  Van Anh Tran           : RI-MP2 g-tensors                              
  Willem Van den Heuvel  : Paramagnetic NMR                              
  Zikuan Wang            : NOTCH, Electric field optimization            
  Frank Wennmohs         : Technical directorship and infrastructure     
  Hang Xu                : AUTO-CI-Response properties                   
                                                                         
[FACCTs GmbH]                                                            
  Markus Bursch, Nicolas Foglia, Miquel Garcia-Rates, Ingolf Harden, Hagen Neugebauer, Anastasios Papadopoulos, 
  Christoph Riplinger, Bernardo de Souza, Georgi L. Stoychev                                                    
                                                                 
  APM, various basis sets, CI-OPT, improved COSX, DLPNO-Multilevel,           
  DOCKER, DRACO, updates on ESD, Fragmentator, GOAT, IRC, LR-CPCM, L-BFGS, MBIS, meta-GGA TD-DFT gradient, ML-optimized integration grids, 
  MM, NACMEs, nearIR, NEB, NEB-TS, NL-DFT gradient (VV10), 2- and 3-layer-ONIOM, interface openCOSMO-RS, QMMM,   
  Crystal-QMMM, RESP, rigid body optimization, SF, symmetry and pop. for TD-DFT, various functionals, SOLVATOR                                   
                                                                         
[Other institutions]                                                     
  V. Asgeirsson          : NEB                                           
  Christoph Bannwarth    : sTDA-DFT, sTD-DFT, PBEh-3c, B97-3c, D3        
  Giovanni Bistoni       : ETS/NOCV, ADLD/ADEX, COVALED                  
  Martin Brehm           : Molecular dynamics                            
  Ronald Cardenas        : ETS/NOCV                                      
  Martina Colucci        : COVALED                                       
  Sebastian Ehlert       : rSCAN, r2SCAN, r2SCAN-3c, D4, dhf basis sets  
  Marvin Friede          : D4 for Fr, Ra, Ac-Lr                          
  Lars Goerigk           : TD-DFT with DH, B97 family of functionals     
  Stefan Grimme          : VdW corrections, initial TS optimization, DFT functionals, gCP, sTDA/sTD-DF 
  Waldemar Hujo          : DFT-NL                                        
  H. Jonsson             : NEB                                           
  Holger Kruse           : gCP                                           
  Marcel Mueller         : wB97X-3c, vDZP basis set                      
  Hagen Neugebauer       : wr2SCAN, Native XTB                           
  Gianluca Regni         : ADLD/ADEX                                     
  Tobias Risthaus        : pre 6.0 range-separated hybrid DFT and stability analysis
  Lukas Wittmann         : regularized MP2, r2SCAN double-hybrids, wr2SCAN        
                                                                         
We gratefully acknowledge several colleagues who have allowed us to      
interface, adapt or use parts of their codes:                            
  Ed Valeev, F. Pavosevic, A. Kumar             : LibInt (2-el integral package), F12 methods 
  Garnet Chan, S. Sharma, J. Yang, R. Olivares  : DMRG                   
  Ulf Ekstrom                                   : XCFun DFT Library      
  Mihaly Kallay                                 : mrcc  (arbitrary order and MRCC methods)
  Frank Weinhold                                : gennbo (NPA and NBO analysis)           
  Simon Mueller                                 : openCOSMO-RS                            
  Christopher J. Cramer and Donald G. Truhlar   : smd solvation model                     
  S Lehtola, MJT Oliveira, MAL Marques          : LibXC Library                           
  Liviu Ungur et al                             : ANISO software                          


 Your calculation uses the libint2 library for the computation of 2-el integrals
 For citations please refer to: http://libint.valeyev.net

 Your ORCA version has been built with support for libXC version: 7.0.0
 For citations please refer to: https://libxc.gitlab.io

 This ORCA versions uses:
   CBLAS   interface :  Fast vector & matrix operations
   LAPACKE interface :  Fast linear algebra routines
   SCALAPACK package :  Parallel linear algebra routines
   Shared memory     :  Shared parallel matrices
   BLAS/LAPACK       :  OpenBLAS 0.3.29  USE64BITINT DYNAMIC_ARCH NO_AFFINITY Cooperlake SINGLE_THREADED
        Core in use  :  Cooperlake
   Copyright (c) 2011-2014, The OpenBLAS Project


  ***********************************
  * Starting time: Wed May 20 12:35:45 2026
  * Host name:     c1-14
  * Process ID:    1032454
  * Working dir.:  /cluster/projects/nn14654k/ylvaos/basis_set_n_funcs/functionals/gga_c_N12/LiS/out
  ***********************************

Using LibXC functional ID  80 : Minnesota N12 correlation functional
[ 1]  R. Peverati and D. G. Truhlar.,  J. Chem. Theory Comput. 8, 2310 (2012)
Using LibXC functional ID  80 : Minnesota N12 correlation functional
[ 1]  R. Peverati and D. G. Truhlar.,  J. Chem. Theory Comput. 8, 2310 (2012)
Your calculation utilizes LibXC
by S. Lehtola, C. Steigemann, M. J. T. Oliveira & M. A. L. Marques
Please cite in your paper:
Lehtola, S.; Steigemann, C.; Oliveira, M.J.T.; Marques, M. A. L. Software X, 7, (2018), 1.
   

================================================================================

----- Orbital basis set information -----
Your calculation utilizes the basis: pcseg-4
   F. Jensen, J. Chem. Theory Comput. 10, 1074 (2014).

================================================================================
                                        WARNINGS
                       Please study these warnings very carefully!
================================================================================


WARNING: The basis set has functions with high angular momentum (Lmax>4).
         We might need to increase small grids for safety reasons and
         in general, DEFGRID3 is recommend for such cases.
  ===> : GRIDX1, TD-DFT and the CP-SCF AngGrids will be increased to at least 2


WARNING: your system is open-shell and RHF/RKS was chosen
  ===> : WILL SWITCH to UHF/UKS


================================================================================
                                       INPUT FILE
================================================================================
NAME = /cluster/projects/nn14654k/ylvaos/basis_set_n_funcs/functionals/gga_c_N12/LiS/inp/LiS_gga_c_N12_pcseg4.inp
|  1> ! dft pcseg-4 TightSCF
|  2> %pal nprocs 8 end
|  3> 
|  4> %loc
|  5>   LocMet NewBoys
|  6>   Occ true
|  7> end
|  8> 
|  9> %method
| 10>   exchange None
| 11>   correlation gga_c_N12
| 12> end
| 13> 
| 14> %elprop
| 15>   Dipole true
| 16>   Quadrupole true
| 17> end
| 18> 
| 19> * xyz 0 2
| 20> Li    0.000000000000   0.000000000000  -1.074850000000
| 21> S    0.000000000000   0.000000000000   1.074850000000
| 22> *
| 23> 
| 24> 
| 25>                          ****END OF INPUT****
================================================================================

                       ****************************
                       * Single Point Calculation *
                       ****************************

---------------------------------
CARTESIAN COORDINATES (ANGSTROEM)
---------------------------------
  Li     0.000000    0.000000   -1.074850
  S      0.000000    0.000000    1.074850

----------------------------
CARTESIAN COORDINATES (A.U.)
----------------------------
  NO LB      ZA    FRAG     MASS         X           Y           Z
   0 Li    3.0000    0     6.941    0.000000    0.000000   -2.031172
   1 S    16.0000    0    32.060    0.000000    0.000000    2.031172

--------------------------------
INTERNAL COORDINATES (ANGSTROEM)
--------------------------------
 Li     0   0   0     0.000000000000     0.00000000     0.00000000
 S      1   0   0     2.149700000000     0.00000000     0.00000000

---------------------------
INTERNAL COORDINATES (A.U.)
---------------------------
 Li     0   0   0     0.000000000000     0.00000000     0.00000000
 S      1   0   0     4.062344270091     0.00000000     0.00000000

---------------------
BASIS SET INFORMATION
---------------------
There are 2 groups of distinct atoms

 Group   1 Type Li  : 20s8p3d2f1g contracted to 6s4p3d2f1g pattern {1241111/5111/111/11/1}
 Group   2 Type S   : 25s17p6d3f2g1h contracted to 7s6p6d3f2g1h pattern {14521111/1121111/111111/111/11/1}

Atom   0Li   basis set group =>   1
Atom   1S    basis set group =>   2


           ************************************************************
           *        Program running with 8 parallel MPI-processes     *
           *              working on a common directory               *
           ************************************************************
------------------------------------------------------------------------------
                             ORCA STARTUP CALCULATIONS
------------------------------------------------------------------------------
------------------------------------------------------------------------------
                   ___                                                        
                  /   \      - P O W E R E D   B Y -                         
                 /     \                                                     
                 |  |  |   _    _      __       _____    __    __             
                 |  |  |  | |  | |    /  \     |  _  \  |  |  /  |          
                  \  \/   | |  | |   /    \    | | | |  |  | /  /          
                 / \  \   | |__| |  /  /\  \   | |_| |  |  |/  /          
                |  |  |   |  __  | /  /__\  \  |    /   |      \           
                |  |  |   | |  | | |   __   |  |    \   |  |\   \          
                \     /   | |  | | |  |  |  |  | |\  \  |  | \   \       
                 \___/    |_|  |_| |__|  |__|  |_| \__\ |__|  \__/        
                                                                              
                      - O R C A' S   B I G   F R I E N D -                    
                                      &                                       
                       - I N T E G R A L  F E E D E R -                       
                                                                              
 v1 FN, 2020, v2 2021, v3 2022-2024                                           
------------------------------------------------------------------------------


----------------------
SHARK INTEGRAL PACKAGE
----------------------

Number of atoms                             ...      2
Number of basis functions                   ...    161
Number of shells                            ...     41
Maximum angular momentum                    ...      5
Integral batch strategy                     ... SHARK/LIBINT Hybrid
RI-J (if used) integral strategy            ... SPLIT-RIJ (Revised 2003 algorithm where possible)
Printlevel                                  ...      1
Contraction scheme used                     ... SEGMENTED contraction
Prescreening option                         ... SCHWARTZ
   Thresh                                   ... 2.500e-11
   Tcut                                     ... 2.500e-12
   Tpresel                                  ... 2.500e-12 
Coulomb Range Separation                    ... NOT USED
Exchange Range Separation                   ... NOT USED
Multipole approximations                    ... NOT USED
Finite Nucleus Model                        ... NOT USED
CABS basis                                  ... NOT available
Auxiliary Coulomb fitting basis             ... NOT available
Auxiliary J/K fitting basis                 ... NOT available
Auxiliary Correlation fitting basis         ... NOT available
Auxiliary 'external' fitting basis          ... NOT available

Checking pre-screening integrals            ... done (  0.0 sec) Dimension = 41
   => SHARK Basis and OBASIS are compatible. Storing Pre-screening
Shell pair information
Shell pair cut-off parameter TPreSel        ...   2.5e-12
Total number of shell pairs                 ...       861
Shell pairs after pre-screening             ...       861
Total number of primitive shell pairs       ...      4156
Primitive shell pairs kept                  ...      3587
          la=0 lb=0:     91 shell pairs
          la=1 lb=0:    130 shell pairs
          la=1 lb=1:     55 shell pairs
          la=2 lb=0:    117 shell pairs
          la=2 lb=1:     90 shell pairs
          la=2 lb=2:     45 shell pairs
          la=3 lb=0:     65 shell pairs
          la=3 lb=1:     50 shell pairs
          la=3 lb=2:     45 shell pairs
          la=3 lb=3:     15 shell pairs
          la=4 lb=0:     39 shell pairs
          la=4 lb=1:     30 shell pairs
          la=4 lb=2:     27 shell pairs
          la=4 lb=3:     15 shell pairs
          la=4 lb=4:      6 shell pairs
          la=5 lb=0:     13 shell pairs
          la=5 lb=1:     10 shell pairs
          la=5 lb=2:      9 shell pairs
          la=5 lb=3:      5 shell pairs
          la=5 lb=4:      3 shell pairs
          la=5 lb=5:      1 shell pairs

Checking whether 4 symmetric matrices of dimension 161 fit in memory
:Max Core in MB      =   4096.00
 MB in use           =      7.18
 MB left             =   4088.82
 MB needed           =      0.40
 Data fit in memory  = YES
Calculating Nuclear repulsion               ... done (  0.0 sec) ENN=     11.815837557985 Eh

Diagonalization of the overlap matrix:
Smallest eigenvalue                        ... 1.686e-04
Time for diagonalization                   ...    0.002 sec
Threshold for overlap eigenvalues          ... 1.000e-07
Number of eigenvalues below threshold      ... 0
Time for construction of square roots      ...    0.002 sec
Total time needed                          ...    0.005 sec

-------------------
DFT GRID GENERATION
-------------------

General Integration Accuracy     IntAcc      ... 4.388
Radial Grid Type                 RadialGrid  ... OptM3 with GC (2021)
Angular Grid (max. ang.)         AngularGrid ... 4 (Lebedev-302)
Angular grid pruning method      GridPruning ... 4 (adaptive)
Weight generation scheme         WeightScheme... mBecke (2022)
Basis function cutoff            BFCut       ... 1.0000e-11
Integration weight cutoff        WCut        ... 1.0000e-14
Partially contracted basis set               ... off
Rotationally invariant grid construction     ... off
Angular grids for H and He will be reduced by one unit
Core-polarized basis detected: some atoms will have their core
                               angular grid increased.

Total number of grid points                  ...    15754
Total number of batches                      ...      248
Average number of points per batch           ...       63
Average number of grid points per atom       ...     7877
Grids setup in   0.1 sec
Initializing property integral containers    ... done (  0.0 sec)

SHARK setup successfully completed in   0.2 seconds

Maximum memory used throughout the entire STARTUP-calculation: 84.6 MB


           ************************************************************
           *        Program running with 8 parallel MPI-processes     *
           *              working on a common directory               *
           ************************************************************
-------------------------------------------------------------------------------
                                 ORCA GUESS
                   Start orbitals & Density for SCF / CASSCF
-------------------------------------------------------------------------------

------------
SCF SETTINGS
------------
Hamiltonian:
 Density Functional     Method          .... DFT(GTOs)
 Exchange Functional    Exchange        .... no Exchange
  Functional kind                       .... Correlation
  Functional name                       .... Minnesota N12 correlation functional
  Functional family                     .... GGA
  Functional refs                              
    [ 0] R. Peverati and D. G. Truhlar.,  J. Chem. Theory Comput. 8, 2310 (2012), doi: 10.1021/ct3002656
  Functional external parameters        .... 10
    Parameter  0 _css0      =  1.000000e+00 : u^0 coefficient for same-spin correlation
    Parameter  1 _css1      = -5.531700e+00 : u^1 coefficient for same-spin correlation
    Parameter  2 _css2      =  3.079580e+01 : u^2 coefficient for same-spin correlation
    Parameter  3 _css3      = -5.641960e+01 : u^3 coefficient for same-spin correlation
    Parameter  4 _css4      =  3.212500e+01 : u^4 coefficient for same-spin correlation
    Parameter  5 _cos0      =  1.000000e+00 : u^0 coefficient for opposite-spin correlation
    Parameter  6 _cos1      =  3.245110e+00 : u^1 coefficient for opposite-spin correlation
    Parameter  7 _cos2      = -2.528930e+01 : u^2 coefficient for opposite-spin correlation
    Parameter  8 _cos3      =  1.444070e+01 : u^3 coefficient for opposite-spin correlation
    Parameter  9 _cos4      =  1.968700e+01 : u^4 coefficient for opposite-spin correlation
 Gradients option       PostSCFGGA      .... off


General Settings:
 Integral files         IntName         .... /cluster/projects/nn14654k/ylvaos/basis_set_n_funcs/functionals/gga_c_N12/LiS/inp/LiS_gga_c_N12_pcseg4
 Hartree-Fock type      HFTyp           .... UHF
 Total Charge           Charge          ....    0
 Multiplicity           Mult            ....    2
 Number of Electrons    NEL             ....   19
 Basis Dimension        Dim             ....  161
 Nuclear Repulsion      ENuc            ....     11.8158375580 Eh

Convergence Acceleration:
 AO-DIIS                CNVDIIS         .... on
   Start iteration      DIISMaxIt       ....    12
   Startup error        DIISStart       ....  0.200000
   # of expansion vecs  DIISMaxEq       ....     5
   Bias factor          DIISBfac        ....   1.050
   Max. coefficient     DIISMaxC        ....  10.000
 MO-DIIS                CNVKDIIS        .... off
 Trust-Rad. Augm. Hess. CNVTRAH         .... auto
   Auto Start mean grad. ratio tolernc. ....  1.125000
   Auto Start start iteration           ....    50
   Auto Start num. interpolation iter.  ....    10
   Max. Number of Micro iterations      ....    24
   Max. Number of Macro iterations      .... Maxiter - #DIIS iter
   Number of Davidson start vectors     ....     2
   Converg. threshold    (grad. norm)   ....   1.000e-05
   Grad. Scal. Fac. for Micro threshold ....   0.100
   Minimum threshold for Micro iter.    ....   1.000e-02
   NR start threshold (gradient norm)   ....   1.000e-04
   Initial trust radius                 ....   0.400
   Minimum AH scaling param. (alpha)    ....   1.000
   Maximum AH scaling param. (alpha)    .... 1000.000
   Quad. conv. algorithm                .... NR
   White noise on init. David. guess    .... on
   Maximum white noise                  ....   0.010
   Pseudo random numbers                .... off
   Inactive MOs                         .... canonical
   Orbital update algorithm             .... Taylor
   Preconditioner                       .... Diag
   Full preconditioner red. dimension   ....   250
 SOSCF                 CNVSOSCF           .... on
   Start iteration     SOSCFMaxIt         ....   150
   Startup grad/error  SOSCFStart         ....  0.003300
   Hessian update      SOSCFHessUp        .... L-BFGS
   Autom. constraints  SOSCFAutoConstrain .... off
 Level Shifting         CNVShift        .... on
   Level shift para.    LevelShift      ....    0.2500
   Turn off err/grad.   ShiftErr        ....    0.0010
 Zerner damping         CNVZerner       .... off
 Static damping         CNVDamp         .... on
   Fraction old density DampFac         ....    0.7000
   Max. Damping (<1)    DampMax         ....    0.9800
   Min. Damping (>=0)   DampMin         ....    0.0000
   Turn off err/grad.   DampErr         ....    0.1000

SCF Procedure:
 Maximum # iterations   MaxIter         ....   125
 SCF integral mode      SCFMode         .... Direct
   Integral package                     .... SHARK and LIBINT hybrid scheme
 Reset frequency        DirectResetFreq ....    20
 Integral Threshold     Thresh          ....  2.500e-11 Eh
 Primitive CutOff       TCut            ....  2.500e-12 Eh

Convergence Tolerance:
 Convergence Check Mode ConvCheckMode   .... Total+1el-Energy
 Convergence forced     ConvForced      .... 0
 Energy Change          TolE            ....  1.000e-08 Eh
 1-El. energy change                    ....  1.000e-05 Eh
 Orbital Gradient       TolG            ....  1.000e-05
 Orbital Rotation angle TolX            ....  1.000e-05
 DIIS Error             TolErr          ....  5.000e-07

------------------------------
INITIAL GUESS: MODEL POTENTIAL
------------------------------
Loading Hartree-Fock densities                     ... done
Calculating cut-offs                               ... done
Initializing the effective Hamiltonian             ... done
Setting up the integral package (SHARK)            ... done
Starting the Coulomb interaction                   ... done (   0.0 sec)
Making the grid                                    ... done (   0.0 sec)
Mapping shells                                     ... done
Starting the XC term evaluation                    ... done (   0.0 sec)
  promolecular density results
     # of electrons  =     18.999659776
     EX              =      0.000000000
     EC              =     -1.157893592
     EX+EC           =     -1.157893592
Transforming the Hamiltonian                       ... done (   0.0 sec)
Diagonalizing the Hamiltonian                      ... done (   0.0 sec)
Back transforming the eigenvectors                 ... done (   0.0 sec)
Now organizing SCF variables                       ... done
                      ------------------
                      INITIAL GUESS DONE (   0.1 sec)
                      ------------------
             **** ENERGY FILE WAS UPDATED (/cluster/projects/nn14654k/ylvaos/basis_set_n_funcs/functionals/gga_c_N12/LiS/inp/LiS_gga_c_N12_pcseg4.en.tmp) ****
Finished Guess after   0.1 sec
Maximum memory used throughout the entire GUESS-calculation: 16.3 MB


           ************************************************************
           *        Program running with 8 parallel MPI-processes     *
           *              working on a common directory               *
           ************************************************************

-------------------------------------------------------------------------------------------
                                      ORCA LEAN-SCF
                              memory conserving SCF solver
-------------------------------------------------------------------------------------------

----------------------------------------D-I-I-S--------------------------------------------
Iteration    Energy (Eh)           Delta-E    RMSDP     MaxDP     DIISErr   Damp  Time(sec)
-------------------------------------------------------------------------------------------
               ***  Starting incremental Fock matrix formation  ***
    1    -376.9759514556403133     0.00e+00  2.74e-02  5.11e-01  4.13e-01  0.700   0.7
Warning: op=1 Small HOMO/LUMO gap (  -0.069) - skipping pre-diagonalization
         Will do a full diagonalization
    2    -378.6642490750638217    -1.69e+00  1.89e-02  3.58e-01  1.82e-01  0.700   0.8
                               ***Turning on AO-DIIS***
    3    -379.2936741646946075    -6.29e-01  1.32e-02  2.51e-01  8.74e-02  0.700   0.8
    4    -379.5655701822818173    -2.72e-01  3.09e-02  5.85e-01  5.78e-02  0.000   0.7
    5    -379.8476179429260355    -2.82e-01  3.21e-03  7.18e-02  8.16e-02  0.000   0.7
    6    -379.8977871703729079    -5.02e-02  4.25e-03  7.56e-02  6.37e-02  0.000   0.8
    7    -379.9227571593942230    -2.50e-02  3.87e-03  6.96e-02  5.63e-02  0.000   0.6
    8    -379.9418011511139071    -1.90e-02  1.91e-03  3.84e-02  4.12e-02  0.000   0.7
    9    -379.9516132873324068    -9.81e-03  1.93e-03  3.94e-02  3.18e-02  0.000   0.6
   10    -379.9609348946584078    -9.32e-03  1.45e-03  1.82e-02  1.87e-02  0.000   0.7
   11    -379.9642503316858893    -3.32e-03  1.26e-03  2.52e-02  1.36e-02  0.000   0.6
   12    -379.9659964800329703    -1.75e-03  1.20e-03  2.23e-02  9.72e-03  0.000   0.6
   13    -379.9668129051406709    -8.16e-04  1.06e-03  1.73e-02  7.79e-03  0.000   0.6
   14    -379.9672919962364404    -4.79e-04  1.09e-03  1.83e-02  6.40e-03  0.000   0.6
   15    -379.9676432948183447    -3.51e-04  9.69e-04  1.87e-02  5.12e-03  0.000   0.6
   16    -379.9678761242142855    -2.33e-04  8.80e-04  1.93e-02  4.16e-03  0.000   0.6
   17    -379.9680493088130220    -1.73e-04  5.86e-04  1.35e-02  3.36e-03  0.000   0.7
                              *** Initializing SOSCF ***
---------------------------------------S-O-S-C-F--------------------------------------
Iteration    Energy (Eh)           Delta-E    RMSDP     MaxDP     MaxGrad    Time(sec)
--------------------------------------------------------------------------------------
   18    -379.9681476156777649    -9.83e-05  4.85e-04  1.20e-02  2.69e-03     0.6
               *** Restarting incremental Fock matrix formation ***
   19    -379.9682052909971048    -5.77e-05  6.78e-04  1.35e-02  2.98e-03     0.6
   20    -379.9682112011899449    -5.91e-06  2.12e-04  2.60e-03  2.59e-03     0.6
   21    -379.9683274664458850    -1.16e-04  2.76e-04  4.20e-03  7.36e-04     0.6
   22    -379.9683533656015584    -2.59e-05  5.81e-04  9.41e-03  6.38e-04     0.6
   23    -379.9683715601044582    -1.82e-05  4.30e-04  9.54e-03  4.98e-04     0.6
   24    -379.9683767066908331    -5.15e-06  7.88e-04  1.82e-02  3.11e-04     0.6
   25    -379.9683819671779474    -5.26e-06  3.59e-04  8.75e-03  2.38e-04     0.7
   26    -379.9683838851199766    -1.92e-06  1.49e-04  3.61e-03  1.46e-04     0.6
   27    -379.9683847688876881    -8.84e-07  3.71e-05  4.67e-04  6.48e-05     0.6
   28    -379.9683849367517610    -1.68e-07  1.47e-05  2.33e-04  3.59e-05     0.6
   29    -379.9683849559449982    -1.92e-08  5.88e-06  1.05e-04  1.01e-05     0.7
   30    -379.9683849585790654    -2.63e-09  2.36e-06  3.62e-05  4.48e-06     0.6
                 **** Energy Check signals convergence ****

               *****************************************************
               *                     SUCCESS                       *
               *           SCF CONVERGED AFTER  30 CYCLES          *
               *****************************************************

             **** ENERGY FILE WAS UPDATED (/cluster/projects/nn14654k/ylvaos/basis_set_n_funcs/functionals/gga_c_N12/LiS/inp/LiS_gga_c_N12_pcseg4.en.tmp) ****

----------------
TOTAL SCF ENERGY
----------------

Total Energy       :       -379.96838495927693 Eh          -10339.46540 eV

Components:
Nuclear Repulsion  :         11.81583755798484 Eh             321.52529 eV
Electronic Energy  :       -391.78422251726170 Eh          -10660.99069 eV
One Electron Energy:       -572.16114196843796 Eh          -15569.29620 eV
Two Electron Energy:        180.37691945117624 Eh            4908.30551 eV

Virial components:
Potential Energy   :       -768.39449570420777 Eh          -20909.07723 eV
Kinetic Energy     :        388.42611074493084 Eh           10569.61182 eV
Virial Ratio       :          1.97822565076937

DFT components:
N(Alpha)           :        9.999170793748 electrons
N(Beta)            :        8.999940480797 electrons
N(Total)           :       18.999111274546 electrons
E(X)               :        0.000000000000 Eh       
E(C)               :       -1.121802656486 Eh       
E(XC)              :       -1.121802656486 Eh       

---------------
SCF CONVERGENCE
---------------

  Last Energy change         ...    2.6341e-09  Tolerance :   1.0000e-08
  Last MAX-Density change    ...    3.6160e-05  Tolerance :   1.0000e-07
  Last RMS-Density change    ...    2.3586e-06  Tolerance :   5.0000e-09
  Last DIIS Error            ...    2.6905e-03  Tolerance :   5.0000e-07
  Last Orbital Gradient      ...    4.4766e-06  Tolerance :   1.0000e-05
  Last Orbital Rotation      ...    3.5401e-05  Tolerance :   1.0000e-05


----------------------
UHF SPIN CONTAMINATION
----------------------

Warning: in a DFT calculation there is little theoretical justification to 
         calculate <S**2> as in Hartree-Fock theory. We will do it anyways
         but you should keep in mind that the values have only limited relevance

Expectation value of <S**2>     :     0.793813
Ideal value S*(S+1) for S=0.5   :     0.750000
Deviation                       :     0.043813

----------------
ORBITAL ENERGIES
----------------
                 SPIN UP ORBITALS
  NO   OCC          E(Eh)            E(eV) 
   0   1.0000     -83.180811     -2263.4649 
   1   1.0000      -6.570661      -178.7968 
   2   1.0000      -4.622624      -125.7880 
   3   1.0000      -4.613368      -125.5361 
   4   1.0000      -4.612456      -125.5113 
   5   1.0000      -1.196683       -32.5634 
   6   1.0000      -0.352266        -9.5857 
   7   1.0000      -0.045922        -1.2496 
   8   1.0000      -0.036033        -0.9805 
   9   1.0000      -0.029748        -0.8095 
  10   0.0000      -0.011747        -0.3196 
  11   0.0000       0.019176         0.5218 
  12   0.0000       0.023638         0.6432 
  13   0.0000       0.027462         0.7473 
  14   0.0000       0.055445         1.5087 
  15   0.0000       0.085016         2.3134 
  16   0.0000       0.087925         2.3926 
  17   0.0000       0.127585         3.4718 
  18   0.0000       0.156810         4.2670 
  19   0.0000       0.161600         4.3974 
  20   0.0000       0.173501         4.7212 

                 SPIN DOWN ORBITALS
  NO   OCC          E(Eh)            E(eV) 
   0   1.0000     -83.181306     -2263.4784 
   1   1.0000      -6.572441      -178.8452 
   2   1.0000      -4.626858      -125.9032 
   3   1.0000      -4.614449      -125.5655 
   4   1.0000      -4.613415      -125.5374 
   5   1.0000      -1.196121       -32.5481 
   6   1.0000      -0.360298        -9.8042 
   7   1.0000      -0.038483        -1.0472 
   8   1.0000      -0.031841        -0.8664 
   9   0.0000      -0.061229        -1.6661 
  10   0.0000      -0.031352        -0.8531 
  11   0.0000       0.013327         0.3626 
  12   0.0000       0.035251         0.9592 
  13   0.0000       0.036457         0.9920 
  14   0.0000       0.071188         1.9371 
  15   0.0000       0.090444         2.4611 
  16   0.0000       0.112459         3.0602 
  17   0.0000       0.147760         4.0208 
  18   0.0000       0.182405         4.9635 
  19   0.0000       0.196639         5.3508 
*Only the first 10 virtual orbitals were printed.

                    ********************************
                    * MULLIKEN POPULATION ANALYSIS *
                    ********************************

--------------------------------------------
MULLIKEN ATOMIC CHARGES AND SPIN POPULATIONS
--------------------------------------------
   0 Li:    0.071645    0.186703
   1 S :   -0.071645    0.813297
Sum of atomic charges         :    0.0000000
Sum of atomic spin populations:    1.0000000

-----------------------------------------------------
MULLIKEN REDUCED ORBITAL CHARGES AND SPIN POPULATIONS
-----------------------------------------------------
CHARGE
  0 Lis       :     2.260650  s :     2.260650
      pz      :     0.208150  p :     0.611385
      px      :     0.231859
      py      :     0.171376
      dz2     :     0.034571  d :     0.053356
      dxz     :     0.010245
      dyz     :     0.008478
      dx2y2   :     0.000008
      dxy     :     0.000054
      f0      :     0.002899  f :     0.002563
      f+1     :    -0.000871
      f-1     :     0.000194
      f+2     :     0.000041
      f-2     :     0.000262
      f+3     :     0.000003
      f-3     :     0.000035
      g0      :     0.000252  g :     0.000401
      g+1     :     0.000087
      g-1     :     0.000060
      g+2     :     0.000000
      g-2     :     0.000000
      g+3     :     0.000000
      g-3     :     0.000001
      g+4     :     0.000000
      g-4     :     0.000000

  1 S s       :     5.811564  s :     5.811564
      pz      :     3.677625  p :    10.252011
      px      :     3.439575
      py      :     3.134811
      dz2     :     0.002837  d :     0.007790
      dxz     :     0.002107
      dyz     :     0.001733
      dx2y2   :     0.000150
      dxy     :     0.000963
      f0      :    -0.000151  f :     0.000311
      f+1     :    -0.000007
      f-1     :    -0.000031
      f+2     :     0.000023
      f-2     :     0.000149
      f+3     :     0.000066
      f-3     :     0.000263
      g0      :    -0.000049  g :    -0.000029
      g+1     :     0.000008
      g-1     :     0.000006
      g+2     :     0.000000
      g-2     :     0.000001
      g+3     :     0.000000
      g-3     :     0.000000
      g+4     :     0.000002
      g-4     :     0.000002
      h0      :    -0.000003  h :    -0.000003
      h+1     :     0.000000
      h-1     :     0.000000
      h+2     :    -0.000000
      h-2     :    -0.000000
      h+3     :    -0.000000
      h-3     :    -0.000000
      h+4     :     0.000000
      h-4     :     0.000000
      h+5     :     0.000000
      h-5     :     0.000000


SPIN
  0 Lis       :     0.035718  s :     0.035718
      pz      :    -0.014963  p :     0.157518
      px      :     0.074079
      py      :     0.098403
      dz2     :    -0.013788  d :    -0.009111
      dxz     :     0.000690
      dyz     :     0.004017
      dx2y2   :    -0.000004
      dxy     :    -0.000027
      f0      :    -0.000958  f :     0.002669
      f+1     :     0.002230
      f-1     :     0.001708
      f+2     :    -0.000038
      f-2     :    -0.000242
      f+3     :    -0.000000
      f-3     :    -0.000030
      g0      :    -0.000108  g :    -0.000090
      g+1     :    -0.000005
      g-1     :     0.000022
      g+2     :     0.000000
      g-2     :     0.000001
      g+3     :    -0.000000
      g-3     :    -0.000001
      g+4     :    -0.000000
      g-4     :    -0.000000

  1 S s       :     0.065811  s :     0.065811
      pz      :    -0.069721  p :     0.748164
      px      :     0.239628
      py      :     0.578257
      dz2     :    -0.000794  d :    -0.000274
      dxz     :     0.000256
      dyz     :     0.000878
      dx2y2   :    -0.000082
      dxy     :    -0.000531
      f0      :    -0.000166  f :    -0.000389
      f+1     :     0.000003
      f-1     :    -0.000026
      f+2     :    -0.000012
      f-2     :    -0.000078
      f+3     :     0.000043
      f-3     :    -0.000154
      g0      :    -0.000012  g :    -0.000014
      g+1     :     0.000001
      g-1     :     0.000002
      g+2     :    -0.000000
      g-2     :    -0.000001
      g+3     :     0.000000
      g-3     :    -0.000000
      g+4     :    -0.000002
      g-4     :    -0.000002
      h0      :    -0.000001  h :    -0.000000
      h+1     :     0.000000
      h-1     :     0.000000
      h+2     :     0.000000
      h-2     :     0.000000
      h+3     :     0.000000
      h-3     :     0.000000
      h+4     :    -0.000000
      h-4     :    -0.000000
      h+5     :    -0.000000
      h-5     :    -0.000000



                     *******************************
                     * LOEWDIN POPULATION ANALYSIS *
                     *******************************

-------------------------------------------
LOEWDIN ATOMIC CHARGES AND SPIN POPULATIONS
-------------------------------------------
   0 Li:   -0.555203    0.322836
   1 S :    0.555203    0.677164

----------------------------------------------------
LOEWDIN REDUCED ORBITAL CHARGES AND SPIN POPULATIONS
----------------------------------------------------
CHARGE
  0 Lis       :     2.292152  s :     2.292152
      pz      :     0.373457  p :     0.896247
      px      :     0.298612
      py      :     0.224178
      dz2     :     0.142268  d :     0.264790
      dxz     :     0.068354
      dyz     :     0.054107
      dx2y2   :     0.000008
      dxy     :     0.000054
      f0      :     0.045593  f :     0.095838
      f+1     :     0.027327
      f-1     :     0.022588
      f+2     :     0.000039
      f-2     :     0.000253
      f+3     :     0.000003
      f-3     :     0.000035
      g0      :     0.003339  g :     0.006175
      g+1     :     0.001566
      g-1     :     0.001266
      g+2     :     0.000000
      g-2     :     0.000002
      g+3     :     0.000000
      g-3     :     0.000001
      g+4     :     0.000000
      g-4     :     0.000000

  1 S s       :     5.480982  s :     5.480982
      pz      :     3.629666  p :     9.930672
      px      :     3.286811
      py      :     3.014194
      dz2     :     0.024019  d :     0.025491
      dxz     :     0.000200
      dyz     :     0.000157
      dx2y2   :     0.000150
      dxy     :     0.000965
      f0      :     0.006032  f :     0.006794
      f+1     :     0.000127
      f-1     :     0.000130
      f+2     :     0.000024
      f-2     :     0.000153
      f+3     :     0.000065
      f-3     :     0.000262
      g0      :     0.000777  g :     0.000797
      g+1     :     0.000006
      g-1     :     0.000006
      g+2     :     0.000000
      g-2     :     0.000003
      g+3     :     0.000000
      g-3     :     0.000000
      g+4     :     0.000002
      g-4     :     0.000002
      h0      :     0.000059  h :     0.000061
      h+1     :     0.000001
      h-1     :     0.000001
      h+2     :     0.000000
      h-2     :     0.000000
      h+3     :     0.000000
      h-3     :     0.000000
      h+4     :     0.000000
      h-4     :     0.000000
      h+5     :     0.000000
      h-5     :     0.000000


SPIN
  0 Lis       :     0.050687  s :     0.050687
      pz      :     0.010474  p :     0.219202
      px      :     0.083949
      py      :     0.124779
      dz2     :    -0.001326  d :     0.033065
      dxz     :     0.008260
      dyz     :     0.026160
      dx2y2   :    -0.000004
      dxy     :    -0.000025
      f0      :     0.000607  f :     0.018949
      f+1     :     0.006037
      f-1     :     0.012600
      f+2     :    -0.000036
      f-2     :    -0.000229
      f+3     :    -0.000000
      f-3     :    -0.000031
      g0      :    -0.000017  g :     0.000932
      g+1     :     0.000280
      g-1     :     0.000670
      g+2     :     0.000000
      g-2     :     0.000000
      g+3     :     0.000000
      g-3     :    -0.000001
      g+4     :    -0.000000
      g-4     :    -0.000000

  1 S s       :    -0.001308  s :    -0.001308
      pz      :    -0.057637  p :     0.679558
      px      :     0.218306
      py      :     0.518889
      dz2     :    -0.000234  d :    -0.000741
      dxz     :     0.000034
      dyz     :     0.000080
      dx2y2   :    -0.000083
      dxy     :    -0.000537
      f0      :    -0.000243  f :    -0.000360
      f+1     :     0.000014
      f-1     :     0.000077
      f+2     :    -0.000013
      f-2     :    -0.000085
      f+3     :     0.000043
      f-3     :    -0.000153
      g0      :     0.000015  g :     0.000013
      g+1     :     0.000001
      g-1     :     0.000004
      g+2     :    -0.000000
      g-2     :    -0.000002
      g+3     :     0.000000
      g-3     :    -0.000000
      g+4     :    -0.000002
      g-4     :    -0.000002
      h0      :     0.000001  h :     0.000002
      h+1     :     0.000000
      h-1     :     0.000001
      h+2     :     0.000000
      h-2     :     0.000000
      h+3     :    -0.000000
      h-3     :    -0.000000
      h+4     :    -0.000000
      h-4     :    -0.000000
      h+5     :    -0.000000
      h-5     :    -0.000000



                      *****************************
                      * MAYER POPULATION ANALYSIS *
                      *****************************

  NA   - Mulliken gross atomic population
  ZA   - Total nuclear charge
  QA   - Mulliken gross atomic charge
  VA   - Mayer's total valence
  BVA  - Mayer's bonded valence
  FA   - Mayer's free valence

  ATOM       NA         ZA         QA         VA         BVA        FA
  0 Li     2.9284     3.0000     0.0716     1.5518     1.5175     0.0343
  1 S     16.0716    16.0000    -0.0716     2.2945     1.5175     0.7769

  Mayer bond orders larger than 0.100000
B(  0-Li,  1-S ) :   1.5175 

-------
TIMINGS
-------

Total SCF time: 0 days 0 hours 0 min 20 sec 

Total time                  ....      20.201 sec
Sum of individual times     ....      19.627 sec  ( 97.2%)

SCF preparation             ....       0.097 sec  (  0.5%)
Fock matrix formation       ....      18.010 sec  ( 89.2%)
  Startup                   ....       0.037 sec  (  0.2% of F)
  Coulomb formation         ....      16.392 sec  ( 91.0% of F)
  XC integration            ....       1.310 sec  (  7.3% of F)
    XC Preparation          ....       0.000 sec  (  0.0% of XC)
    Basis function eval.    ....       0.087 sec  (  6.6% of XC)
    Density eval.           ....       0.117 sec  (  8.9% of XC)
    XC-Functional eval.     ....       0.034 sec  (  2.6% of XC)
    XC-Potential eval.      ....       0.360 sec  ( 27.5% of XC)
Diagonalization             ....       0.000 sec  (  0.0%)
Density matrix formation    ....       0.242 sec  (  1.2%)
Total Energy calculation    ....       0.072 sec  (  0.4%)
Population analysis         ....       0.015 sec  (  0.1%)
Orbital Transformation      ....       0.039 sec  (  0.2%)
Orbital Orthonormalization  ....       0.000 sec  (  0.0%)
DIIS solution               ....       0.831 sec  (  4.1%)
SOSCF solution              ....       0.322 sec  (  1.6%)
Finished LeanSCF after  20.2 sec

Maximum memory used throughout the entire LEANSCF-calculation: 82.7 MB


           ************************************************************
           *        Program running with 8 parallel MPI-processes     *
           *              working on a common directory               *
           ************************************************************

------------------------------------------------------------------------------
                         ORCA PROPERTY INTEGRAL CALCULATIONS
------------------------------------------------------------------------------

GBWName                                   ... /cluster/projects/nn14654k/ylvaos/basis_set_n_funcs/functionals/gga_c_N12/LiS/inp/LiS_gga_c_N12_pcseg4.gbw
Number of atoms                           ...      2
Number of basis functions                 ...    161
Max core memory                           ...   4096 MB

Dipole integrals                          ... YES
Quadrupole integrals                      ... YES
Linear momentum integrals                 ...  NO
Angular momentum integrals                ...  NO
Higher moments length integrals           ...  NO
Higher moments velocity integrals         ...  NO
Kinetic energy integrals                  ...  NO
GIAO right hand sides                     ...  NO
GIAO dipole derivative integrals          ...  NO
SOC integrals                             ...  NO
EPR diamagnetic integrals (GIAO)          ...  NO
EPR gauge integrals                       ...  NO
Field gradient integrals                  ...  NO (   0 nuclei)
Spin-dipole/Fermi contact integrals       ...  NO (   0 nuclei)
Contact density integrals                 ...  NO (   0 nuclei)
Nucleus-orbit integrals                   ...  NO (   0 nuclei)
Geometric perturbations                   ...  NO (   2 nuclei)

Choice of electric origin   ... Center of mass
Position of electric origin ... (  0.0000,  0.0000,  1.3082) 
Choice of magnetic origin   ... GIAO
Position of magnetic origin ... (  0.0000,  0.0000,  0.0000) 

Calculating integrals                     ... Electric Dipole (Length)     done (  0.0 sec)
Calculating integrals                     ... Electric Quadrupole (Length) done (  0.0 sec)

Property integrals calculated in   0.0 sec

Maximum memory used throughout the entire PROPINT-calculation: 17.1 MB
------------------------------------------------------------------------------
                           ORCA ORBITAL LOCALIZATION
------------------------------------------------------------------------------

Input orbitals are from                  ... /cluster/projects/nn14654k/ylvaos/basis_set_n_funcs/functionals/gga_c_N12/LiS/inp/LiS_gga_c_N12_pcseg4.gbw
Output orbitals are to                   ... /cluster/projects/nn14654k/ylvaos/basis_set_n_funcs/functionals/gga_c_N12/LiS/inp/LiS_gga_c_N12_pcseg4.loc
Max. number of iterations                ... 128
Localizations seeded randomly            ... on
Convergence tolerance                    ... 1.000e-06
Threshold for strong local MOs           ... 9.500e-01
Threshold for bond MOs                   ... 8.500e-01
Operator                                 ... 0
Orbital range for localization           ... 2 to 9
Localization criterion                   ... NEW-BOYS
Doing the dipole integrals               ... o.k.
Initial value of the localization sum :    13.359768
ITERATION   0 : L=   16.4088978870 DL=  3.05e+00 (AVERGE_DL)=    0.3299961954 
ITERATION   1 : L=   17.4692778338 DL=  1.06e+00 (AVERGE_DL)=    0.1946039886 
ITERATION   2 : L=   17.6093322799 DL=  1.40e-01 (AVERGE_DL)=    0.0707244265 
ITERATION   3 : L=   17.6182104896 DL=  8.88e-03 (AVERGE_DL)=    0.0178067099 
ITERATION   4 : L=   17.6196993839 DL=  1.49e-03 (AVERGE_DL)=    0.0072921052 
ITERATION   5 : L=   17.6198995587 DL=  2.00e-04 (AVERGE_DL)=    0.0026737796 
ITERATION   6 : L=   17.6199342963 DL=  3.47e-05 (AVERGE_DL)=    0.0011138356 
ITERATION   7 : L=   17.6199403641 DL=  6.07e-06 (AVERGE_DL)=    0.0004655169 
ITERATION   8 : L=   17.6199416589 DL=  1.29e-06 (AVERGE_DL)=    0.0002150417 
ITERATION   9 : L=   17.6199420544 DL=  3.96e-07 (AVERGE_DL)=    0.0001188498 
LOCALIZATION SUM CONVERGED


--------------------------------------------------------------------------------
                    LOCALIZED MOLECULAR ORBITAL COMPOSITIONS
--------------------------------------------------------------------------------

The Mulliken populations for each LMO on each atom are computed
The LMO`s will be ordered according to atom index and type
  (A) Strongly localized MO`s have populations of >=0.950 on one atom
  (B) Two center bond orbitals have populations of >=0.850 on two atoms
  (C) Other MO`s are considered to be `delocalized`

FOUND  -   5 strongly local MO`s
       -   3 two center bond MO`s
       -   0 significantly delocalized MO`s

Rather strongly localized orbitals:
MO   6:   1S  -   0.956893
MO   5:   1S  -   0.999597
MO   4:   1S  -   0.999510
MO   3:   1S  -   0.999490
MO   2:   0Li -   1.004215
Bond-like localized orbitals:
MO   9:   1S  -   0.815403  and   0Li -   0.184597
MO   8:   1S  -   0.815848  and   0Li -   0.184152
MO   7:   1S  -   0.852427  and   0Li -   0.147573
Localized MO's were stored in: /cluster/projects/nn14654k/ylvaos/basis_set_n_funcs/functionals/gga_c_N12/LiS/inp/LiS_gga_c_N12_pcseg4.loc
------------------------------------------------------------------------------
                           ORCA ORBITAL LOCALIZATION
------------------------------------------------------------------------------

Input orbitals are from                  ... /cluster/projects/nn14654k/ylvaos/basis_set_n_funcs/functionals/gga_c_N12/LiS/inp/LiS_gga_c_N12_pcseg4.loc
Output orbitals are to                   ... /cluster/projects/nn14654k/ylvaos/basis_set_n_funcs/functionals/gga_c_N12/LiS/inp/LiS_gga_c_N12_pcseg4.loc
Max. number of iterations                ... 128
Localizations seeded randomly            ... on
Convergence tolerance                    ... 1.000e-06
Threshold for strong local MOs           ... 9.500e-01
Threshold for bond MOs                   ... 8.500e-01
Operator                                 ... 1
Orbital range for localization           ... 2 to 8
Localization criterion                   ... NEW-BOYS
Doing the dipole integrals               ... o.k.
Initial value of the localization sum :    13.433387
ITERATION   0 : L=   15.7743278385 DL=  2.34e+00 (AVERGE_DL)=    0.3338762855 
ITERATION   1 : L=   17.1853529207 DL=  1.41e+00 (AVERGE_DL)=    0.2592135617 
ITERATION   2 : L=   17.4230693192 DL=  2.38e-01 (AVERGE_DL)=    0.1063946827 
ITERATION   3 : L=   17.4358671924 DL=  1.28e-02 (AVERGE_DL)=    0.0246864848 
ITERATION   4 : L=   17.4372695155 DL=  1.40e-03 (AVERGE_DL)=    0.0081717373 
ITERATION   5 : L=   17.4374162800 DL=  1.47e-04 (AVERGE_DL)=    0.0026436316 
ITERATION   6 : L=   17.4374321456 DL=  1.59e-05 (AVERGE_DL)=    0.0008691979 
ITERATION   7 : L=   17.4374338637 DL=  1.72e-06 (AVERGE_DL)=    0.0002860283 
ITERATION   8 : L=   17.4374340501 DL=  1.86e-07 (AVERGE_DL)=    0.0000942277 
LOCALIZATION SUM CONVERGED


--------------------------------------------------------------------------------
                    LOCALIZED MOLECULAR ORBITAL COMPOSITIONS
--------------------------------------------------------------------------------

The Mulliken populations for each LMO on each atom are computed
The LMO`s will be ordered according to atom index and type
  (A) Strongly localized MO`s have populations of >=0.950 on one atom
  (B) Two center bond orbitals have populations of >=0.850 on two atoms
  (C) Other MO`s are considered to be `delocalized`

FOUND  -   5 strongly local MO`s
       -   2 two center bond MO`s
       -   0 significantly delocalized MO`s

Rather strongly localized orbitals:
MO   6:   1S  -   0.999835
MO   5:   1S  -   0.999870
MO   4:   1S  -   0.999870
MO   3:   1S  -   0.986469
MO   2:   0Li -   1.002968
Bond-like localized orbitals:
MO   8:   1S  -   0.819330  and   0Li -   0.180670
MO   7:   1S  -   0.819321  and   0Li -   0.180679
Localized MO's were stored in: /cluster/projects/nn14654k/ylvaos/basis_set_n_funcs/functionals/gga_c_N12/LiS/inp/LiS_gga_c_N12_pcseg4.loc

-------------------------   --------------------
FINAL SINGLE POINT ENERGY      -379.968384959277
-------------------------   --------------------



           ************************************************************
           *        Program running with 8 parallel MPI-processes     *
           *              working on a common directory               *
           ************************************************************

------------------------------------------------------------------------------
                              ORCA PROPERTY CALCULATIONS
------------------------------------------------------------------------------

GBWName                                 ... /cluster/projects/nn14654k/ylvaos/basis_set_n_funcs/functionals/gga_c_N12/LiS/inp/LiS_gga_c_N12_pcseg4.gbw
Number of atoms                         ...      2
Number of basis functions               ...    161
Max core memory                         ...   4096 MB

Electric properties:
Dipole moment                           ... YES
Quadrupole moment                       ... YES
Static polarizability (Dipole/Dipole)   ...  NO
Static polarizability (Dipole/Quad.)    ...  NO
Static polarizability (Quad./Quad.)     ...  NO
Static polarizability (Velocity)        ...  NO
Static hyperpolarizability              ...  NO

Atomic electric properties:
Dipole moment                           ...  NO
Quadrupole moment                       ...  NO
Static polarizability                   ...  NO

Choice of electric origin               ... Center of mass
Position of electric origin             ...     0.000000     0.000000     1.308198

General magnetic properties:
Magnetizability                         ...  NO

EPR properties:
g-Tensor (aka g-matrix)                 ...  NO
Zero-Field splitting spin-orbit         ...  NO
Zero-field splitting spin-spin          ...  NO
Hyperfine couplings                     ...  NO (   0 nuclei)
Quadrupole couplings                    ...  NO (   0 nuclei)
Contact density                         ...  NO (   0 nuclei)

NMR properties:
Chemical shifts                         ...  NO (   0 nuclei)
Spin-rotation constants                 ...  NO (   0 nuclei)
Spin-spin couplings                     ...  NO (   0 nuclei,    0 pairs)

Choice of magnetic origin               ... GIAO
Position of magnetic origin             ...     0.000000     0.000000     0.000000

Properties with geometric perturbations:
SCF Hessian                             ...  NO
IR spectrum                             ...  NO
VCD spectrum                            ...  NO
X-ray spectroscopy properties:
SCF XES/XAS/RIXS spectra                ...  NO

SCF SOC stabilization energy            ...  NO
Diagonal Born-Oppenheimer correction    ...  NO

-------------
DIPOLE MOMENT
-------------

Method             : SCF
Type of density    : Electron Density
Multiplicity       :   2
Irrep              :   0
Energy             :  -379.9683849592769320 Eh
Basis              : AO
                                X                 Y                 Z
Electronic contribution:      0.000000015       0.000000031      -3.123667277
Nuclear contribution   :      0.000000000       0.000000000       1.549484202
                        -----------------------------------------
Total Dipole Moment    :      0.000000015       0.000000031      -1.574183075
                        -----------------------------------------
Magnitude (a.u.)       :      1.574183075
Magnitude (Debye)      :      4.001255391



--------------------
Rotational spectrum 
--------------------
 
Rotational constants in cm-1:             0.000000             0.639339             0.639339 
Rotational constants in MHz :             0.000000         19166.891897         19166.891897 

Dipole components along the rotational axes: 
x,y,z [a.u.] :    -1.574183     0.000000     0.000000 
x,y,z [Debye]:    -4.001255     0.000000     0.000000 

 

Dipole moment calculation done in   0.0 sec 

-----------------
QUADRUPOLE MOMENT
-----------------

Method             : SCF
Type of density    : Electron Density
Multiplicity       :   2
Irrep              :   0
Energy             :  -379.9683849592769320 Eh
Basis              : AO

                XX              YY              ZZ              XY              XZ              YZ
  NUC        0.000000000     0.000000000    41.817245673     0.000000000     0.000000000     0.000000000
  EL       -22.807268846   -21.247053844   -56.397354596     1.979441737     0.000000015    -0.000000106
  TOT      -22.807268846   -21.247053844   -14.580108923     1.979441737     0.000000015    -0.000000106 (a.u.)
           -30.676556606   -28.578014069   -19.610745141     2.662416833     0.000000020    -0.000000143 (Buckingham)

diagonalized tensor:
           -24.154779098   -19.899543592   -14.580108923 (a.u.)
           -32.489003980   -26.765566695   -19.610745141 (Buckingham)
           -18.601696125    -1.431384269    20.033080393 (traceless form in Buckingham)

            -0.826637083     0.562735403    -0.000000002
             0.562735403     0.826637083    -0.000000017
             0.000000008     0.000000015     1.000000000
        
Isotropic quadrupole :   -19.544810538

Quadrupole moment calculation done in   0.0 sec (  0.0 sec for integrals)

Maximum memory used throughout the entire PROP-calculation: 9.6 MB

--------------------------------
SUGGESTED CITATIONS FOR THIS RUN
--------------------------------

Below you find a list of papers that are relevant to this ORCA run
We neither can nor want to force you to cite these papers, but we appreciate if you do
You receive ORCA, which is the product of decades of hard work by many enthusiastic individuals, for free
The only thing we kindly ask in return is that you cite our papers,
We deeply appreciate it, if you show your appreciation for ORCA by not just citing the generic ORCA reference.

Please note that relegating all ORCA citations to the supporting information does *not* help us.
SI sections are not indexed - citations you put there will not count into any citation statistics
But we need these citations in order to attract the funding resources that allow us to do what we are doing

Therefore, if you are a happy ORCA user, please consider citing a few of the papers listed below in the main body of your paper

In addition to the list printed below, the program has created the file /cluster/projects/nn14654k/ylvaos/basis_set_n_funcs/functionals/gga_c_N12/LiS/inp/LiS_gga_c_N12_pcseg4.bibtex that contains the list in bibtex format
You can import this file easily into all common literature databanks and citation aid programs

It goes without saying that in many instances, there are alternative algorithms to achieve similar
results as the ones you have gotten from ORCA. It is, of course, also the case that in some instances
ORCA just re-implements algorithms worked out by others. We are fully aware of that and we are also
fully appreciative of our colleagues work. Hence this citation list should not be read as indicating
that the listed papers, which are focused on our own work, are the only ones worth citing. It simply
meant to make it easier for users to cite ORCA specific papers. It is not a substitute for doing your
own literature research and citing the relevant literature in a scientifically appropriate manner.

List of essential papers. We consider these as the minimum necessary citations

  1. Neese, F.
     Software update: the ORCA program system, version 6.0
     WIRES Comput. Molec. Sci. 2025 15(1), e70019
     doi.org/10.1002/wcms.70019

List of papers to cite with high priority. The work reported in these papers was absolutely
necessary for this run to complete.
Our perspective: the developers of density functionals and basis sets usually get cited in chemistry papers
Good! But without the algorithms to do something with them, the functionals or basis sets would not do anything.
Hence, in our opinion, the algorithm design and method developments papers are equally worthy of getting cited

  1. Lehtola, S.; Steigemann, C.; Oliveira, M.; Marques, M.
     Recent developments in Libxc - A comprehensive library of functionals for density functional theory
     Software X 2018 7 , 
     doi.org/10.1016/j.softx.2017.11.002
  2. Neese, F.
     The SHARK Integral Generation and Digestion System
     J. Comp. Chem. 2022 44(3), 381
     doi.org/10.1002/jcc.26942

List of suggested additional citations. These are papers that are important in the 'surrounding' of 
of this run, or papers that preceded the highly important papers. If you like your results we are grateful for a citation.

  1. Neese, F.
     The ORCA program system
     WIRES Comput. Molec. Sci. 2012 2(1), 73-78
     doi.org/10.1002/wcms.81
  2. Neese, F.
     Software update: the ORCA program system, version 4.0
     WIRES Comput. Molec. Sci. 2018 8(1), 1-6
     doi.org/10.1002/wcms.1327
  3. Neese, F.; Wennmohs, F.; Becker, U.; Riplinger, C.
     The ORCA quantum chemistry program package
     J. Chem. Phys. 2020 152(22), 224108
     doi.org/10.1063/5.0004608
  4. Neese, F.
     Software update: The ORCA program system—Version 5.0
     WIRES Comput. Molec. Sci. 2022 12(1), e1606
     doi.org/10.1002/wcms.1606

List of optional additional citations

  1. Neese, F.
     Approximate second-order SCF convergence for spin unrestricted wavefunctions
     Chem. Phys. Lett. 2000 325(1-3), 93-98
     doi.org/10.1016/s0009-2614(00)00662-x

Timings for individual modules:

Sum of individual times          ...       21.861 sec (=   0.364 min)
Startup calculation              ...        0.527 sec (=   0.009 min)   2.4 %
SCF iterations                   ...       20.764 sec (=   0.346 min)  95.0 %
Property integrals               ...        0.290 sec (=   0.005 min)   1.3 %
Property calculations            ...        0.271 sec (=   0.005 min)   1.2 %
Orbital localization             ...        0.008 sec (=   0.000 min)   0.0 %
                             ****ORCA TERMINATED NORMALLY****
TOTAL RUN TIME: 0 days 0 hours 0 minutes 22 seconds 697 msec
