
                                 *****************
                                 * O   R   C   A *
                                 *****************

                                            #,                                       
                                            ###                                      
                                            ####                                     
                                            #####                                    
                                            ######                                   
                                           ########,                                 
                                     ,,################,,,,,                         
                               ,,#################################,,                 
                          ,,##########################################,,             
                       ,#########################################, ''#####,          
                    ,#############################################,,   '####,        
                  ,##################################################,,,,####,       
                ,###########''''           ''''###############################       
              ,#####''   ,,,,##########,,,,          '''####'''          '####       
            ,##' ,,,,###########################,,,                        '##       
           ' ,,###''''                  '''############,,,                           
         ,,##''                                '''############,,,,        ,,,,,,###''
      ,#''                                            '''#######################'''  
     '                                                          ''''####''''         
             ,#######,   #######,   ,#######,      ##                                
            ,#'     '#,  ##    ##  ,#'     '#,    #''#        ,####,    ,#,          
            ##       ##  ##   ,#'  ##            #'  '#       #'       ,# #          
            ##       ##  #######   ##           ,######,      #####,      #          
            '#,     ,#'  ##    ##  '#,     ,#' ,#      #,     #,   #      #          
             '#######'   ##     ##  '#######'  #'      '#     '####' #    #          



                #########################################################
                #                        -***-                          #
                #          Department of theory and spectroscopy        #
                #                                                       #
                #                      Frank Neese                      #
                #                                                       #
                #     Directorship, Architecture, Infrastructure        #
                #                    SHARK, DRIVERS                     #
                #        Core code/Algorithms in most modules           #
                #                                                       #
                #        Max Planck Institute fuer Kohlenforschung      #
                #                Kaiser Wilhelm Platz 1                 #
                #                 D-45470 Muelheim/Ruhr                 #
                #                      Germany                          #
                #                                                       #
                #                  All rights reserved                  #
                #                        -***-                          #
                #########################################################


                         Program Version 6.1.1  -  RELEASE   -
                                (GIT: $487d211c$)
                          ($2025-11-21 10:33:24 +0100$)


 With contributions from (in alphabetic order):
[Max-Planck-Institut fuer Kohlenforschung]                               
  Daniel Aravena         : Magnetic Suceptibility                        
  Michael Atanasov       : Ab Initio Ligand Field Theory (pilot matlab implementation)
  Alexander A. Auer      : GIAO ZORA, VPT2 properties, NMR spectrum      
  Ute Becker             : All parallelization in ORCA, NUMFREQ, NUMCALC 
  Giovanni Bistoni       : ED, misc. LED, open-shell LED, HFLD           
  Dmytro Bykov           : pre 5.0 version of the SCF Hessian            
  Marcos Casanova-Páez   : Triplet and SCS-CIS(D). UHF-(DLPNO)-IP/EA/STEOM-CCSD. UHF-CVS-IP/STEOM-CCSD   
  Vijay G. Chilkuri      : MRCI spin determinant printing, contributions to CSF-ICE 
  Pauline Colinet        : FMM embedding                                 
  Dipayan Datta          : RHF DLPNO-CCSD density                        
  Achintya Kumar Dutta   : EOM-CC, STEOM-CC                              
  Nicolas Foglia         : Exact transition moments, OPA infrastructure, MCD improvements    
  Dmitry Ganyushin       : Spin-Orbit,Spin-Spin,Magnetic field MRCI      
  Miquel Garcia-Rates    : C-PCM and meta-GGA Hessian, CCSD/C-PCM, Gaussian charge scheme 
  Tiago L. C. Gouveia    : GS-ROHF, GS-ROCIS                             
  Yang Guo               : DLPNO-NEVPT2, F12-NEVPT2, CIM, IAO-localization        
  Andreas Hansen         : Spin unrestricted coupled pair/coupled cluster methods 
  Ingolf Harden          : AUTO-CI MPn and infrastructure                
  Benjamin Helmich-Paris : MC-RPA, TRAH-(SCF,CASSCF), AVAS, COSX integrals, SCF dyn. polar., MC-PDFT, srDFT 
  Lee Huntington         : MR-EOM, pCC                                   
  Robert Izsak           : Overlap fitted RIJCOSX, COSX-SCS-MP3, EOM     
  Riya Kayal             : Wick's Theorem for AUTO-CI, AUTO-CI UHF-CCSDT 
  Emily Kempfer          : AUTO-CI RHF CISDT and CCSDT, approximate NEVPT4
  Christian Kollmar      : KDIIS, OOCD, Brueckner-CCSD(T), CCSD density, CASPT2, CASPT2-K, improved NEVPT2 
  Axel Koslowski         : Symmetry handling                             
  Simone Kossmann        : meta-GGA functionals, TD-DFT gradient, OOMP2, (MP2 Hessian; deprecated post 5.0) 
  Lucas Lang             : DCDCAS, Hyperfine gauge corrections, ICE-SOC+SSC
  Marvin Lechner         : AUTO-CI (C++ implementation), FIC-MRCC        
  Spencer Leger          : CASSCF response                               
  Dagmar Lenk            : GEPOL surface, SMD, ORCA-2-JSON               
  Dimitrios Liakos       : Extrapolation schemes; Compound Job, Property file
  Dimitrios Manganas     : Further ROCIS development; embedding schemes. LFT, Crystal Embedding 
  Dimitrios Pantazis     : SARC Basis sets                               
  Anastasios Papadopoulos: AUTO-CI, single reference methods and gradients 
  Taras Petrenko         : pre 6.0 DFT Hessian and TD-DFT gradient,  ECA, NRVS 
  Petra Pikulova         : Analytic Raman intensities                    
  Peter Pinski           : DLPNO-MP2, DLPNO-MP2 Gradient                 
  Shashank Vittal Rao    : ES-AILFT, MagRelax                            
  Christoph Reimann      : Effective Core Potentials                     
  Marius Retegan         : Local ZFS, SOC                                
  Christoph Riplinger    : Optimizer, TS searches, QM/MM, DLPNO-CCSD(T), (RO)-DLPNO pert. Triples 
  Michael Roemelt        : Original ROCIS implementation, recursive CI coupling coefficients
  Masaaki Saitow         : Open-shell DLPNO-CCSD energy and density      
  Barbara Sandhoefer     : DKH picture change effects                    
  Yorick L. A. Schmerwitz: GMF and freeze-and-release deltaSCF, NEB S-IDPP initial path                    
  Kantharuban Sivalingam : CASSCF convergence/infrastructure, NEVPT2, NEVPT3, NEVPT4(SD), FIC-MRCI and CEPA variants
  Bernardo de Souza      : ESD, SOC TD-DFT                               
  Georgi L. Stoychev     : AutoAux, RI-MP2 NMR, DLPNO-MP2 response, X2C  
  Van Anh Tran           : RI-MP2 g-tensors                              
  Willem Van den Heuvel  : Paramagnetic NMR                              
  Zikuan Wang            : NOTCH, Electric field optimization            
  Frank Wennmohs         : Technical directorship and infrastructure     
  Hang Xu                : AUTO-CI-Response properties                   
                                                                         
[FACCTs GmbH]                                                            
  Markus Bursch, Nicolas Foglia, Miquel Garcia-Rates, Ingolf Harden, Hagen Neugebauer, Anastasios Papadopoulos, 
  Christoph Riplinger, Bernardo de Souza, Georgi L. Stoychev                                                    
                                                                 
  APM, various basis sets, CI-OPT, improved COSX, DLPNO-Multilevel,           
  DOCKER, DRACO, updates on ESD, Fragmentator, GOAT, IRC, LR-CPCM, L-BFGS, MBIS, meta-GGA TD-DFT gradient, ML-optimized integration grids, 
  MM, NACMEs, nearIR, NEB, NEB-TS, NL-DFT gradient (VV10), 2- and 3-layer-ONIOM, interface openCOSMO-RS, QMMM,   
  Crystal-QMMM, RESP, rigid body optimization, SF, symmetry and pop. for TD-DFT, various functionals, SOLVATOR                                   
                                                                         
[Other institutions]                                                     
  V. Asgeirsson          : NEB                                           
  Christoph Bannwarth    : sTDA-DFT, sTD-DFT, PBEh-3c, B97-3c, D3        
  Giovanni Bistoni       : ETS/NOCV, ADLD/ADEX, COVALED                  
  Martin Brehm           : Molecular dynamics                            
  Ronald Cardenas        : ETS/NOCV                                      
  Martina Colucci        : COVALED                                       
  Sebastian Ehlert       : rSCAN, r2SCAN, r2SCAN-3c, D4, dhf basis sets  
  Marvin Friede          : D4 for Fr, Ra, Ac-Lr                          
  Lars Goerigk           : TD-DFT with DH, B97 family of functionals     
  Stefan Grimme          : VdW corrections, initial TS optimization, DFT functionals, gCP, sTDA/sTD-DF 
  Waldemar Hujo          : DFT-NL                                        
  H. Jonsson             : NEB                                           
  Holger Kruse           : gCP                                           
  Marcel Mueller         : wB97X-3c, vDZP basis set                      
  Hagen Neugebauer       : wr2SCAN, Native XTB                           
  Gianluca Regni         : ADLD/ADEX                                     
  Tobias Risthaus        : pre 6.0 range-separated hybrid DFT and stability analysis
  Lukas Wittmann         : regularized MP2, r2SCAN double-hybrids, wr2SCAN        
                                                                         
We gratefully acknowledge several colleagues who have allowed us to      
interface, adapt or use parts of their codes:                            
  Ed Valeev, F. Pavosevic, A. Kumar             : LibInt (2-el integral package), F12 methods 
  Garnet Chan, S. Sharma, J. Yang, R. Olivares  : DMRG                   
  Ulf Ekstrom                                   : XCFun DFT Library      
  Mihaly Kallay                                 : mrcc  (arbitrary order and MRCC methods)
  Frank Weinhold                                : gennbo (NPA and NBO analysis)           
  Simon Mueller                                 : openCOSMO-RS                            
  Christopher J. Cramer and Donald G. Truhlar   : smd solvation model                     
  S Lehtola, MJT Oliveira, MAL Marques          : LibXC Library                           
  Liviu Ungur et al                             : ANISO software                          


 Your calculation uses the libint2 library for the computation of 2-el integrals
 For citations please refer to: http://libint.valeyev.net

 Your ORCA version has been built with support for libXC version: 7.0.0
 For citations please refer to: https://libxc.gitlab.io

 This ORCA versions uses:
   CBLAS   interface :  Fast vector & matrix operations
   LAPACKE interface :  Fast linear algebra routines
   SCALAPACK package :  Parallel linear algebra routines
   Shared memory     :  Shared parallel matrices
   BLAS/LAPACK       :  OpenBLAS 0.3.29  USE64BITINT DYNAMIC_ARCH NO_AFFINITY Cooperlake SINGLE_THREADED
        Core in use  :  Cooperlake
   Copyright (c) 2011-2014, The OpenBLAS Project


  ***********************************
  * Starting time: Wed May 20 12:35:45 2026
  * Host name:     c1-41
  * Process ID:    4038910
  * Working dir.:  /cluster/projects/nn14654k/ylvaos/basis_set_n_funcs/functionals/gga_c_N12/LiS/out
  ***********************************

Using LibXC functional ID  80 : Minnesota N12 correlation functional
[ 1]  R. Peverati and D. G. Truhlar.,  J. Chem. Theory Comput. 8, 2310 (2012)
Using LibXC functional ID  80 : Minnesota N12 correlation functional
[ 1]  R. Peverati and D. G. Truhlar.,  J. Chem. Theory Comput. 8, 2310 (2012)
Your calculation utilizes LibXC
by S. Lehtola, C. Steigemann, M. J. T. Oliveira & M. A. L. Marques
Please cite in your paper:
Lehtola, S.; Steigemann, C.; Oliveira, M.J.T.; Marques, M. A. L. Software X, 7, (2018), 1.
   

================================================================================

----- Orbital basis set information -----
Your calculation utilizes the basis: aug-cc-pVTZ 
    H, B-Ne : Obtained from the ccRepo (grant-hill.group.shef.ac.uk/ccrepo) Feb. 2017
              R. A. Kendall, T. H. Dunning, Jr., R. J. Harrison, J. Chem. Phys. 96, 6796 (1992)
         He : Obtained from the ccRepo (grant-hill.group.shef.ac.uk/ccrepo) Feb. 2017
              D. E. Woon, T. H. Dunning, Jr., J. Chem. Phys. 100, 2975 (1994)
  Li-Be, Na : Obtained from the ccRepo (grant-hill.group.shef.ac.uk/ccrepo) Feb. 2017
              B. P. Prascher, D. E. Woon, K. A. Peterson, T. H. Dunning, Jr., A. K. Wilson, Theor. Chem. Acc. 128, 69 (2011)
         Mg : Obtained from the Peterson Research Group Website (tyr0.chem.wsu.edu/~kipeters) Feb. 2017
              B. P. Prascher, D. E. Woon, K. A. Peterson, T. H. Dunning, Jr., A. K. Wilson, Theor. Chem. Acc. 128, 69 (2011)
      Al-Ar : Obtained from the ccRepo (grant-hill.group.shef.ac.uk/ccrepo) Feb. 2017
              D. E. Woon, T. H. Dunning, Jr., J. Chem. Phys. 98, 1358 (1993)
      Sc-Zn : Obtained from the ccRepo (grant-hill.group.shef.ac.uk/ccrepo) Feb. 2017
              N. B. Balabanov, K. A. Peterson, J. Chem. Phys. 123, 064107 (2005)
              N. B. Balabanov, K. A. Peterson, J. Chem. Phys. 125, 074110 (2006)
      Ga-Kr : Obtained from the ccRepo (grant-hill.group.shef.ac.uk/ccrepo) Feb. 2017
              A. K. Wilson, D. E. Woon, K. A. Peterson, T. H. Dunning, Jr., J. Chem. Phys. 110, 7667 (1999)
     Ag, Au : Obtained from the Peterson Research Group Website (tyr0.chem.wsu.edu/~kipeters) Feb. 2017
              K. A. Peterson, C. Puzzarini, Theor. Chem. Acc. 114, 283 (2005)

================================================================================
                                        WARNINGS
                       Please study these warnings very carefully!
================================================================================


WARNING: your system is open-shell and RHF/RKS was chosen
  ===> : WILL SWITCH to UHF/UKS


================================================================================
                                       INPUT FILE
================================================================================
NAME = /cluster/projects/nn14654k/ylvaos/basis_set_n_funcs/functionals/gga_c_N12/LiS/inp/LiS_gga_c_N12_augccpvtz.inp
|  1> ! dft aug-cc-pVTZ TightSCF
|  2> %pal nprocs 8 end
|  3> 
|  4> %loc
|  5>   LocMet NewBoys
|  6>   Occ true
|  7> end
|  8> 
|  9> %method
| 10>   exchange None
| 11>   correlation gga_c_N12
| 12> end
| 13> 
| 14> %elprop
| 15>   Dipole true
| 16>   Quadrupole true
| 17> end
| 18> 
| 19> * xyz 0 2
| 20> Li    0.000000000000   0.000000000000  -1.074850000000
| 21> S    0.000000000000   0.000000000000   1.074850000000
| 22> *
| 23> 
| 24> 
| 25>                          ****END OF INPUT****
================================================================================

                       ****************************
                       * Single Point Calculation *
                       ****************************

---------------------------------
CARTESIAN COORDINATES (ANGSTROEM)
---------------------------------
  Li     0.000000    0.000000   -1.074850
  S      0.000000    0.000000    1.074850

----------------------------
CARTESIAN COORDINATES (A.U.)
----------------------------
  NO LB      ZA    FRAG     MASS         X           Y           Z
   0 Li    3.0000    0     6.941    0.000000    0.000000   -2.031172
   1 S    16.0000    0    32.060    0.000000    0.000000    2.031172

--------------------------------
INTERNAL COORDINATES (ANGSTROEM)
--------------------------------
 Li     0   0   0     0.000000000000     0.00000000     0.00000000
 S      1   0   0     2.149700000000     0.00000000     0.00000000

---------------------------
INTERNAL COORDINATES (A.U.)
---------------------------
 Li     0   0   0     0.000000000000     0.00000000     0.00000000
 S      1   0   0     4.062344270091     0.00000000     0.00000000

---------------------
BASIS SET INFORMATION
---------------------
There are 2 groups of distinct atoms

 Group   1 Type Li  : 21s6p3d2f contracted to 5s4p3d2f pattern {99111/3111/111/11}
 Group   2 Type S   : 42s17p3d2f contracted to 6s5p3d2f pattern {131313111/77111/111/11}

Atom   0Li   basis set group =>   1
Atom   1S    basis set group =>   2


           ************************************************************
           *        Program running with 8 parallel MPI-processes     *
           *              working on a common directory               *
           ************************************************************
------------------------------------------------------------------------------
                             ORCA STARTUP CALCULATIONS
------------------------------------------------------------------------------
------------------------------------------------------------------------------
                   ___                                                        
                  /   \      - P O W E R E D   B Y -                         
                 /     \                                                     
                 |  |  |   _    _      __       _____    __    __             
                 |  |  |  | |  | |    /  \     |  _  \  |  |  /  |          
                  \  \/   | |  | |   /    \    | | | |  |  | /  /          
                 / \  \   | |__| |  /  /\  \   | |_| |  |  |/  /          
                |  |  |   |  __  | /  /__\  \  |    /   |      \           
                |  |  |   | |  | | |   __   |  |    \   |  |\   \          
                \     /   | |  | | |  |  |  |  | |\  \  |  | \   \       
                 \___/    |_|  |_| |__|  |__|  |_| \__\ |__|  \__/        
                                                                              
                      - O R C A' S   B I G   F R I E N D -                    
                                      &                                       
                       - I N T E G R A L  F E E D E R -                       
                                                                              
 v1 FN, 2020, v2 2021, v3 2022-2024                                           
------------------------------------------------------------------------------


----------------------
SHARK INTEGRAL PACKAGE
----------------------

Number of atoms                             ...      2
Number of basis functions                   ...    128
Number of shells                            ...     52
Maximum angular momentum                    ...      3
Integral batch strategy                     ... SHARK/LIBINT Hybrid
RI-J (if used) integral strategy            ... SPLIT-RIJ (Revised 2003 algorithm where possible)
Printlevel                                  ...      1
Contraction scheme used                     ... PARTIAL GENERAL contraction
Prescreening option                         ... SCHWARTZ
   Thresh                                   ... 2.500e-11
   Tcut                                     ... 2.500e-12
   Tpresel                                  ... 2.500e-12 
Coulomb Range Separation                    ... NOT USED
Exchange Range Separation                   ... NOT USED
Multipole approximations                    ... NOT USED
Finite Nucleus Model                        ... NOT USED
CABS basis                                  ... NOT available
Auxiliary Coulomb fitting basis             ... NOT available
Auxiliary J/K fitting basis                 ... NOT available
Auxiliary Correlation fitting basis         ... NOT available
Auxiliary 'external' fitting basis          ... NOT available

Checking pre-screening integrals            ... done (  0.0 sec) Dimension = 52
Save PGC pre-screening integrals            ... done (  0.0 sec) Dimension = 52
Calculate PGC overlap integrals             ... done (  0.0 sec) Dimension = 30
Calculating pre-screening integrals (ORCA)  ... done (  0.0 sec) Dimension = 30
Shell pair information
Shell pair cut-off parameter TPreSel        ...   2.5e-12
Total number of shell pairs                 ...      1378
Shell pairs after pre-screening             ...      1252
Total number of primitive shell pairs       ...      1488
Primitive shell pairs kept                  ...      1346
          la=0 lb=0:    323 shell pairs
          la=1 lb=0:    351 shell pairs
          la=1 lb=1:    105 shell pairs
          la=2 lb=0:    168 shell pairs
          la=2 lb=1:     84 shell pairs
          la=2 lb=2:     21 shell pairs
          la=3 lb=0:    110 shell pairs
          la=3 lb=1:     56 shell pairs
          la=3 lb=2:     24 shell pairs
          la=3 lb=3:     10 shell pairs

Checking whether 4 symmetric matrices of dimension 128 fit in memory
:Max Core in MB      =   4096.00
 MB in use           =      3.24
 MB left             =   4092.76
 MB needed           =      0.25
 Data fit in memory  = YES
Calculating Nuclear repulsion               ... done (  0.0 sec) ENN=     11.815837557985 Eh

Diagonalization of the overlap matrix:
Smallest eigenvalue                        ... 6.724e-04
Time for diagonalization                   ...    0.001 sec
Threshold for overlap eigenvalues          ... 1.000e-07
Number of eigenvalues below threshold      ... 0
Time for construction of square roots      ...    0.002 sec
Total time needed                          ...    0.005 sec

-------------------
DFT GRID GENERATION
-------------------

General Integration Accuracy     IntAcc      ... 4.388
Radial Grid Type                 RadialGrid  ... OptM3 with GC (2021)
Angular Grid (max. ang.)         AngularGrid ... 4 (Lebedev-302)
Angular grid pruning method      GridPruning ... 4 (adaptive)
Weight generation scheme         WeightScheme... mBecke (2022)
Basis function cutoff            BFCut       ... 1.0000e-11
Integration weight cutoff        WCut        ... 1.0000e-14
Partially contracted basis set               ... off
Rotationally invariant grid construction     ... off
Angular grids for H and He will be reduced by one unit
Diffuse basis detected: some atoms will have their outermost
                        angular grid increased by 1.

Total number of grid points                  ...    14126
Total number of batches                      ...      221
Average number of points per batch           ...       63
Average number of grid points per atom       ...     7063

---------------------
SHARK GRID GENERATION
---------------------

General Integration Accuracy     IntAcc      ... 4.388
Radial Grid Type                 RadialGrid  ... OptM3 with GC (2021)
Angular Grid (max. ang.)         AngularGrid ... 4 (Lebedev-302)
Angular grid pruning method      GridPruning ... 4 (adaptive)
Weight generation scheme         WeightScheme... mBecke (2022)
Basis function cutoff            BFCut       ... 1.0000e-11
Integration weight cutoff        WCut        ... 1.0000e-14
Partially contracted basis set               ... off
Rotationally invariant grid construction     ... off
Angular grids for H and He will be reduced by one unit
Diffuse basis detected: some atoms will have their outermost
                        angular grid increased by 1.
Core-polarized basis detected: some atoms will have their core
                               angular grid increased.
Steep s-basis detected: some atoms will have their radial
                        grid points doubled.

Total number of grid points                  ...    33087
Total number of batches                      ...      518
Average number of points per batch           ...       63
Average number of grid points per atom       ...    16544
Grids setup in   0.8 sec
Initializing property integral containers    ... done (  0.0 sec)

SHARK setup successfully completed in   0.9 seconds

Maximum memory used throughout the entire STARTUP-calculation: 48.0 MB


           ************************************************************
           *        Program running with 8 parallel MPI-processes     *
           *              working on a common directory               *
           ************************************************************
-------------------------------------------------------------------------------
                                 ORCA GUESS
                   Start orbitals & Density for SCF / CASSCF
-------------------------------------------------------------------------------

------------
SCF SETTINGS
------------
Hamiltonian:
 Density Functional     Method          .... DFT(GTOs)
 Exchange Functional    Exchange        .... no Exchange
  Functional kind                       .... Correlation
  Functional name                       .... Minnesota N12 correlation functional
  Functional family                     .... GGA
  Functional refs                              
    [ 0] R. Peverati and D. G. Truhlar.,  J. Chem. Theory Comput. 8, 2310 (2012), doi: 10.1021/ct3002656
  Functional external parameters        .... 10
    Parameter  0 _css0      =  1.000000e+00 : u^0 coefficient for same-spin correlation
    Parameter  1 _css1      = -5.531700e+00 : u^1 coefficient for same-spin correlation
    Parameter  2 _css2      =  3.079580e+01 : u^2 coefficient for same-spin correlation
    Parameter  3 _css3      = -5.641960e+01 : u^3 coefficient for same-spin correlation
    Parameter  4 _css4      =  3.212500e+01 : u^4 coefficient for same-spin correlation
    Parameter  5 _cos0      =  1.000000e+00 : u^0 coefficient for opposite-spin correlation
    Parameter  6 _cos1      =  3.245110e+00 : u^1 coefficient for opposite-spin correlation
    Parameter  7 _cos2      = -2.528930e+01 : u^2 coefficient for opposite-spin correlation
    Parameter  8 _cos3      =  1.444070e+01 : u^3 coefficient for opposite-spin correlation
    Parameter  9 _cos4      =  1.968700e+01 : u^4 coefficient for opposite-spin correlation
 Gradients option       PostSCFGGA      .... off


General Settings:
 Integral files         IntName         .... /cluster/projects/nn14654k/ylvaos/basis_set_n_funcs/functionals/gga_c_N12/LiS/inp/LiS_gga_c_N12_augccpvtz
 Hartree-Fock type      HFTyp           .... UHF
 Total Charge           Charge          ....    0
 Multiplicity           Mult            ....    2
 Number of Electrons    NEL             ....   19
 Basis Dimension        Dim             ....   96
 Nuclear Repulsion      ENuc            ....     11.8158375580 Eh

Convergence Acceleration:
 AO-DIIS                CNVDIIS         .... on
   Start iteration      DIISMaxIt       ....    12
   Startup error        DIISStart       ....  0.200000
   # of expansion vecs  DIISMaxEq       ....     5
   Bias factor          DIISBfac        ....   1.050
   Max. coefficient     DIISMaxC        ....  10.000
 MO-DIIS                CNVKDIIS        .... off
 Trust-Rad. Augm. Hess. CNVTRAH         .... auto
   Auto Start mean grad. ratio tolernc. ....  1.125000
   Auto Start start iteration           ....    50
   Auto Start num. interpolation iter.  ....    10
   Max. Number of Micro iterations      ....    24
   Max. Number of Macro iterations      .... Maxiter - #DIIS iter
   Number of Davidson start vectors     ....     2
   Converg. threshold    (grad. norm)   ....   1.000e-05
   Grad. Scal. Fac. for Micro threshold ....   0.100
   Minimum threshold for Micro iter.    ....   1.000e-02
   NR start threshold (gradient norm)   ....   1.000e-04
   Initial trust radius                 ....   0.400
   Minimum AH scaling param. (alpha)    ....   1.000
   Maximum AH scaling param. (alpha)    .... 1000.000
   Quad. conv. algorithm                .... NR
   White noise on init. David. guess    .... on
   Maximum white noise                  ....   0.010
   Pseudo random numbers                .... off
   Inactive MOs                         .... canonical
   Orbital update algorithm             .... Taylor
   Preconditioner                       .... Diag
   Full preconditioner red. dimension   ....   250
 SOSCF                 CNVSOSCF           .... on
   Start iteration     SOSCFMaxIt         ....   150
   Startup grad/error  SOSCFStart         ....  0.003300
   Hessian update      SOSCFHessUp        .... L-BFGS
   Autom. constraints  SOSCFAutoConstrain .... off
 Level Shifting         CNVShift        .... on
   Level shift para.    LevelShift      ....    0.2500
   Turn off err/grad.   ShiftErr        ....    0.0010
 Zerner damping         CNVZerner       .... off
 Static damping         CNVDamp         .... on
   Fraction old density DampFac         ....    0.7000
   Max. Damping (<1)    DampMax         ....    0.9800
   Min. Damping (>=0)   DampMin         ....    0.0000
   Turn off err/grad.   DampErr         ....    0.1000

SCF Procedure:
 Maximum # iterations   MaxIter         ....   125
 SCF integral mode      SCFMode         .... Direct
   Integral package                     .... SHARK and LIBINT hybrid scheme
 Reset frequency        DirectResetFreq ....    20
 Integral Threshold     Thresh          ....  2.500e-11 Eh
 Primitive CutOff       TCut            ....  2.500e-12 Eh

Convergence Tolerance:
 Convergence Check Mode ConvCheckMode   .... Total+1el-Energy
 Convergence forced     ConvForced      .... 0
 Energy Change          TolE            ....  1.000e-08 Eh
 1-El. energy change                    ....  1.000e-05 Eh
 Orbital Gradient       TolG            ....  1.000e-05
 Orbital Rotation angle TolX            ....  1.000e-05
 DIIS Error             TolErr          ....  5.000e-07

------------------------------
INITIAL GUESS: MODEL POTENTIAL
------------------------------
Loading Hartree-Fock densities                     ... done
Calculating cut-offs                               ... done
Initializing the effective Hamiltonian             ... done
Setting up the integral package (SHARK)            ... done
Starting the Coulomb interaction                   ... done (   0.0 sec)
Making the grid                                    ... done (   0.0 sec)
Mapping shells                                     ... done
Starting the XC term evaluation                    ... done (   0.0 sec)
  promolecular density results
     # of electrons  =     18.999681821
     EX              =      0.000000000
     EC              =     -1.157889371
     EX+EC           =     -1.157889371
Transforming the Hamiltonian                       ... done (   0.0 sec)
Diagonalizing the Hamiltonian                      ... done (   0.0 sec)
Back transforming the eigenvectors                 ... done (   0.0 sec)
Now organizing SCF variables                       ... done
                      ------------------
                      INITIAL GUESS DONE (   0.1 sec)
                      ------------------
             **** ENERGY FILE WAS UPDATED (/cluster/projects/nn14654k/ylvaos/basis_set_n_funcs/functionals/gga_c_N12/LiS/inp/LiS_gga_c_N12_augccpvtz.en.tmp) ****
Finished Guess after   0.1 sec
Maximum memory used throughout the entire GUESS-calculation: 7.1 MB


           ************************************************************
           *        Program running with 8 parallel MPI-processes     *
           *              working on a common directory               *
           ************************************************************

-------------------------------------------------------------------------------------------
                                      ORCA LEAN-SCF
                              memory conserving SCF solver
-------------------------------------------------------------------------------------------

----------------------------------------D-I-I-S--------------------------------------------
Iteration    Energy (Eh)           Delta-E    RMSDP     MaxDP     DIISErr   Damp  Time(sec)
-------------------------------------------------------------------------------------------
               ***  Starting incremental Fock matrix formation  ***
    1    -376.6310993688006192     0.00e+00  6.22e-02  6.21e-01  3.73e-01  0.700   0.2
Warning: op=1 Small HOMO/LUMO gap (  -0.067) - skipping pre-diagonalization
         Will do a full diagonalization
    2    -378.4922596337936511    -1.86e+00  4.34e-02  4.34e-01  1.62e-01  0.700   0.2
                               ***Turning on AO-DIIS***
    3    -379.2022063948042501    -7.10e-01  3.05e-02  3.04e-01  8.06e-02  0.700   0.2
    4    -379.5092305294999164    -3.07e-01  7.18e-02  7.10e-01  5.97e-02  0.000   0.2
    5    -379.8102698322413744    -3.01e-01  3.56e-03  2.48e-02  8.71e-02  0.000   0.3
    6    -379.8473409971893489    -3.71e-02  4.72e-03  5.28e-02  7.56e-02  0.000   0.3
    7    -379.8723983939210598    -2.51e-02  4.25e-03  3.68e-02  6.94e-02  0.000   0.3
    8    -379.8882518058935034    -1.59e-02  3.80e-03  3.83e-02  6.21e-02  0.000   0.3
    9    -379.8996682196828374    -1.14e-02  6.56e-03  4.73e-02  5.70e-02  0.000   0.2
   10    -379.9290028532746533    -2.93e-02  4.28e-03  4.61e-02  2.69e-02  0.000   0.3
   11    -379.9367190089370183    -7.72e-03  2.87e-03  3.79e-02  1.92e-02  0.000   0.2
   12    -379.9397187528795712    -3.00e-03  1.51e-03  1.28e-02  1.37e-02  0.000   0.2
   13    -379.9409727069875089    -1.25e-03  1.23e-03  1.40e-02  1.12e-02  0.000   0.2
   14    -379.9417556858998637    -7.83e-04  1.92e-03  2.87e-02  9.19e-03  0.000   0.2
   15    -379.9423816508911500    -6.26e-04  1.76e-03  2.67e-02  6.83e-03  0.000   0.4
   16    -379.9427596087627421    -3.78e-04  1.17e-03  1.61e-02  5.45e-03  0.000   0.3
   17    -379.9429847645442351    -2.25e-04  7.85e-04  1.05e-02  4.17e-03  0.000   0.2
   18    -379.9431196149929519    -1.35e-04  5.84e-04  7.35e-03  3.39e-03  0.000   0.4
                              *** Initializing SOSCF ***
---------------------------------------S-O-S-C-F--------------------------------------
Iteration    Energy (Eh)           Delta-E    RMSDP     MaxDP     MaxGrad    Time(sec)
--------------------------------------------------------------------------------------
   19    -379.9432038957831992    -8.43e-05  4.44e-04  5.37e-03  2.81e-03     0.3
               *** Restarting incremental Fock matrix formation ***
   20    -379.9432528721842459    -4.90e-05  9.04e-04  7.94e-03  2.90e-03     0.2
   21    -379.9432537008029271    -8.29e-07  3.57e-04  2.70e-03  2.40e-03     0.2
   22    -379.9433936341933418    -1.40e-04  3.77e-04  2.84e-03  8.23e-04     0.2
   23    -379.9434240551690323    -3.04e-05  8.99e-04  6.80e-03  7.41e-04     0.3
   24    -379.9434503998145942    -2.63e-05  3.25e-04  3.02e-03  3.91e-04     0.2
   25    -379.9434560490511217    -5.65e-06  4.91e-04  4.41e-03  2.21e-04     0.2
   26    -379.9434595444161005    -3.50e-06  1.20e-04  1.18e-03  1.43e-04     0.2
   27    -379.9434602348271710    -6.90e-07  1.78e-04  2.55e-03  8.74e-05     0.2
   28    -379.9434605533181752    -3.18e-07  1.03e-04  1.26e-03  3.88e-05     0.2
   29    -379.9434606311318703    -7.78e-08  5.30e-05  5.30e-04  2.77e-05     0.4
   30    -379.9434606621493344    -3.10e-08  2.06e-05  2.04e-04  1.25e-05     0.3
   31    -379.9434606710466369    -8.90e-09  1.68e-05  2.23e-04  5.23e-06     0.3
                 **** Energy Check signals convergence ****

               *****************************************************
               *                     SUCCESS                       *
               *           SCF CONVERGED AFTER  31 CYCLES          *
               *****************************************************

             **** ENERGY FILE WAS UPDATED (/cluster/projects/nn14654k/ylvaos/basis_set_n_funcs/functionals/gga_c_N12/LiS/inp/LiS_gga_c_N12_augccpvtz.en.tmp) ****

----------------
TOTAL SCF ENERGY
----------------

Total Energy       :       -379.94346067329747 Eh          -10338.78718 eV

Components:
Nuclear Repulsion  :         11.81583755798484 Eh             321.52529 eV
Electronic Energy  :       -391.75929823128229 Eh          -10660.31246 eV
One Electron Energy:       -572.34051899119868 Eh          -15574.17730 eV
Two Electron Energy:        180.58122075991642 Eh            4913.86483 eV

Virial components:
Potential Energy   :       -769.39126706620652 Eh          -20936.20075 eV
Kinetic Energy     :        389.44780639290906 Eh           10597.41357 eV
Virial Ratio       :          1.97559532865869

DFT components:
N(Alpha)           :        9.998317759239 electrons
N(Beta)            :        8.999219937165 electrons
N(Total)           :       18.997537696404 electrons
E(X)               :        0.000000000000 Eh       
E(C)               :       -1.122027932504 Eh       
E(XC)              :       -1.122027932504 Eh       

---------------
SCF CONVERGENCE
---------------

  Last Energy change         ...    8.8973e-09  Tolerance :   1.0000e-08
  Last MAX-Density change    ...    2.2321e-04  Tolerance :   1.0000e-07
  Last RMS-Density change    ...    1.6806e-05  Tolerance :   5.0000e-09
  Last DIIS Error            ...    2.8131e-03  Tolerance :   5.0000e-07
  Last Orbital Gradient      ...    5.2303e-06  Tolerance :   1.0000e-05
  Last Orbital Rotation      ...    5.4559e-05  Tolerance :   1.0000e-05


----------------------
UHF SPIN CONTAMINATION
----------------------

Warning: in a DFT calculation there is little theoretical justification to 
         calculate <S**2> as in Hartree-Fock theory. We will do it anyways
         but you should keep in mind that the values have only limited relevance

Expectation value of <S**2>     :     0.790131
Ideal value S*(S+1) for S=0.5   :     0.750000
Deviation                       :     0.040131

----------------
ORBITAL ENERGIES
----------------
                 SPIN UP ORBITALS
  NO   OCC          E(Eh)            E(eV) 
   0   1.0000     -83.135311     -2262.2268 
   1   1.0000      -6.553176      -178.3210 
   2   1.0000      -4.604597      -125.2975 
   3   1.0000      -4.594774      -125.0302 
   4   1.0000      -4.594000      -125.0091 
   5   1.0000      -1.192832       -32.4586 
   6   1.0000      -0.354465        -9.6455 
   7   1.0000      -0.048179        -1.3110 
   8   1.0000      -0.038270        -1.0414 
   9   1.0000      -0.032057        -0.8723 
  10   0.0000      -0.016353        -0.4450 
  11   0.0000       0.007354         0.2001 
  12   0.0000       0.009746         0.2652 
  13   0.0000       0.012456         0.3390 
  14   0.0000       0.018976         0.5164 
  15   0.0000       0.043091         1.1726 
  16   0.0000       0.046842         1.2746 
  17   0.0000       0.061240         1.6664 
  18   0.0000       0.095013         2.5854 
  19   0.0000       0.095624         2.6021 
  20   0.0000       0.097264         2.6467 

                 SPIN DOWN ORBITALS
  NO   OCC          E(Eh)            E(eV) 
   0   1.0000     -83.135803     -2262.2402 
   1   1.0000      -6.555074      -178.3726 
   2   1.0000      -4.609043      -125.4184 
   3   1.0000      -4.595920      -125.0613 
   4   1.0000      -4.595006      -125.0365 
   5   1.0000      -1.192230       -32.4422 
   6   1.0000      -0.362004        -9.8506 
   7   1.0000      -0.040190        -1.0936 
   8   1.0000      -0.034037        -0.9262 
   9   0.0000      -0.060455        -1.6451 
  10   0.0000      -0.018852        -0.5130 
  11   0.0000      -0.007802        -0.2123 
  12   0.0000       0.013324         0.3626 
  13   0.0000       0.014531         0.3954 
  14   0.0000       0.047543         1.2937 
  15   0.0000       0.053624         1.4592 
  16   0.0000       0.067245         1.8298 
  17   0.0000       0.077924         2.1204 
  18   0.0000       0.100766         2.7420 
  19   0.0000       0.122051         3.3212 
*Only the first 10 virtual orbitals were printed.

                    ********************************
                    * MULLIKEN POPULATION ANALYSIS *
                    ********************************

--------------------------------------------
MULLIKEN ATOMIC CHARGES AND SPIN POPULATIONS
--------------------------------------------
   0 Li:   -0.214568    0.157846
   1 S :    0.214568    0.842154
Sum of atomic charges         :   -0.0000000
Sum of atomic spin populations:    1.0000000

-----------------------------------------------------
MULLIKEN REDUCED ORBITAL CHARGES AND SPIN POPULATIONS
-----------------------------------------------------
CHARGE
  0 Lis       :     2.385529  s :     2.385529
      pz      :     0.188188  p :     0.665393
      px      :     0.146647
      py      :     0.330557
      dz2     :     0.037101  d :     0.130985
      dxz     :     0.023146
      dyz     :     0.070358
      dx2y2   :     0.000213
      dxy     :     0.000167
      f0      :     0.013394  f :     0.032661
      f+1     :     0.004857
      f-1     :     0.013971
      f+2     :     0.000156
      f-2     :     0.000124
      f+3     :     0.000121
      f-3     :     0.000038

  1 S s       :     5.803540  s :     5.803540
      pz      :     3.537271  p :     9.953966
      px      :     2.950126
      py      :     3.466569
      dz2     :     0.023070  d :     0.017567
      dxz     :    -0.000299
      dyz     :    -0.006230
      dx2y2   :     0.000579
      dxy     :     0.000447
      f0      :     0.009958  f :     0.010359
      f+1     :    -0.000075
      f-1     :    -0.000301
      f+2     :     0.000149
      f-2     :     0.000115
      f+3     :     0.000366
      f-3     :     0.000147


SPIN
  0 Lis       :     0.047989  s :     0.047989
      pz      :     0.003957  p :     0.123043
      px      :     0.102648
      py      :     0.016438
      dz2     :    -0.000793  d :    -0.012728
      dxz     :     0.011767
      dyz     :    -0.023386
      dx2y2   :    -0.000177
      dxy     :    -0.000139
      f0      :    -0.002237  f :    -0.000458
      f+1     :     0.003597
      f-1     :    -0.001412
      f+2     :    -0.000146
      f-2     :    -0.000116
      f+3     :    -0.000116
      f-3     :    -0.000027

  1 S s       :    -0.002226  s :    -0.002226
      pz      :    -0.043327  p :     0.842903
      px      :     0.756366
      py      :     0.129864
      dz2     :    -0.001439  d :     0.002330
      dxz     :     0.001083
      dyz     :     0.003212
      dx2y2   :    -0.000297
      dxy     :    -0.000229
      f0      :    -0.000656  f :    -0.000854
      f+1     :     0.000003
      f-1     :     0.000231
      f+2     :    -0.000093
      f-2     :    -0.000072
      f+3     :    -0.000242
      f-3     :    -0.000026



                     *******************************
                     * LOEWDIN POPULATION ANALYSIS *
                     *******************************

-------------------------------------------
LOEWDIN ATOMIC CHARGES AND SPIN POPULATIONS
-------------------------------------------
   0 Li:   -0.886856    0.368611
   1 S :    0.886856    0.631389

----------------------------------------------------
LOEWDIN REDUCED ORBITAL CHARGES AND SPIN POPULATIONS
----------------------------------------------------
CHARGE
  0 Lis       :     2.177796  s :     2.177796
      pz      :     0.372265  p :     0.931586
      px      :     0.194567
      py      :     0.364753
      dz2     :     0.248072  d :     0.494612
      dxz     :     0.092645
      dyz     :     0.153566
      dx2y2   :     0.000184
      dxy     :     0.000144
      f0      :     0.127689  f :     0.282862
      f+1     :     0.061718
      f-1     :     0.092960
      f+2     :     0.000186
      f-2     :     0.000147
      f+3     :     0.000122
      f-3     :     0.000039

  1 S s       :     5.414526  s :     5.414526
      pz      :     3.581187  p :     9.618549
      px      :     2.774887
      py      :     3.262475
      dz2     :     0.046159  d :     0.048422
      dxz     :     0.000424
      dyz     :     0.000819
      dx2y2   :     0.000576
      dxy     :     0.000445
      f0      :     0.030354  f :     0.031647
      f+1     :     0.000163
      f-1     :     0.000351
      f+2     :     0.000151
      f-2     :     0.000117
      f+3     :     0.000365
      f-3     :     0.000146


SPIN
  0 Lis       :     0.043314  s :     0.043314
      pz      :     0.011106  p :     0.211558
      px      :     0.149711
      py      :     0.050741
      dz2     :    -0.002094  d :     0.064570
      dxz     :     0.069654
      dyz     :    -0.002737
      dx2y2   :    -0.000142
      dxy     :    -0.000111
      f0      :    -0.002857  f :     0.049169
      f+1     :     0.046437
      f-1     :     0.006037
      f+2     :    -0.000171
      f-2     :    -0.000135
      f+3     :    -0.000116
      f-3     :    -0.000027

  1 S s       :    -0.001446  s :    -0.001446
      pz      :    -0.046216  p :     0.634020
      px      :     0.609320
      py      :     0.070916
      dz2     :    -0.000275  d :    -0.000685
      dxz     :     0.000219
      dyz     :    -0.000093
      dx2y2   :    -0.000303
      dxy     :    -0.000234
      f0      :    -0.000263  f :    -0.000499
      f+1     :     0.000122
      f-1     :     0.000083
      f+2     :    -0.000098
      f-2     :    -0.000076
      f+3     :    -0.000242
      f-3     :    -0.000026



                      *****************************
                      * MAYER POPULATION ANALYSIS *
                      *****************************

  NA   - Mulliken gross atomic population
  ZA   - Total nuclear charge
  QA   - Mulliken gross atomic charge
  VA   - Mayer's total valence
  BVA  - Mayer's bonded valence
  FA   - Mayer's free valence

  ATOM       NA         ZA         QA         VA         BVA        FA
  0 Li     3.2146     3.0000    -0.2146     1.8668     1.8318     0.0351
  1 S     15.7854    16.0000     0.2146     2.5891     1.8318     0.7574

  Mayer bond orders larger than 0.100000
B(  0-Li,  1-S ) :   1.8318 

-------
TIMINGS
-------

Total SCF time: 0 days 0 hours 0 min 7 sec 

Total time                  ....       7.996 sec
Sum of individual times     ....       7.755 sec  ( 97.0%)

SCF preparation             ....       0.067 sec  (  0.8%)
Fock matrix formation       ....       4.807 sec  ( 60.1%)
  Startup                   ....       0.052 sec  (  1.1% of F)
  Coulomb formation         ....       1.451 sec  ( 30.2% of F)
  XC integration            ....       1.578 sec  ( 32.8% of F)
    XC Preparation          ....       0.000 sec  (  0.0% of XC)
    Basis function eval.    ....       0.066 sec  (  4.2% of XC)
    Density eval.           ....       0.058 sec  (  3.7% of XC)
    XC-Functional eval.     ....       0.031 sec  (  2.0% of XC)
    XC-Potential eval.      ....       0.164 sec  ( 10.4% of XC)
Diagonalization             ....       0.000 sec  (  0.0%)
Density matrix formation    ....       0.657 sec  (  8.2%)
Total Energy calculation    ....       0.180 sec  (  2.2%)
Population analysis         ....       0.013 sec  (  0.2%)
Orbital Transformation      ....       0.047 sec  (  0.6%)
Orbital Orthonormalization  ....       0.000 sec  (  0.0%)
DIIS solution               ....       1.325 sec  ( 16.6%)
SOSCF solution              ....       0.659 sec  (  8.2%)
Finished LeanSCF after   8.0 sec

Maximum memory used throughout the entire LEANSCF-calculation: 11.4 MB


           ************************************************************
           *        Program running with 8 parallel MPI-processes     *
           *              working on a common directory               *
           ************************************************************

------------------------------------------------------------------------------
                         ORCA PROPERTY INTEGRAL CALCULATIONS
------------------------------------------------------------------------------

GBWName                                   ... /cluster/projects/nn14654k/ylvaos/basis_set_n_funcs/functionals/gga_c_N12/LiS/inp/LiS_gga_c_N12_augccpvtz.gbw
Number of atoms                           ...      2
Number of basis functions                 ...    128
Max core memory                           ...   4096 MB

Dipole integrals                          ... YES
Quadrupole integrals                      ... YES
Linear momentum integrals                 ...  NO
Angular momentum integrals                ...  NO
Higher moments length integrals           ...  NO
Higher moments velocity integrals         ...  NO
Kinetic energy integrals                  ...  NO
GIAO right hand sides                     ...  NO
GIAO dipole derivative integrals          ...  NO
SOC integrals                             ...  NO
EPR diamagnetic integrals (GIAO)          ...  NO
EPR gauge integrals                       ...  NO
Field gradient integrals                  ...  NO (   0 nuclei)
Spin-dipole/Fermi contact integrals       ...  NO (   0 nuclei)
Contact density integrals                 ...  NO (   0 nuclei)
Nucleus-orbit integrals                   ...  NO (   0 nuclei)
Geometric perturbations                   ...  NO (   2 nuclei)

Choice of electric origin   ... Center of mass
Position of electric origin ... (  0.0000,  0.0000,  1.3082) 
Choice of magnetic origin   ... GIAO
Position of magnetic origin ... (  0.0000,  0.0000,  0.0000) 

Calculating integrals                     ... Electric Dipole (Length)     done (  0.0 sec)
Calculating integrals                     ... Electric Quadrupole (Length) done (  0.0 sec)

Property integrals calculated in   0.0 sec

Maximum memory used throughout the entire PROPINT-calculation: 7.5 MB
------------------------------------------------------------------------------
                           ORCA ORBITAL LOCALIZATION
------------------------------------------------------------------------------

Input orbitals are from                  ... /cluster/projects/nn14654k/ylvaos/basis_set_n_funcs/functionals/gga_c_N12/LiS/inp/LiS_gga_c_N12_augccpvtz.gbw
Output orbitals are to                   ... /cluster/projects/nn14654k/ylvaos/basis_set_n_funcs/functionals/gga_c_N12/LiS/inp/LiS_gga_c_N12_augccpvtz.loc
Max. number of iterations                ... 128
Localizations seeded randomly            ... on
Convergence tolerance                    ... 1.000e-06
Threshold for strong local MOs           ... 9.500e-01
Threshold for bond MOs                   ... 8.500e-01
Operator                                 ... 0
Orbital range for localization           ... 2 to 9
Localization criterion                   ... NEW-BOYS
Doing the dipole integrals               ... o.k.
Initial value of the localization sum :    13.470472
ITERATION   0 : L=   16.5800034790 DL=  3.11e+00 (AVERGE_DL)=    0.3332486856 
ITERATION   1 : L=   17.4639561433 DL=  8.84e-01 (AVERGE_DL)=    0.1776787495 
ITERATION   2 : L=   17.6004256453 DL=  1.36e-01 (AVERGE_DL)=    0.0698133998 
ITERATION   3 : L=   17.6280505425 DL=  2.76e-02 (AVERGE_DL)=    0.0314102447 
ITERATION   4 : L=   17.6354407975 DL=  7.39e-03 (AVERGE_DL)=    0.0162461588 
ITERATION   5 : L=   17.6372561500 DL=  1.82e-03 (AVERGE_DL)=    0.0080519574 
ITERATION   6 : L=   17.6376715914 DL=  4.15e-04 (AVERGE_DL)=    0.0038519075 
ITERATION   7 : L=   17.6377945950 DL=  1.23e-04 (AVERGE_DL)=    0.0020959451 
ITERATION   8 : L=   17.6378573693 DL=  6.28e-05 (AVERGE_DL)=    0.0014973112 
ITERATION   9 : L=   17.6379075298 DL=  5.02e-05 (AVERGE_DL)=    0.0013384493 
ITERATION  10 : L=   17.6379552521 DL=  4.77e-05 (AVERGE_DL)=    0.0013055139 
ITERATION  11 : L=   17.6380030830 DL=  4.78e-05 (AVERGE_DL)=    0.0013069995 
ITERATION  12 : L=   17.6380517772 DL=  4.87e-05 (AVERGE_DL)=    0.0013187415 
ITERATION  13 : L=   17.6381015825 DL=  4.98e-05 (AVERGE_DL)=    0.0013337012 
ITERATION  14 : L=   17.6381525747 DL=  5.10e-05 (AVERGE_DL)=    0.0013495005 
ITERATION  15 : L=   17.6382047652 DL=  5.22e-05 (AVERGE_DL)=    0.0013652642 
ITERATION  16 : L=   17.6382581379 DL=  5.34e-05 (AVERGE_DL)=    0.0013806400 
ITERATION  17 : L=   17.6383126636 DL=  5.45e-05 (AVERGE_DL)=    0.0013954736 
ITERATION  18 : L=   17.6383683044 DL=  5.56e-05 (AVERGE_DL)=    0.0014096702 
ITERATION  19 : L=   17.6384250166 DL=  5.67e-05 (AVERGE_DL)=    0.0014231788 
ITERATION  20 : L=   17.6384827517 DL=  5.77e-05 (AVERGE_DL)=    0.0014359547 
ITERATION  21 : L=   17.6385414553 DL=  5.87e-05 (AVERGE_DL)=    0.0014479492 
ITERATION  22 : L=   17.6386010689 DL=  5.96e-05 (AVERGE_DL)=    0.0014591293 
ITERATION  23 : L=   17.6386615294 DL=  6.05e-05 (AVERGE_DL)=    0.0014694572 
ITERATION  24 : L=   17.6387227696 DL=  6.12e-05 (AVERGE_DL)=    0.0014789011 
ITERATION  25 : L=   17.6387847176 DL=  6.19e-05 (AVERGE_DL)=    0.0014874231 
ITERATION  26 : L=   17.6388472975 DL=  6.26e-05 (AVERGE_DL)=    0.0014949915 
ITERATION  27 : L=   17.6389104307 DL=  6.31e-05 (AVERGE_DL)=    0.0015015846 
ITERATION  28 : L=   17.6389740350 DL=  6.36e-05 (AVERGE_DL)=    0.0015071772 
ITERATION  29 : L=   17.6390380259 DL=  6.40e-05 (AVERGE_DL)=    0.0015117498 
ITERATION  30 : L=   17.6391023157 DL=  6.43e-05 (AVERGE_DL)=    0.0015152775 
ITERATION  31 : L=   17.6391668160 DL=  6.45e-05 (AVERGE_DL)=    0.0015177555 
ITERATION  32 : L=   17.6392314359 DL=  6.46e-05 (AVERGE_DL)=    0.0015191621 
ITERATION  33 : L=   17.6392960845 DL=  6.46e-05 (AVERGE_DL)=    0.0015194991 
ITERATION  34 : L=   17.6393606698 DL=  6.46e-05 (AVERGE_DL)=    0.0015187553 
ITERATION  35 : L=   17.6394251004 DL=  6.44e-05 (AVERGE_DL)=    0.0015169351 
ITERATION  36 : L=   17.6394892854 DL=  6.42e-05 (AVERGE_DL)=    0.0015140412 
ITERATION  37 : L=   17.6395531359 DL=  6.39e-05 (AVERGE_DL)=    0.0015100922 
ITERATION  38 : L=   17.6396165633 DL=  6.34e-05 (AVERGE_DL)=    0.0015050785 
ITERATION  39 : L=   17.6396794817 DL=  6.29e-05 (AVERGE_DL)=    0.0014990290 
ITERATION  40 : L=   17.6397418082 DL=  6.23e-05 (AVERGE_DL)=    0.0014919602 
ITERATION  41 : L=   17.6398034628 DL=  6.17e-05 (AVERGE_DL)=    0.0014838975 
ITERATION  42 : L=   17.6398643685 DL=  6.09e-05 (AVERGE_DL)=    0.0014748569 
ITERATION  43 : L=   17.6399244525 DL=  6.01e-05 (AVERGE_DL)=    0.0014648745 
ITERATION  44 : L=   17.6399836465 DL=  5.92e-05 (AVERGE_DL)=    0.0014539842 
ITERATION  45 : L=   17.6400418858 DL=  5.82e-05 (AVERGE_DL)=    0.0014422115 
ITERATION  46 : L=   17.6400991101 DL=  5.72e-05 (AVERGE_DL)=    0.0014295901 
ITERATION  47 : L=   17.6401552650 DL=  5.62e-05 (AVERGE_DL)=    0.0014161682 
ITERATION  48 : L=   17.6402103005 DL=  5.50e-05 (AVERGE_DL)=    0.0014019813 
ITERATION  49 : L=   17.6402641718 DL=  5.39e-05 (AVERGE_DL)=    0.0013870746 
ITERATION  50 : L=   17.6403168386 DL=  5.27e-05 (AVERGE_DL)=    0.0013714801 
ITERATION  51 : L=   17.6403682662 DL=  5.14e-05 (AVERGE_DL)=    0.0013552491 
ITERATION  52 : L=   17.6404184255 DL=  5.02e-05 (AVERGE_DL)=    0.0013384328 
ITERATION  53 : L=   17.6404672906 DL=  4.89e-05 (AVERGE_DL)=    0.0013210542 
ITERATION  54 : L=   17.6405148423 DL=  4.76e-05 (AVERGE_DL)=    0.0013031783 
ITERATION  55 : L=   17.6405610656 DL=  4.62e-05 (AVERGE_DL)=    0.0012848467 
ITERATION  56 : L=   17.6406059491 DL=  4.49e-05 (AVERGE_DL)=    0.0012660897 
ITERATION  57 : L=   17.6406494874 DL=  4.35e-05 (AVERGE_DL)=    0.0012469721 
ITERATION  58 : L=   17.6406916783 DL=  4.22e-05 (AVERGE_DL)=    0.0012275255 
ITERATION  59 : L=   17.6407325234 DL=  4.08e-05 (AVERGE_DL)=    0.0012077880 
ITERATION  60 : L=   17.6407720283 DL=  3.95e-05 (AVERGE_DL)=    0.0011878080 
ITERATION  61 : L=   17.6408102018 DL=  3.82e-05 (AVERGE_DL)=    0.0011676212 
ITERATION  62 : L=   17.6408470567 DL=  3.69e-05 (AVERGE_DL)=    0.0011472788 
ITERATION  63 : L=   17.6408826071 DL=  3.56e-05 (AVERGE_DL)=    0.0011267906 
ITERATION  64 : L=   17.6409168719 DL=  3.43e-05 (AVERGE_DL)=    0.0011062282 
ITERATION  65 : L=   17.6409498703 DL=  3.30e-05 (AVERGE_DL)=    0.0010855944 
ITERATION  66 : L=   17.6409816253 DL=  3.18e-05 (AVERGE_DL)=    0.0010649454 
ITERATION  67 : L=   17.6410121608 DL=  3.05e-05 (AVERGE_DL)=    0.0010442957 
ITERATION  68 : L=   17.6410415021 DL=  2.93e-05 (AVERGE_DL)=    0.0010236708 
ITERATION  69 : L=   17.6410696773 DL=  2.82e-05 (AVERGE_DL)=    0.0010031242 
ITERATION  70 : L=   17.6410967146 DL=  2.70e-05 (AVERGE_DL)=    0.0009826580 
ITERATION  71 : L=   17.6411226428 DL=  2.59e-05 (AVERGE_DL)=    0.0009622930 
ITERATION  72 : L=   17.6411474930 DL=  2.49e-05 (AVERGE_DL)=    0.0009420762 
ITERATION  73 : L=   17.6411712960 DL=  2.38e-05 (AVERGE_DL)=    0.0009220117 
ITERATION  74 : L=   17.6411940826 DL=  2.28e-05 (AVERGE_DL)=    0.0009021142 
ITERATION  75 : L=   17.6412158851 DL=  2.18e-05 (AVERGE_DL)=    0.0008824158 
ITERATION  76 : L=   17.6412367346 DL=  2.08e-05 (AVERGE_DL)=    0.0008629180 
ITERATION  77 : L=   17.6412566635 DL=  1.99e-05 (AVERGE_DL)=    0.0008436511 
ITERATION  78 : L=   17.6412757029 DL=  1.90e-05 (AVERGE_DL)=    0.0008246061 
ITERATION  79 : L=   17.6412938848 DL=  1.82e-05 (AVERGE_DL)=    0.0008058263 
ITERATION  80 : L=   17.6413112398 DL=  1.74e-05 (AVERGE_DL)=    0.0007872860 
ITERATION  81 : L=   17.6413277991 DL=  1.66e-05 (AVERGE_DL)=    0.0007690275 
ITERATION  82 : L=   17.6413435927 DL=  1.58e-05 (AVERGE_DL)=    0.0007510378 
ITERATION  83 : L=   17.6413586502 DL=  1.51e-05 (AVERGE_DL)=    0.0007333274 
ITERATION  84 : L=   17.6413730013 DL=  1.44e-05 (AVERGE_DL)=    0.0007159193 
ITERATION  85 : L=   17.6413866743 DL=  1.37e-05 (AVERGE_DL)=    0.0006987983 
ITERATION  86 : L=   17.6413996967 DL=  1.30e-05 (AVERGE_DL)=    0.0006819725 
ITERATION  87 : L=   17.6414120956 DL=  1.24e-05 (AVERGE_DL)=    0.0006654459 
ITERATION  88 : L=   17.6414238979 DL=  1.18e-05 (AVERGE_DL)=    0.0006492372 
ITERATION  89 : L=   17.6414351287 DL=  1.12e-05 (AVERGE_DL)=    0.0006333255 
ITERATION  90 : L=   17.6414458129 DL=  1.07e-05 (AVERGE_DL)=    0.0006177208 
ITERATION  91 : L=   17.6414559747 DL=  1.02e-05 (AVERGE_DL)=    0.0006024308 
ITERATION  92 : L=   17.6414656373 DL=  9.66e-06 (AVERGE_DL)=    0.0005874450 
ITERATION  93 : L=   17.6414748229 DL=  9.19e-06 (AVERGE_DL)=    0.0005727620 
ITERATION  94 : L=   17.6414835532 DL=  8.73e-06 (AVERGE_DL)=    0.0005583874 
ITERATION  95 : L=   17.6414918491 DL=  8.30e-06 (AVERGE_DL)=    0.0005443176 
ITERATION  96 : L=   17.6414997306 DL=  7.88e-06 (AVERGE_DL)=    0.0005305508 
ITERATION  97 : L=   17.6415072171 DL=  7.49e-06 (AVERGE_DL)=    0.0005170805 
ITERATION  98 : L=   17.6415143270 DL=  7.11e-06 (AVERGE_DL)=    0.0005039101 
ITERATION  99 : L=   17.6415210781 DL=  6.75e-06 (AVERGE_DL)=    0.0004910303 
ITERATION 100 : L=   17.6415274876 DL=  6.41e-06 (AVERGE_DL)=    0.0004784476 
ITERATION 101 : L=   17.6415335717 DL=  6.08e-06 (AVERGE_DL)=    0.0004661441 
ITERATION 102 : L=   17.6415393462 DL=  5.77e-06 (AVERGE_DL)=    0.0004541279 
ITERATION 103 : L=   17.6415448261 DL=  5.48e-06 (AVERGE_DL)=    0.0004423901 
ITERATION 104 : L=   17.6415500256 DL=  5.20e-06 (AVERGE_DL)=    0.0004309267 
ITERATION 105 : L=   17.6415549587 DL=  4.93e-06 (AVERGE_DL)=    0.0004197383 
ITERATION 106 : L=   17.6415596383 DL=  4.68e-06 (AVERGE_DL)=    0.0004088132 
ITERATION 107 : L=   17.6415640769 DL=  4.44e-06 (AVERGE_DL)=    0.0003981495 
ITERATION 108 : L=   17.6415682866 DL=  4.21e-06 (AVERGE_DL)=    0.0003877455 
ITERATION 109 : L=   17.6415722788 DL=  3.99e-06 (AVERGE_DL)=    0.0003775945 
ITERATION 110 : L=   17.6415760644 DL=  3.79e-06 (AVERGE_DL)=    0.0003676967 
ITERATION 111 : L=   17.6415796537 DL=  3.59e-06 (AVERGE_DL)=    0.0003580333 
ITERATION 112 : L=   17.6415830565 DL=  3.40e-06 (AVERGE_DL)=    0.0003486122 
ITERATION 113 : L=   17.6415862824 DL=  3.23e-06 (AVERGE_DL)=    0.0003394276 
ITERATION 114 : L=   17.6415893403 DL=  3.06e-06 (AVERGE_DL)=    0.0003304673 
ITERATION 115 : L=   17.6415922387 DL=  2.90e-06 (AVERGE_DL)=    0.0003217355 
ITERATION 116 : L=   17.6415949857 DL=  2.75e-06 (AVERGE_DL)=    0.0003132232 
ITERATION 117 : L=   17.6415975891 DL=  2.60e-06 (AVERGE_DL)=    0.0003049259 
ITERATION 118 : L=   17.6416000563 DL=  2.47e-06 (AVERGE_DL)=    0.0002968391 
ITERATION 119 : L=   17.6416023942 DL=  2.34e-06 (AVERGE_DL)=    0.0002889583 
ITERATION 120 : L=   17.6416046095 DL=  2.22e-06 (AVERGE_DL)=    0.0002812789 
ITERATION 121 : L=   17.6416067086 DL=  2.10e-06 (AVERGE_DL)=    0.0002738005 
ITERATION 122 : L=   17.6416086973 DL=  1.99e-06 (AVERGE_DL)=    0.0002665049 
ITERATION 123 : L=   17.6416105815 DL=  1.88e-06 (AVERGE_DL)=    0.0002594103 
ITERATION 124 : L=   17.6416123665 DL=  1.78e-06 (AVERGE_DL)=    0.0002524868 
ITERATION 125 : L=   17.6416140576 DL=  1.69e-06 (AVERGE_DL)=    0.0002457530 
ITERATION 126 : L=   17.6416156594 DL=  1.60e-06 (AVERGE_DL)=    0.0002391838 
ITERATION 127 : L=   17.6416171768 DL=  1.52e-06 (AVERGE_DL)=    0.0002327900 
MAXIMUM NO OF ITERATIONS EXCEEDED - LOCALIZATION NOT CONVERGED


--------------------------------------------------------------------------------
                    LOCALIZED MOLECULAR ORBITAL COMPOSITIONS
--------------------------------------------------------------------------------

The Mulliken populations for each LMO on each atom are computed
The LMO`s will be ordered according to atom index and type
  (A) Strongly localized MO`s have populations of >=0.950 on one atom
  (B) Two center bond orbitals have populations of >=0.850 on two atoms
  (C) Other MO`s are considered to be `delocalized`

FOUND  -   4 strongly local MO`s
       -   4 two center bond MO`s
       -   0 significantly delocalized MO`s

Rather strongly localized orbitals:
MO   5:   1S  -   0.999738
MO   4:   1S  -   0.999724
MO   3:   1S  -   0.999917
MO   2:   0Li -   1.013532
Bond-like localized orbitals:
MO   9:   1S  -   0.773113  and   0Li -   0.226887
MO   8:   1S  -   0.831179  and   0Li -   0.168821
MO   7:   1S  -   0.775466  and   0Li -   0.224534
MO   6:   1S  -   0.935742  and   0Li -   0.064258
Localized MO's were stored in: /cluster/projects/nn14654k/ylvaos/basis_set_n_funcs/functionals/gga_c_N12/LiS/inp/LiS_gga_c_N12_augccpvtz.loc
------------------------------------------------------------------------------
                           ORCA ORBITAL LOCALIZATION
------------------------------------------------------------------------------

Input orbitals are from                  ... /cluster/projects/nn14654k/ylvaos/basis_set_n_funcs/functionals/gga_c_N12/LiS/inp/LiS_gga_c_N12_augccpvtz.loc
Output orbitals are to                   ... /cluster/projects/nn14654k/ylvaos/basis_set_n_funcs/functionals/gga_c_N12/LiS/inp/LiS_gga_c_N12_augccpvtz.loc
Max. number of iterations                ... 128
Localizations seeded randomly            ... on
Convergence tolerance                    ... 1.000e-06
Threshold for strong local MOs           ... 9.500e-01
Threshold for bond MOs                   ... 8.500e-01
Operator                                 ... 1
Orbital range for localization           ... 2 to 8
Localization criterion                   ... NEW-BOYS
Doing the dipole integrals               ... o.k.
Initial value of the localization sum :    13.564958
ITERATION   0 : L=   16.9471277216 DL=  3.38e+00 (AVERGE_DL)=    0.4013174474 
ITERATION   1 : L=   17.5378106954 DL=  5.91e-01 (AVERGE_DL)=    0.1677133288 
ITERATION   2 : L=   17.5401760328 DL=  2.37e-03 (AVERGE_DL)=    0.0106129692 
ITERATION   3 : L=   17.5402604202 DL=  8.44e-05 (AVERGE_DL)=    0.0020046061 
ITERATION   4 : L=   17.5402660353 DL=  5.62e-06 (AVERGE_DL)=    0.0005170949 
ITERATION   5 : L=   17.5402664696 DL=  4.34e-07 (AVERGE_DL)=    0.0001438005 
LOCALIZATION SUM CONVERGED


--------------------------------------------------------------------------------
                    LOCALIZED MOLECULAR ORBITAL COMPOSITIONS
--------------------------------------------------------------------------------

The Mulliken populations for each LMO on each atom are computed
The LMO`s will be ordered according to atom index and type
  (A) Strongly localized MO`s have populations of >=0.950 on one atom
  (B) Two center bond orbitals have populations of >=0.850 on two atoms
  (C) Other MO`s are considered to be `delocalized`

FOUND  -   5 strongly local MO`s
       -   2 two center bond MO`s
       -   0 significantly delocalized MO`s

Rather strongly localized orbitals:
MO   6:   1S  -   0.999919
MO   5:   1S  -   1.000875
MO   4:   1S  -   1.000550
MO   3:   1S  -   0.958095
MO   2:   0Li -   1.010055
Bond-like localized orbitals:
MO   8:   1S  -   0.754952  and   0Li -   0.245048
MO   7:   1S  -   0.754937  and   0Li -   0.245063
Localized MO's were stored in: /cluster/projects/nn14654k/ylvaos/basis_set_n_funcs/functionals/gga_c_N12/LiS/inp/LiS_gga_c_N12_augccpvtz.loc

-------------------------   --------------------
FINAL SINGLE POINT ENERGY      -379.943460673297
-------------------------   --------------------



           ************************************************************
           *        Program running with 8 parallel MPI-processes     *
           *              working on a common directory               *
           ************************************************************

------------------------------------------------------------------------------
                              ORCA PROPERTY CALCULATIONS
------------------------------------------------------------------------------

GBWName                                 ... /cluster/projects/nn14654k/ylvaos/basis_set_n_funcs/functionals/gga_c_N12/LiS/inp/LiS_gga_c_N12_augccpvtz.gbw
Number of atoms                         ...      2
Number of basis functions               ...    128
Max core memory                         ...   4096 MB

Electric properties:
Dipole moment                           ... YES
Quadrupole moment                       ... YES
Static polarizability (Dipole/Dipole)   ...  NO
Static polarizability (Dipole/Quad.)    ...  NO
Static polarizability (Quad./Quad.)     ...  NO
Static polarizability (Velocity)        ...  NO
Static hyperpolarizability              ...  NO

Atomic electric properties:
Dipole moment                           ...  NO
Quadrupole moment                       ...  NO
Static polarizability                   ...  NO

Choice of electric origin               ... Center of mass
Position of electric origin             ...     0.000000     0.000000     1.308198

General magnetic properties:
Magnetizability                         ...  NO

EPR properties:
g-Tensor (aka g-matrix)                 ...  NO
Zero-Field splitting spin-orbit         ...  NO
Zero-field splitting spin-spin          ...  NO
Hyperfine couplings                     ...  NO (   0 nuclei)
Quadrupole couplings                    ...  NO (   0 nuclei)
Contact density                         ...  NO (   0 nuclei)

NMR properties:
Chemical shifts                         ...  NO (   0 nuclei)
Spin-rotation constants                 ...  NO (   0 nuclei)
Spin-spin couplings                     ...  NO (   0 nuclei,    0 pairs)

Choice of magnetic origin               ... GIAO
Position of magnetic origin             ...     0.000000     0.000000     0.000000

Properties with geometric perturbations:
SCF Hessian                             ...  NO
IR spectrum                             ...  NO
VCD spectrum                            ...  NO
X-ray spectroscopy properties:
SCF XES/XAS/RIXS spectra                ...  NO

SCF SOC stabilization energy            ...  NO
Diagonal Born-Oppenheimer correction    ...  NO

-------------
DIPOLE MOMENT
-------------

Method             : SCF
Type of density    : Electron Density
Multiplicity       :   2
Irrep              :   0
Energy             :  -379.9434606732974657 Eh
Basis              : AO
                                X                 Y                 Z
Electronic contribution:      0.000000038       0.000000031      -3.223650435
Nuclear contribution   :      0.000000000       0.000000000       1.549484202
                        -----------------------------------------
Total Dipole Moment    :      0.000000038       0.000000031      -1.674166233
                        -----------------------------------------
Magnitude (a.u.)       :      1.674166233
Magnitude (Debye)      :      4.255392383



--------------------
Rotational spectrum 
--------------------
 
Rotational constants in cm-1:             0.000000             0.639339             0.639339 
Rotational constants in MHz :             0.000000         19166.891897         19166.891897 

Dipole components along the rotational axes: 
x,y,z [a.u.] :    -1.674166     0.000000     0.000000 
x,y,z [Debye]:    -4.255392     0.000000     0.000000 

 

Dipole moment calculation done in   0.0 sec 

-----------------
QUADRUPOLE MOMENT
-----------------

Method             : SCF
Type of density    : Electron Density
Multiplicity       :   2
Irrep              :   0
Energy             :  -379.9434606732974657 Eh
Basis              : AO

                XX              YY              ZZ              XY              XZ              YZ
  NUC        0.000000000     0.000000000    41.817245673     0.000000000     0.000000000     0.000000000
  EL       -20.897587228   -24.503062836   -56.517265568     1.586208660     0.000000203     0.000000017
  TOT      -20.897587228   -24.503062836   -14.700019895     1.586208660     0.000000203     0.000000017 (a.u.)
           -28.107969519   -32.957457519   -19.772029500     2.133504895     0.000000273     0.000000023 (Buckingham)

diagonalized tensor:
           -25.101558361   -20.299091703   -14.700019895 (a.u.)
           -33.762454469   -27.302972569   -19.772029500 (Buckingham)
           -20.449906870    -1.071461170    21.521368040 (traceless form in Buckingham)

            -0.353019158     0.935616093     0.000000035
             0.935616093     0.353019158     0.000000007
             0.000000005    -0.000000035     1.000000000
        
Isotropic quadrupole :   -20.033556653

Quadrupole moment calculation done in   0.0 sec (  0.0 sec for integrals)

Maximum memory used throughout the entire PROP-calculation: 3.8 MB

--------------------------------
SUGGESTED CITATIONS FOR THIS RUN
--------------------------------

Below you find a list of papers that are relevant to this ORCA run
We neither can nor want to force you to cite these papers, but we appreciate if you do
You receive ORCA, which is the product of decades of hard work by many enthusiastic individuals, for free
The only thing we kindly ask in return is that you cite our papers,
We deeply appreciate it, if you show your appreciation for ORCA by not just citing the generic ORCA reference.

Please note that relegating all ORCA citations to the supporting information does *not* help us.
SI sections are not indexed - citations you put there will not count into any citation statistics
But we need these citations in order to attract the funding resources that allow us to do what we are doing

Therefore, if you are a happy ORCA user, please consider citing a few of the papers listed below in the main body of your paper

In addition to the list printed below, the program has created the file /cluster/projects/nn14654k/ylvaos/basis_set_n_funcs/functionals/gga_c_N12/LiS/inp/LiS_gga_c_N12_augccpvtz.bibtex that contains the list in bibtex format
You can import this file easily into all common literature databanks and citation aid programs

It goes without saying that in many instances, there are alternative algorithms to achieve similar
results as the ones you have gotten from ORCA. It is, of course, also the case that in some instances
ORCA just re-implements algorithms worked out by others. We are fully aware of that and we are also
fully appreciative of our colleagues work. Hence this citation list should not be read as indicating
that the listed papers, which are focused on our own work, are the only ones worth citing. It simply
meant to make it easier for users to cite ORCA specific papers. It is not a substitute for doing your
own literature research and citing the relevant literature in a scientifically appropriate manner.

List of essential papers. We consider these as the minimum necessary citations

  1. Neese, F.
     Software update: the ORCA program system, version 6.0
     WIRES Comput. Molec. Sci. 2025 15(1), e70019
     doi.org/10.1002/wcms.70019

List of papers to cite with high priority. The work reported in these papers was absolutely
necessary for this run to complete.
Our perspective: the developers of density functionals and basis sets usually get cited in chemistry papers
Good! But without the algorithms to do something with them, the functionals or basis sets would not do anything.
Hence, in our opinion, the algorithm design and method developments papers are equally worthy of getting cited

  1. Lehtola, S.; Steigemann, C.; Oliveira, M.; Marques, M.
     Recent developments in Libxc - A comprehensive library of functionals for density functional theory
     Software X 2018 7 , 
     doi.org/10.1016/j.softx.2017.11.002
  2. Neese, F.
     The SHARK Integral Generation and Digestion System
     J. Comp. Chem. 2022 44(3), 381
     doi.org/10.1002/jcc.26942

List of suggested additional citations. These are papers that are important in the 'surrounding' of 
of this run, or papers that preceded the highly important papers. If you like your results we are grateful for a citation.

  1. Neese, F.
     The ORCA program system
     WIRES Comput. Molec. Sci. 2012 2(1), 73-78
     doi.org/10.1002/wcms.81
  2. Neese, F.
     Software update: the ORCA program system, version 4.0
     WIRES Comput. Molec. Sci. 2018 8(1), 1-6
     doi.org/10.1002/wcms.1327
  3. Neese, F.; Wennmohs, F.; Becker, U.; Riplinger, C.
     The ORCA quantum chemistry program package
     J. Chem. Phys. 2020 152(22), 224108
     doi.org/10.1063/5.0004608
  4. Neese, F.
     Software update: The ORCA program system—Version 5.0
     WIRES Comput. Molec. Sci. 2022 12(1), e1606
     doi.org/10.1002/wcms.1606

List of optional additional citations

  1. Neese, F.
     Approximate second-order SCF convergence for spin unrestricted wavefunctions
     Chem. Phys. Lett. 2000 325(1-3), 93-98
     doi.org/10.1016/s0009-2614(00)00662-x

Timings for individual modules:

Sum of individual times          ...       10.242 sec (=   0.171 min)
Startup calculation              ...        1.154 sec (=   0.019 min)  11.3 %
SCF iterations                   ...        8.568 sec (=   0.143 min)  83.7 %
Property integrals               ...        0.246 sec (=   0.004 min)   2.4 %
Property calculations            ...        0.262 sec (=   0.004 min)   2.6 %
Orbital localization             ...        0.012 sec (=   0.000 min)   0.1 %
                             ****ORCA TERMINATED NORMALLY****
TOTAL RUN TIME: 0 days 0 hours 0 minutes 11 seconds 356 msec
