
                                 *****************
                                 * O   R   C   A *
                                 *****************

                                            #,                                       
                                            ###                                      
                                            ####                                     
                                            #####                                    
                                            ######                                   
                                           ########,                                 
                                     ,,################,,,,,                         
                               ,,#################################,,                 
                          ,,##########################################,,             
                       ,#########################################, ''#####,          
                    ,#############################################,,   '####,        
                  ,##################################################,,,,####,       
                ,###########''''           ''''###############################       
              ,#####''   ,,,,##########,,,,          '''####'''          '####       
            ,##' ,,,,###########################,,,                        '##       
           ' ,,###''''                  '''############,,,                           
         ,,##''                                '''############,,,,        ,,,,,,###''
      ,#''                                            '''#######################'''  
     '                                                          ''''####''''         
             ,#######,   #######,   ,#######,      ##                                
            ,#'     '#,  ##    ##  ,#'     '#,    #''#        ,####,    ,#,          
            ##       ##  ##   ,#'  ##            #'  '#       #'       ,# #          
            ##       ##  #######   ##           ,######,      #####,      #          
            '#,     ,#'  ##    ##  '#,     ,#' ,#      #,     #,   #      #          
             '#######'   ##     ##  '#######'  #'      '#     '####' #    #          



                #########################################################
                #                        -***-                          #
                #          Department of theory and spectroscopy        #
                #                                                       #
                #                      Frank Neese                      #
                #                                                       #
                #     Directorship, Architecture, Infrastructure        #
                #                    SHARK, DRIVERS                     #
                #        Core code/Algorithms in most modules           #
                #                                                       #
                #        Max Planck Institute fuer Kohlenforschung      #
                #                Kaiser Wilhelm Platz 1                 #
                #                 D-45470 Muelheim/Ruhr                 #
                #                      Germany                          #
                #                                                       #
                #                  All rights reserved                  #
                #                        -***-                          #
                #########################################################


                         Program Version 6.1.1  -  RELEASE   -
                                (GIT: $487d211c$)
                          ($2025-11-21 10:33:24 +0100$)


 With contributions from (in alphabetic order):
[Max-Planck-Institut fuer Kohlenforschung]                               
  Daniel Aravena         : Magnetic Suceptibility                        
  Michael Atanasov       : Ab Initio Ligand Field Theory (pilot matlab implementation)
  Alexander A. Auer      : GIAO ZORA, VPT2 properties, NMR spectrum      
  Ute Becker             : All parallelization in ORCA, NUMFREQ, NUMCALC 
  Giovanni Bistoni       : ED, misc. LED, open-shell LED, HFLD           
  Dmytro Bykov           : pre 5.0 version of the SCF Hessian            
  Marcos Casanova-Páez   : Triplet and SCS-CIS(D). UHF-(DLPNO)-IP/EA/STEOM-CCSD. UHF-CVS-IP/STEOM-CCSD   
  Vijay G. Chilkuri      : MRCI spin determinant printing, contributions to CSF-ICE 
  Pauline Colinet        : FMM embedding                                 
  Dipayan Datta          : RHF DLPNO-CCSD density                        
  Achintya Kumar Dutta   : EOM-CC, STEOM-CC                              
  Nicolas Foglia         : Exact transition moments, OPA infrastructure, MCD improvements    
  Dmitry Ganyushin       : Spin-Orbit,Spin-Spin,Magnetic field MRCI      
  Miquel Garcia-Rates    : C-PCM and meta-GGA Hessian, CCSD/C-PCM, Gaussian charge scheme 
  Tiago L. C. Gouveia    : GS-ROHF, GS-ROCIS                             
  Yang Guo               : DLPNO-NEVPT2, F12-NEVPT2, CIM, IAO-localization        
  Andreas Hansen         : Spin unrestricted coupled pair/coupled cluster methods 
  Ingolf Harden          : AUTO-CI MPn and infrastructure                
  Benjamin Helmich-Paris : MC-RPA, TRAH-(SCF,CASSCF), AVAS, COSX integrals, SCF dyn. polar., MC-PDFT, srDFT 
  Lee Huntington         : MR-EOM, pCC                                   
  Robert Izsak           : Overlap fitted RIJCOSX, COSX-SCS-MP3, EOM     
  Riya Kayal             : Wick's Theorem for AUTO-CI, AUTO-CI UHF-CCSDT 
  Emily Kempfer          : AUTO-CI RHF CISDT and CCSDT, approximate NEVPT4
  Christian Kollmar      : KDIIS, OOCD, Brueckner-CCSD(T), CCSD density, CASPT2, CASPT2-K, improved NEVPT2 
  Axel Koslowski         : Symmetry handling                             
  Simone Kossmann        : meta-GGA functionals, TD-DFT gradient, OOMP2, (MP2 Hessian; deprecated post 5.0) 
  Lucas Lang             : DCDCAS, Hyperfine gauge corrections, ICE-SOC+SSC
  Marvin Lechner         : AUTO-CI (C++ implementation), FIC-MRCC        
  Spencer Leger          : CASSCF response                               
  Dagmar Lenk            : GEPOL surface, SMD, ORCA-2-JSON               
  Dimitrios Liakos       : Extrapolation schemes; Compound Job, Property file
  Dimitrios Manganas     : Further ROCIS development; embedding schemes. LFT, Crystal Embedding 
  Dimitrios Pantazis     : SARC Basis sets                               
  Anastasios Papadopoulos: AUTO-CI, single reference methods and gradients 
  Taras Petrenko         : pre 6.0 DFT Hessian and TD-DFT gradient,  ECA, NRVS 
  Petra Pikulova         : Analytic Raman intensities                    
  Peter Pinski           : DLPNO-MP2, DLPNO-MP2 Gradient                 
  Shashank Vittal Rao    : ES-AILFT, MagRelax                            
  Christoph Reimann      : Effective Core Potentials                     
  Marius Retegan         : Local ZFS, SOC                                
  Christoph Riplinger    : Optimizer, TS searches, QM/MM, DLPNO-CCSD(T), (RO)-DLPNO pert. Triples 
  Michael Roemelt        : Original ROCIS implementation, recursive CI coupling coefficients
  Masaaki Saitow         : Open-shell DLPNO-CCSD energy and density      
  Barbara Sandhoefer     : DKH picture change effects                    
  Yorick L. A. Schmerwitz: GMF and freeze-and-release deltaSCF, NEB S-IDPP initial path                    
  Kantharuban Sivalingam : CASSCF convergence/infrastructure, NEVPT2, NEVPT3, NEVPT4(SD), FIC-MRCI and CEPA variants
  Bernardo de Souza      : ESD, SOC TD-DFT                               
  Georgi L. Stoychev     : AutoAux, RI-MP2 NMR, DLPNO-MP2 response, X2C  
  Van Anh Tran           : RI-MP2 g-tensors                              
  Willem Van den Heuvel  : Paramagnetic NMR                              
  Zikuan Wang            : NOTCH, Electric field optimization            
  Frank Wennmohs         : Technical directorship and infrastructure     
  Hang Xu                : AUTO-CI-Response properties                   
                                                                         
[FACCTs GmbH]                                                            
  Markus Bursch, Nicolas Foglia, Miquel Garcia-Rates, Ingolf Harden, Hagen Neugebauer, Anastasios Papadopoulos, 
  Christoph Riplinger, Bernardo de Souza, Georgi L. Stoychev                                                    
                                                                 
  APM, various basis sets, CI-OPT, improved COSX, DLPNO-Multilevel,           
  DOCKER, DRACO, updates on ESD, Fragmentator, GOAT, IRC, LR-CPCM, L-BFGS, MBIS, meta-GGA TD-DFT gradient, ML-optimized integration grids, 
  MM, NACMEs, nearIR, NEB, NEB-TS, NL-DFT gradient (VV10), 2- and 3-layer-ONIOM, interface openCOSMO-RS, QMMM,   
  Crystal-QMMM, RESP, rigid body optimization, SF, symmetry and pop. for TD-DFT, various functionals, SOLVATOR                                   
                                                                         
[Other institutions]                                                     
  V. Asgeirsson          : NEB                                           
  Christoph Bannwarth    : sTDA-DFT, sTD-DFT, PBEh-3c, B97-3c, D3        
  Giovanni Bistoni       : ETS/NOCV, ADLD/ADEX, COVALED                  
  Martin Brehm           : Molecular dynamics                            
  Ronald Cardenas        : ETS/NOCV                                      
  Martina Colucci        : COVALED                                       
  Sebastian Ehlert       : rSCAN, r2SCAN, r2SCAN-3c, D4, dhf basis sets  
  Marvin Friede          : D4 for Fr, Ra, Ac-Lr                          
  Lars Goerigk           : TD-DFT with DH, B97 family of functionals     
  Stefan Grimme          : VdW corrections, initial TS optimization, DFT functionals, gCP, sTDA/sTD-DF 
  Waldemar Hujo          : DFT-NL                                        
  H. Jonsson             : NEB                                           
  Holger Kruse           : gCP                                           
  Marcel Mueller         : wB97X-3c, vDZP basis set                      
  Hagen Neugebauer       : wr2SCAN, Native XTB                           
  Gianluca Regni         : ADLD/ADEX                                     
  Tobias Risthaus        : pre 6.0 range-separated hybrid DFT and stability analysis
  Lukas Wittmann         : regularized MP2, r2SCAN double-hybrids, wr2SCAN        
                                                                         
We gratefully acknowledge several colleagues who have allowed us to      
interface, adapt or use parts of their codes:                            
  Ed Valeev, F. Pavosevic, A. Kumar             : LibInt (2-el integral package), F12 methods 
  Garnet Chan, S. Sharma, J. Yang, R. Olivares  : DMRG                   
  Ulf Ekstrom                                   : XCFun DFT Library      
  Mihaly Kallay                                 : mrcc  (arbitrary order and MRCC methods)
  Frank Weinhold                                : gennbo (NPA and NBO analysis)           
  Simon Mueller                                 : openCOSMO-RS                            
  Christopher J. Cramer and Donald G. Truhlar   : smd solvation model                     
  S Lehtola, MJT Oliveira, MAL Marques          : LibXC Library                           
  Liviu Ungur et al                             : ANISO software                          


 Your calculation uses the libint2 library for the computation of 2-el integrals
 For citations please refer to: http://libint.valeyev.net

 Your ORCA version has been built with support for libXC version: 7.0.0
 For citations please refer to: https://libxc.gitlab.io

 This ORCA versions uses:
   CBLAS   interface :  Fast vector & matrix operations
   LAPACKE interface :  Fast linear algebra routines
   SCALAPACK package :  Parallel linear algebra routines
   Shared memory     :  Shared parallel matrices
   BLAS/LAPACK       :  OpenBLAS 0.3.29  USE64BITINT DYNAMIC_ARCH NO_AFFINITY Cooperlake SINGLE_THREADED
        Core in use  :  Cooperlake
   Copyright (c) 2011-2014, The OpenBLAS Project


  ***********************************
  * Starting time: Wed May 20 12:35:44 2026
  * Host name:     c1-44
  * Process ID:    2351211
  * Working dir.:  /cluster/projects/nn14654k/ylvaos/basis_set_n_funcs/functionals/gga_c_N12/LiS/out
  ***********************************

Using LibXC functional ID  80 : Minnesota N12 correlation functional
[ 1]  R. Peverati and D. G. Truhlar.,  J. Chem. Theory Comput. 8, 2310 (2012)
Using LibXC functional ID  80 : Minnesota N12 correlation functional
[ 1]  R. Peverati and D. G. Truhlar.,  J. Chem. Theory Comput. 8, 2310 (2012)
Your calculation utilizes LibXC
by S. Lehtola, C. Steigemann, M. J. T. Oliveira & M. A. L. Marques
Please cite in your paper:
Lehtola, S.; Steigemann, C.; Oliveira, M.J.T.; Marques, M. A. L. Software X, 7, (2018), 1.
   

================================================================================

----- Orbital basis set information -----
Your calculation utilizes the basis: aug-cc-pVDZ 
    H, B-Ne : Obtained from the ccRepo (grant-hill.group.shef.ac.uk/ccrepo) Feb. 2017
              R. A. Kendall, T. H. Dunning, Jr., R. J. Harrison, J. Chem. Phys. 96, 6796 (1992)
         He : Obtained from the ccRepo (grant-hill.group.shef.ac.uk/ccrepo) Feb. 2017
              D. E. Woon, T. H. Dunning, Jr., J. Chem. Phys. 100, 2975 (1994)
  Li-Be, Na : Obtained from the ccRepo (grant-hill.group.shef.ac.uk/ccrepo) Feb. 2017
              B. P. Prascher, D. E. Woon, K. A. Peterson, T. H. Dunning, Jr., A. K. Wilson, Theor. Chem. Acc. 128, 69 (2011)
         Mg : Obtained from the Peterson Research Group Website (tyr0.chem.wsu.edu/~kipeters) Feb. 2017
              B. P. Prascher, D. E. Woon, K. A. Peterson, T. H. Dunning, Jr., A. K. Wilson, Theor. Chem. Acc. 128, 69 (2011)
      Al-Ar : Obtained from the ccRepo (grant-hill.group.shef.ac.uk/ccrepo) Feb. 2017
              D. E. Woon, T. H. Dunning, Jr., J. Chem. Phys. 98, 1358 (1993)
      Sc-Zn : Obtained from the ccRepo (grant-hill.group.shef.ac.uk/ccrepo) Feb. 2017
              N. B. Balabanov, K. A. Peterson, J. Chem. Phys. 123, 064107 (2005)
              N. B. Balabanov, K. A. Peterson, J. Chem. Phys. 125, 074110 (2006)
      Ga-Kr : Obtained from the ccRepo (grant-hill.group.shef.ac.uk/ccrepo) Feb. 2017
              A. K. Wilson, D. E. Woon, K. A. Peterson, T. H. Dunning, Jr., J. Chem. Phys. 110, 7667 (1999)

================================================================================
                                        WARNINGS
                       Please study these warnings very carefully!
================================================================================


WARNING: your system is open-shell and RHF/RKS was chosen
  ===> : WILL SWITCH to UHF/UKS


================================================================================
                                       INPUT FILE
================================================================================
NAME = /cluster/projects/nn14654k/ylvaos/basis_set_n_funcs/functionals/gga_c_N12/LiS/inp/LiS_gga_c_N12_augccpvdz.inp
|  1> ! dft aug-cc-pVDZ TightSCF
|  2> %pal nprocs 8 end
|  3> 
|  4> %loc
|  5>   LocMet NewBoys
|  6>   Occ true
|  7> end
|  8> 
|  9> %method
| 10>   exchange None
| 11>   correlation gga_c_N12
| 12> end
| 13> 
| 14> %elprop
| 15>   Dipole true
| 16>   Quadrupole true
| 17> end
| 18> 
| 19> * xyz 0 2
| 20> Li    0.000000000000   0.000000000000  -1.074850000000
| 21> S    0.000000000000   0.000000000000   1.074850000000
| 22> *
| 23> 
| 24> 
| 25>                          ****END OF INPUT****
================================================================================

                       ****************************
                       * Single Point Calculation *
                       ****************************

---------------------------------
CARTESIAN COORDINATES (ANGSTROEM)
---------------------------------
  Li     0.000000    0.000000   -1.074850
  S      0.000000    0.000000    1.074850

----------------------------
CARTESIAN COORDINATES (A.U.)
----------------------------
  NO LB      ZA    FRAG     MASS         X           Y           Z
   0 Li    3.0000    0     6.941    0.000000    0.000000   -2.031172
   1 S    16.0000    0    32.060    0.000000    0.000000    2.031172

--------------------------------
INTERNAL COORDINATES (ANGSTROEM)
--------------------------------
 Li     0   0   0     0.000000000000     0.00000000     0.00000000
 S      1   0   0     2.149700000000     0.00000000     0.00000000

---------------------------
INTERNAL COORDINATES (A.U.)
---------------------------
 Li     0   0   0     0.000000000000     0.00000000     0.00000000
 S      1   0   0     4.062344270091     0.00000000     0.00000000

---------------------
BASIS SET INFORMATION
---------------------
There are 2 groups of distinct atoms

 Group   1 Type Li  : 18s5p2d contracted to 4s3p2d pattern {8811/311/11}
 Group   2 Type S   : 35s16p2d contracted to 5s4p2d pattern {11111111/7711/11}

Atom   0Li   basis set group =>   1
Atom   1S    basis set group =>   2


           ************************************************************
           *        Program running with 8 parallel MPI-processes     *
           *              working on a common directory               *
           ************************************************************
------------------------------------------------------------------------------
                             ORCA STARTUP CALCULATIONS
------------------------------------------------------------------------------
------------------------------------------------------------------------------
                   ___                                                        
                  /   \      - P O W E R E D   B Y -                         
                 /     \                                                     
                 |  |  |   _    _      __       _____    __    __             
                 |  |  |  | |  | |    /  \     |  _  \  |  |  /  |          
                  \  \/   | |  | |   /    \    | | | |  |  | /  /          
                 / \  \   | |__| |  /  /\  \   | |_| |  |  |/  /          
                |  |  |   |  __  | /  /__\  \  |    /   |      \           
                |  |  |   | |  | | |   __   |  |    \   |  |\   \          
                \     /   | |  | | |  |  |  |  | |\  \  |  | \   \       
                 \___/    |_|  |_| |__|  |__|  |_| \__\ |__|  \__/        
                                                                              
                      - O R C A' S   B I G   F R I E N D -                    
                                      &                                       
                       - I N T E G R A L  F E E D E R -                       
                                                                              
 v1 FN, 2020, v2 2021, v3 2022-2024                                           
------------------------------------------------------------------------------


----------------------
SHARK INTEGRAL PACKAGE
----------------------

Number of atoms                             ...      2
Number of basis functions                   ...     79
Number of shells                            ...     39
Maximum angular momentum                    ...      2
Integral batch strategy                     ... SHARK/LIBINT Hybrid
RI-J (if used) integral strategy            ... SPLIT-RIJ (Revised 2003 algorithm where possible)
Printlevel                                  ...      1
Contraction scheme used                     ... PARTIAL GENERAL contraction
Prescreening option                         ... SCHWARTZ
   Thresh                                   ... 2.500e-11
   Tcut                                     ... 2.500e-12
   Tpresel                                  ... 2.500e-12 
Coulomb Range Separation                    ... NOT USED
Exchange Range Separation                   ... NOT USED
Multipole approximations                    ... NOT USED
Finite Nucleus Model                        ... NOT USED
CABS basis                                  ... NOT available
Auxiliary Coulomb fitting basis             ... NOT available
Auxiliary J/K fitting basis                 ... NOT available
Auxiliary Correlation fitting basis         ... NOT available
Auxiliary 'external' fitting basis          ... NOT available

Checking pre-screening integrals            ... done (  0.0 sec) Dimension = 39
Save PGC pre-screening integrals            ... done (  0.0 sec) Dimension = 39
Calculate PGC overlap integrals             ... done (  0.0 sec) Dimension = 20
Calculating pre-screening integrals (ORCA)  ... done (  0.0 sec) Dimension = 20
Shell pair information
Shell pair cut-off parameter TPreSel        ...   2.5e-12
Total number of shell pairs                 ...       780
Shell pairs after pre-screening             ...       698
Total number of primitive shell pairs       ...       864
Primitive shell pairs kept                  ...       782
          la=0 lb=0:    221 shell pairs
          la=1 lb=0:    249 shell pairs
          la=1 lb=1:     78 shell pairs
          la=2 lb=0:     92 shell pairs
          la=2 lb=1:     48 shell pairs
          la=2 lb=2:     10 shell pairs

Checking whether 4 symmetric matrices of dimension 79 fit in memory
:Max Core in MB      =   4096.00
 MB in use           =      1.90
 MB left             =   4094.10
 MB needed           =      0.10
 Data fit in memory  = YES
Calculating Nuclear repulsion               ... done (  0.0 sec) ENN=     11.815837557985 Eh

Diagonalization of the overlap matrix:
Smallest eigenvalue                        ... 4.555e-03
Time for diagonalization                   ...    0.001 sec
Threshold for overlap eigenvalues          ... 1.000e-07
Number of eigenvalues below threshold      ... 0
Time for construction of square roots      ...    0.001 sec
Total time needed                          ...    0.004 sec

-------------------
DFT GRID GENERATION
-------------------

General Integration Accuracy     IntAcc      ... 4.388
Radial Grid Type                 RadialGrid  ... OptM3 with GC (2021)
Angular Grid (max. ang.)         AngularGrid ... 4 (Lebedev-302)
Angular grid pruning method      GridPruning ... 4 (adaptive)
Weight generation scheme         WeightScheme... mBecke (2022)
Basis function cutoff            BFCut       ... 1.0000e-11
Integration weight cutoff        WCut        ... 1.0000e-14
Partially contracted basis set               ... off
Rotationally invariant grid construction     ... off
Angular grids for H and He will be reduced by one unit
Diffuse basis detected: some atoms will have their outermost
                        angular grid increased by 1.

Total number of grid points                  ...    14126
Total number of batches                      ...      221
Average number of points per batch           ...       63
Average number of grid points per atom       ...     7063

---------------------
SHARK GRID GENERATION
---------------------

General Integration Accuracy     IntAcc      ... 4.388
Radial Grid Type                 RadialGrid  ... OptM3 with GC (2021)
Angular Grid (max. ang.)         AngularGrid ... 4 (Lebedev-302)
Angular grid pruning method      GridPruning ... 4 (adaptive)
Weight generation scheme         WeightScheme... mBecke (2022)
Basis function cutoff            BFCut       ... 1.0000e-11
Integration weight cutoff        WCut        ... 1.0000e-14
Partially contracted basis set               ... off
Rotationally invariant grid construction     ... off
Angular grids for H and He will be reduced by one unit
Diffuse basis detected: some atoms will have their outermost
                        angular grid increased by 1.
Core-polarized basis detected: some atoms will have their core
                               angular grid increased.
Steep s-basis detected: some atoms will have their radial
                        grid points doubled.

Total number of grid points                  ...    33087
Total number of batches                      ...      518
Average number of points per batch           ...       63
Average number of grid points per atom       ...    16544
Grids setup in   0.7 sec
Initializing property integral containers    ... done (  0.0 sec)

SHARK setup successfully completed in   0.8 seconds

Maximum memory used throughout the entire STARTUP-calculation: 25.1 MB


           ************************************************************
           *        Program running with 8 parallel MPI-processes     *
           *              working on a common directory               *
           ************************************************************
-------------------------------------------------------------------------------
                                 ORCA GUESS
                   Start orbitals & Density for SCF / CASSCF
-------------------------------------------------------------------------------

------------
SCF SETTINGS
------------
Hamiltonian:
 Density Functional     Method          .... DFT(GTOs)
 Exchange Functional    Exchange        .... no Exchange
  Functional kind                       .... Correlation
  Functional name                       .... Minnesota N12 correlation functional
  Functional family                     .... GGA
  Functional refs                              
    [ 0] R. Peverati and D. G. Truhlar.,  J. Chem. Theory Comput. 8, 2310 (2012), doi: 10.1021/ct3002656
  Functional external parameters        .... 10
    Parameter  0 _css0      =  1.000000e+00 : u^0 coefficient for same-spin correlation
    Parameter  1 _css1      = -5.531700e+00 : u^1 coefficient for same-spin correlation
    Parameter  2 _css2      =  3.079580e+01 : u^2 coefficient for same-spin correlation
    Parameter  3 _css3      = -5.641960e+01 : u^3 coefficient for same-spin correlation
    Parameter  4 _css4      =  3.212500e+01 : u^4 coefficient for same-spin correlation
    Parameter  5 _cos0      =  1.000000e+00 : u^0 coefficient for opposite-spin correlation
    Parameter  6 _cos1      =  3.245110e+00 : u^1 coefficient for opposite-spin correlation
    Parameter  7 _cos2      = -2.528930e+01 : u^2 coefficient for opposite-spin correlation
    Parameter  8 _cos3      =  1.444070e+01 : u^3 coefficient for opposite-spin correlation
    Parameter  9 _cos4      =  1.968700e+01 : u^4 coefficient for opposite-spin correlation
 Gradients option       PostSCFGGA      .... off


General Settings:
 Integral files         IntName         .... /cluster/projects/nn14654k/ylvaos/basis_set_n_funcs/functionals/gga_c_N12/LiS/inp/LiS_gga_c_N12_augccpvdz
 Hartree-Fock type      HFTyp           .... UHF
 Total Charge           Charge          ....    0
 Multiplicity           Mult            ....    2
 Number of Electrons    NEL             ....   19
 Basis Dimension        Dim             ....   50
 Nuclear Repulsion      ENuc            ....     11.8158375580 Eh

Convergence Acceleration:
 AO-DIIS                CNVDIIS         .... on
   Start iteration      DIISMaxIt       ....    12
   Startup error        DIISStart       ....  0.200000
   # of expansion vecs  DIISMaxEq       ....     5
   Bias factor          DIISBfac        ....   1.050
   Max. coefficient     DIISMaxC        ....  10.000
 MO-DIIS                CNVKDIIS        .... off
 Trust-Rad. Augm. Hess. CNVTRAH         .... auto
   Auto Start mean grad. ratio tolernc. ....  1.125000
   Auto Start start iteration           ....    50
   Auto Start num. interpolation iter.  ....    10
   Max. Number of Micro iterations      ....    24
   Max. Number of Macro iterations      .... Maxiter - #DIIS iter
   Number of Davidson start vectors     ....     2
   Converg. threshold    (grad. norm)   ....   1.000e-05
   Grad. Scal. Fac. for Micro threshold ....   0.100
   Minimum threshold for Micro iter.    ....   1.000e-02
   NR start threshold (gradient norm)   ....   1.000e-04
   Initial trust radius                 ....   0.400
   Minimum AH scaling param. (alpha)    ....   1.000
   Maximum AH scaling param. (alpha)    .... 1000.000
   Quad. conv. algorithm                .... NR
   White noise on init. David. guess    .... on
   Maximum white noise                  ....   0.010
   Pseudo random numbers                .... off
   Inactive MOs                         .... canonical
   Orbital update algorithm             .... Taylor
   Preconditioner                       .... Diag
   Full preconditioner red. dimension   ....   250
 SOSCF                 CNVSOSCF           .... on
   Start iteration     SOSCFMaxIt         ....   150
   Startup grad/error  SOSCFStart         ....  0.003300
   Hessian update      SOSCFHessUp        .... L-BFGS
   Autom. constraints  SOSCFAutoConstrain .... off
 Level Shifting         CNVShift        .... on
   Level shift para.    LevelShift      ....    0.2500
   Turn off err/grad.   ShiftErr        ....    0.0010
 Zerner damping         CNVZerner       .... off
 Static damping         CNVDamp         .... on
   Fraction old density DampFac         ....    0.7000
   Max. Damping (<1)    DampMax         ....    0.9800
   Min. Damping (>=0)   DampMin         ....    0.0000
   Turn off err/grad.   DampErr         ....    0.1000

SCF Procedure:
 Maximum # iterations   MaxIter         ....   125
 SCF integral mode      SCFMode         .... Direct
   Integral package                     .... SHARK and LIBINT hybrid scheme
 Reset frequency        DirectResetFreq ....    20
 Integral Threshold     Thresh          ....  2.500e-11 Eh
 Primitive CutOff       TCut            ....  2.500e-12 Eh

Convergence Tolerance:
 Convergence Check Mode ConvCheckMode   .... Total+1el-Energy
 Convergence forced     ConvForced      .... 0
 Energy Change          TolE            ....  1.000e-08 Eh
 1-El. energy change                    ....  1.000e-05 Eh
 Orbital Gradient       TolG            ....  1.000e-05
 Orbital Rotation angle TolX            ....  1.000e-05
 DIIS Error             TolErr          ....  5.000e-07

------------------------------
INITIAL GUESS: MODEL POTENTIAL
------------------------------
Loading Hartree-Fock densities                     ... done
Calculating cut-offs                               ... done
Initializing the effective Hamiltonian             ... done
Setting up the integral package (SHARK)            ... done
Starting the Coulomb interaction                   ... done (   0.0 sec)
Making the grid                                    ... done (   0.0 sec)
Mapping shells                                     ... done
Starting the XC term evaluation                    ... done (   0.0 sec)
  promolecular density results
     # of electrons  =     18.999681821
     EX              =      0.000000000
     EC              =     -1.157889371
     EX+EC           =     -1.157889371
Transforming the Hamiltonian                       ... done (   0.0 sec)
Diagonalizing the Hamiltonian                      ... done (   0.0 sec)
Back transforming the eigenvectors                 ... done (   0.0 sec)
Now organizing SCF variables                       ... done
                      ------------------
                      INITIAL GUESS DONE (   0.1 sec)
                      ------------------
             **** ENERGY FILE WAS UPDATED (/cluster/projects/nn14654k/ylvaos/basis_set_n_funcs/functionals/gga_c_N12/LiS/inp/LiS_gga_c_N12_augccpvdz.en.tmp) ****
Finished Guess after   0.2 sec
Maximum memory used throughout the entire GUESS-calculation: 4.2 MB


           ************************************************************
           *        Program running with 8 parallel MPI-processes     *
           *              working on a common directory               *
           ************************************************************

-------------------------------------------------------------------------------------------
                                      ORCA LEAN-SCF
                              memory conserving SCF solver
-------------------------------------------------------------------------------------------

----------------------------------------D-I-I-S--------------------------------------------
Iteration    Energy (Eh)           Delta-E    RMSDP     MaxDP     DIISErr   Damp  Time(sec)
-------------------------------------------------------------------------------------------
               ***  Starting incremental Fock matrix formation  ***
    1    -376.4693494253170343     0.00e+00  7.41e-02  6.00e-01  3.91e-01  0.700   0.1
Warning: op=1 Small HOMO/LUMO gap (  -0.062) - skipping pre-diagonalization
         Will do a full diagonalization
    2    -378.3291848924960732    -1.86e+00  4.91e-02  4.20e-01  1.46e-01  0.700   0.1
                               ***Turning on AO-DIIS***
    3    -379.0394753024739316    -7.10e-01  3.50e-02  2.94e-01  7.22e-02  0.700   0.1
    4    -379.3499669764402142    -3.10e-01  8.31e-02  6.85e-01  7.47e-02  0.000   0.1
    5    -379.6443758810257236    -2.94e-01  5.59e-03  2.37e-02  8.88e-02  0.000   0.1
    6    -379.6750642855781734    -3.07e-02  1.06e-02  5.71e-02  7.59e-02  0.000   0.1
    7    -379.6989934064835666    -2.39e-02  4.54e-03  2.67e-02  7.07e-02  0.000   0.1
    8    -379.7129891223387972    -1.40e-02  3.96e-03  2.19e-02  6.44e-02  0.000   0.1
    9    -379.7191787885960252    -6.19e-03  1.54e-02  9.29e-02  6.23e-02  0.000   0.1
   10    -379.7517138216437615    -3.25e-02  6.16e-03  3.55e-02  2.80e-02  0.000   0.1
   11    -379.7598664325912523    -8.15e-03  3.26e-03  1.61e-02  2.22e-02  0.000   0.1
   12    -379.7632032292600002    -3.34e-03  2.17e-03  9.86e-03  1.67e-02  0.000   0.1
   13    -379.7645895287882354    -1.39e-03  1.49e-03  7.75e-03  1.43e-02  0.000   0.1
   14    -379.7654803750104975    -8.91e-04  1.41e-03  6.97e-03  1.22e-02  0.000   0.1
   15    -379.7663525628133812    -8.72e-04  1.33e-03  7.63e-03  8.70e-03  0.000   0.1
   16    -379.7668928284282970    -5.40e-04  9.29e-04  5.04e-03  6.85e-03  0.000   0.1
   17    -379.7672537188333877    -3.61e-04  8.36e-04  4.35e-03  4.83e-03  0.000   0.1
   18    -379.7674510008120592    -1.97e-04  6.61e-04  3.58e-03  3.85e-03  0.000   0.1
                              *** Initializing SOSCF ***
---------------------------------------S-O-S-C-F--------------------------------------
Iteration    Energy (Eh)           Delta-E    RMSDP     MaxDP     MaxGrad    Time(sec)
--------------------------------------------------------------------------------------
   19    -379.7675782990361881    -1.27e-04  5.94e-04  3.36e-03  3.13e-03     0.1
               *** Restarting incremental Fock matrix formation ***
   20    -379.7676569341847994    -7.86e-05  1.57e-03  6.83e-03  3.36e-03     0.1
   21    -379.7676891027235229    -3.22e-05  1.01e-03  6.00e-03  3.31e-03     0.1
   22    -379.7678621825746745    -1.73e-04  1.11e-03  6.88e-03  1.07e-03     0.1
   23    -379.7679065621874201    -4.44e-05  1.61e-03  1.13e-02  8.77e-04     0.1
   24    -379.7679365461465295    -3.00e-05  6.02e-04  4.03e-03  3.68e-04     0.1
   25    -379.7679420677456505    -5.52e-06  8.01e-04  5.78e-03  2.09e-04     0.1
   26    -379.7679453178908489    -3.25e-06  3.13e-04  2.30e-03  1.26e-04     0.1
   27    -379.7679460799132585    -7.62e-07  1.93e-04  1.27e-03  8.95e-05     0.1
   28    -379.7679464475091322    -3.68e-07  7.86e-05  4.37e-04  3.86e-05     0.1
   29    -379.7679465388310405    -9.13e-08  3.40e-05  1.59e-04  1.49e-05     0.1
   30    -379.7679465580391707    -1.92e-08  2.18e-05  9.26e-05  9.33e-06     0.1
   31    -379.7679465641897423    -6.15e-09  7.51e-06  3.58e-05  4.17e-06     0.1
                 **** Energy Check signals convergence ****

               *****************************************************
               *                     SUCCESS                       *
               *           SCF CONVERGED AFTER  31 CYCLES          *
               *****************************************************

             **** ENERGY FILE WAS UPDATED (/cluster/projects/nn14654k/ylvaos/basis_set_n_funcs/functionals/gga_c_N12/LiS/inp/LiS_gga_c_N12_augccpvdz.en.tmp) ****

----------------
TOTAL SCF ENERGY
----------------

Total Energy       :       -379.76794656529222 Eh          -10334.01120 eV

Components:
Nuclear Repulsion  :         11.81583755798484 Eh             321.52529 eV
Electronic Energy  :       -391.58378412327704 Eh          -10655.53648 eV
One Electron Energy:       -573.90068237378762 Eh          -15616.63150 eV
Two Electron Energy:        182.31689825051060 Eh            4961.09502 eV

Virial components:
Potential Energy   :       -774.41937244970677 Eh          -21073.02246 eV
Kinetic Energy     :        394.65142588441455 Eh           10739.01126 eV
Virial Ratio       :          1.96228702509875

DFT components:
N(Alpha)           :        9.996214485233 electrons
N(Beta)            :        8.998427459841 electrons
N(Total)           :       18.994641945074 electrons
E(X)               :        0.000000000000 Eh       
E(C)               :       -1.125745937828 Eh       
E(XC)              :       -1.125745937828 Eh       

---------------
SCF CONVERGENCE
---------------

  Last Energy change         ...    6.1506e-09  Tolerance :   1.0000e-08
  Last MAX-Density change    ...    3.5828e-05  Tolerance :   1.0000e-07
  Last RMS-Density change    ...    7.5079e-06  Tolerance :   5.0000e-09
  Last DIIS Error            ...    3.1332e-03  Tolerance :   5.0000e-07
  Last Orbital Gradient      ...    4.1658e-06  Tolerance :   1.0000e-05
  Last Orbital Rotation      ...    4.5205e-05  Tolerance :   1.0000e-05


----------------------
UHF SPIN CONTAMINATION
----------------------

Warning: in a DFT calculation there is little theoretical justification to 
         calculate <S**2> as in Hartree-Fock theory. We will do it anyways
         but you should keep in mind that the values have only limited relevance

Expectation value of <S**2>     :     0.797600
Ideal value S*(S+1) for S=0.5   :     0.750000
Deviation                       :     0.047600

----------------
ORBITAL ENERGIES
----------------
                 SPIN UP ORBITALS
  NO   OCC          E(Eh)            E(eV) 
   0   1.0000     -82.805906     -2253.2633 
   1   1.0000      -6.429250      -174.9488 
   2   1.0000      -4.470699      -121.6539 
   3   1.0000      -4.460028      -121.3635 
   4   1.0000      -4.458946      -121.3341 
   5   1.0000      -1.105817       -30.0908 
   6   1.0000      -0.349428        -9.5084 
   7   1.0000      -0.047343        -1.2883 
   8   1.0000      -0.032522        -0.8850 
   9   1.0000      -0.028332        -0.7709 
  10   0.0000      -0.015447        -0.4203 
  11   0.0000       0.004079         0.1110 
  12   0.0000       0.005947         0.1618 
  13   0.0000       0.009524         0.2591 
  14   0.0000       0.023685         0.6445 
  15   0.0000       0.042337         1.1520 
  16   0.0000       0.047827         1.3014 
  17   0.0000       0.062374         1.6973 
  18   0.0000       0.141510         3.8507 
  19   0.0000       0.147743         4.0203 
  20   0.0000       0.156877         4.2688 

                 SPIN DOWN ORBITALS
  NO   OCC          E(Eh)            E(eV) 
   0   1.0000     -82.806410     -2253.2770 
   1   1.0000      -6.431155      -175.0006 
   2   1.0000      -4.474903      -121.7683 
   3   1.0000      -4.461084      -121.3923 
   4   1.0000      -4.459883      -121.3596 
   5   1.0000      -1.105330       -30.0776 
   6   1.0000      -0.358110        -9.7447 
   7   1.0000      -0.034878        -0.9491 
   8   1.0000      -0.031065        -0.8453 
   9   0.0000      -0.063248        -1.7211 
  10   0.0000      -0.018323        -0.4986 
  11   0.0000      -0.008160        -0.2220 
  12   0.0000       0.003149         0.0857 
  13   0.0000       0.008948         0.2435 
  14   0.0000       0.054281         1.4771 
  15   0.0000       0.076303         2.0763 
  16   0.0000       0.089636         2.4391 
  17   0.0000       0.098106         2.6696 
  18   0.0000       0.164320         4.4714 
  19   0.0000       0.174904         4.7594 
*Only the first 10 virtual orbitals were printed.

                    ********************************
                    * MULLIKEN POPULATION ANALYSIS *
                    ********************************

--------------------------------------------
MULLIKEN ATOMIC CHARGES AND SPIN POPULATIONS
--------------------------------------------
   0 Li:    0.017593    0.246990
   1 S :   -0.017593    0.753010
Sum of atomic charges         :   -0.0000000
Sum of atomic spin populations:    1.0000000

-----------------------------------------------------
MULLIKEN REDUCED ORBITAL CHARGES AND SPIN POPULATIONS
-----------------------------------------------------
CHARGE
  0 Lis       :     2.186124  s :     2.186124
      pz      :     0.306383  p :     0.717522
      px      :     0.294325
      py      :     0.116814
      dz2     :     0.037761  d :     0.078760
      dxz     :     0.034108
      dyz     :     0.006370
      dx2y2   :     0.000463
      dxy     :     0.000057

  1 S s       :     5.912445  s :     5.912445
      pz      :     3.460506  p :    10.005384
      px      :     3.641597
      py      :     2.903280
      dz2     :     0.094861  d :     0.099765
      dxz     :     0.001381
      dyz     :     0.002124
      dx2y2   :     0.001244
      dxy     :     0.000155


SPIN
  0 Lis       :     0.114065  s :     0.114065
      pz      :    -0.010061  p :     0.143377
      px      :     0.044226
      py      :     0.109212
      dz2     :     0.004823  d :    -0.010451
      dxz     :    -0.018758
      dyz     :     0.003918
      dx2y2   :    -0.000386
      dxy     :    -0.000048

  1 S s       :    -0.015672  s :    -0.015672
      pz      :    -0.091225  p :     0.767221
      px      :     0.002275
      py      :     0.856171
      dz2     :    -0.000753  d :     0.001461
      dxz     :     0.000845
      dyz     :     0.002111
      dx2y2   :    -0.000660
      dxy     :    -0.000082



                     *******************************
                     * LOEWDIN POPULATION ANALYSIS *
                     *******************************

-------------------------------------------
LOEWDIN ATOMIC CHARGES AND SPIN POPULATIONS
-------------------------------------------
   0 Li:   -0.330470    0.300867
   1 S :    0.330470    0.699133

----------------------------------------------------
LOEWDIN REDUCED ORBITAL CHARGES AND SPIN POPULATIONS
----------------------------------------------------
CHARGE
  0 Lis       :     2.101153  s :     2.101153
      pz      :     0.334370  p :     0.834725
      px      :     0.347405
      py      :     0.152951
      dz2     :     0.195194  d :     0.394591
      dxz     :     0.132101
      dyz     :     0.066756
      dx2y2   :     0.000481
      dxy     :     0.000060

  1 S s       :     5.583711  s :     5.583711
      pz      :     3.699159  p :     9.998296
      px      :     3.490837
      py      :     2.808300
      dz2     :     0.084494  d :     0.087523
      dxz     :     0.001070
      dyz     :     0.000580
      dx2y2   :     0.001226
      dxy     :     0.000153


SPIN
  0 Lis       :     0.058081  s :     0.058081
      pz      :     0.008079  p :     0.198695
      px      :     0.046550
      py      :     0.144066
      dz2     :    -0.000338  d :     0.044091
      dxz     :    -0.016921
      dyz     :     0.061798
      dx2y2   :    -0.000398
      dxy     :    -0.000049

  1 S s       :    -0.000776  s :    -0.000776
      pz      :    -0.063552  p :     0.700333
      px      :    -0.001114
      py      :     0.764999
      dz2     :    -0.000318  d :    -0.000424
      dxz     :     0.000073
      dyz     :     0.000549
      dx2y2   :    -0.000648
      dxy     :    -0.000081



                      *****************************
                      * MAYER POPULATION ANALYSIS *
                      *****************************

  NA   - Mulliken gross atomic population
  ZA   - Total nuclear charge
  QA   - Mulliken gross atomic charge
  VA   - Mayer's total valence
  BVA  - Mayer's bonded valence
  FA   - Mayer's free valence

  ATOM       NA         ZA         QA         VA         BVA        FA
  0 Li     2.9824     3.0000     0.0176     2.5477     2.4988     0.0489
  1 S     16.0176    16.0000    -0.0176     3.2895     2.4988     0.7907

  Mayer bond orders larger than 0.100000
B(  0-Li,  1-S ) :   2.4988 

-------
TIMINGS
-------

Total SCF time: 0 days 0 hours 0 min 2 sec 

Total time                  ....       2.769 sec
Sum of individual times     ....       2.642 sec  ( 95.4%)

SCF preparation             ....       0.065 sec  (  2.3%)
Fock matrix formation       ....       1.711 sec  ( 61.8%)
  Startup                   ....       0.028 sec  (  1.6% of F)
  Coulomb formation         ....       0.226 sec  ( 13.2% of F)
  XC integration            ....       0.740 sec  ( 43.2% of F)
    XC Preparation          ....       0.000 sec  (  0.0% of XC)
    Basis function eval.    ....       0.042 sec  (  5.7% of XC)
    Density eval.           ....       0.019 sec  (  2.6% of XC)
    XC-Functional eval.     ....       0.031 sec  (  4.2% of XC)
    XC-Potential eval.      ....       0.046 sec  (  6.3% of XC)
Diagonalization             ....       0.000 sec  (  0.0%)
Density matrix formation    ....       0.267 sec  (  9.6%)
Total Energy calculation    ....       0.067 sec  (  2.4%)
Population analysis         ....       0.012 sec  (  0.4%)
Orbital Transformation      ....       0.022 sec  (  0.8%)
Orbital Orthonormalization  ....       0.000 sec  (  0.0%)
DIIS solution               ....       0.165 sec  (  6.0%)
SOSCF solution              ....       0.333 sec  ( 12.0%)
Finished LeanSCF after   2.8 sec

Maximum memory used throughout the entire LEANSCF-calculation: 6.2 MB


           ************************************************************
           *        Program running with 8 parallel MPI-processes     *
           *              working on a common directory               *
           ************************************************************

------------------------------------------------------------------------------
                         ORCA PROPERTY INTEGRAL CALCULATIONS
------------------------------------------------------------------------------

GBWName                                   ... /cluster/projects/nn14654k/ylvaos/basis_set_n_funcs/functionals/gga_c_N12/LiS/inp/LiS_gga_c_N12_augccpvdz.gbw
Number of atoms                           ...      2
Number of basis functions                 ...     79
Max core memory                           ...   4096 MB

Dipole integrals                          ... YES
Quadrupole integrals                      ... YES
Linear momentum integrals                 ...  NO
Angular momentum integrals                ...  NO
Higher moments length integrals           ...  NO
Higher moments velocity integrals         ...  NO
Kinetic energy integrals                  ...  NO
GIAO right hand sides                     ...  NO
GIAO dipole derivative integrals          ...  NO
SOC integrals                             ...  NO
EPR diamagnetic integrals (GIAO)          ...  NO
EPR gauge integrals                       ...  NO
Field gradient integrals                  ...  NO (   0 nuclei)
Spin-dipole/Fermi contact integrals       ...  NO (   0 nuclei)
Contact density integrals                 ...  NO (   0 nuclei)
Nucleus-orbit integrals                   ...  NO (   0 nuclei)
Geometric perturbations                   ...  NO (   2 nuclei)

Choice of electric origin   ... Center of mass
Position of electric origin ... (  0.0000,  0.0000,  1.3082) 
Choice of magnetic origin   ... GIAO
Position of magnetic origin ... (  0.0000,  0.0000,  0.0000) 

Calculating integrals                     ... Electric Dipole (Length)     done (  0.0 sec)
Calculating integrals                     ... Electric Quadrupole (Length) done (  0.0 sec)

Property integrals calculated in   0.0 sec

Maximum memory used throughout the entire PROPINT-calculation: 4.4 MB
------------------------------------------------------------------------------
                           ORCA ORBITAL LOCALIZATION
------------------------------------------------------------------------------

Input orbitals are from                  ... /cluster/projects/nn14654k/ylvaos/basis_set_n_funcs/functionals/gga_c_N12/LiS/inp/LiS_gga_c_N12_augccpvdz.gbw
Output orbitals are to                   ... /cluster/projects/nn14654k/ylvaos/basis_set_n_funcs/functionals/gga_c_N12/LiS/inp/LiS_gga_c_N12_augccpvdz.loc
Max. number of iterations                ... 128
Localizations seeded randomly            ... on
Convergence tolerance                    ... 1.000e-06
Threshold for strong local MOs           ... 9.500e-01
Threshold for bond MOs                   ... 8.500e-01
Operator                                 ... 0
Orbital range for localization           ... 2 to 9
Localization criterion                   ... NEW-BOYS
Doing the dipole integrals               ... o.k.
Initial value of the localization sum :    13.680215
ITERATION   0 : L=   17.0745296602 DL=  3.39e+00 (AVERGE_DL)=    0.3481745493 
ITERATION   1 : L=   17.3136483479 DL=  2.39e-01 (AVERGE_DL)=    0.0924118668 
ITERATION   2 : L=   17.4111143685 DL=  9.75e-02 (AVERGE_DL)=    0.0589994009 
ITERATION   3 : L=   17.4937728331 DL=  8.27e-02 (AVERGE_DL)=    0.0543331209 
ITERATION   4 : L=   17.5391920346 DL=  4.54e-02 (AVERGE_DL)=    0.0402754806 
ITERATION   5 : L=   17.5559404015 DL=  1.67e-02 (AVERGE_DL)=    0.0244572272 
ITERATION   6 : L=   17.5608151015 DL=  4.87e-03 (AVERGE_DL)=    0.0131945605 
ITERATION   7 : L=   17.5620704340 DL=  1.26e-03 (AVERGE_DL)=    0.0066957675 
ITERATION   8 : L=   17.5624080685 DL=  3.38e-04 (AVERGE_DL)=    0.0034725173 
ITERATION   9 : L=   17.5625473745 DL=  1.39e-04 (AVERGE_DL)=    0.0022305192 
ITERATION  10 : L=   17.5626519187 DL=  1.05e-04 (AVERGE_DL)=    0.0019322840 
ITERATION  11 : L=   17.5627516621 DL=  9.97e-05 (AVERGE_DL)=    0.0018873953 
ITERATION  12 : L=   17.5628493172 DL=  9.77e-05 (AVERGE_DL)=    0.0018675345 
ITERATION  13 : L=   17.5629436549 DL=  9.43e-05 (AVERGE_DL)=    0.0018355391 
ITERATION  14 : L=   17.5630336405 DL=  9.00e-05 (AVERGE_DL)=    0.0017926992 
ITERATION  15 : L=   17.5631187772 DL=  8.51e-05 (AVERGE_DL)=    0.0017437308 
ITERATION  16 : L=   17.5631989161 DL=  8.01e-05 (AVERGE_DL)=    0.0016917751 
ITERATION  17 : L=   17.5632740928 DL=  7.52e-05 (AVERGE_DL)=    0.0016385606 
ITERATION  18 : L=   17.5633444365 DL=  7.03e-05 (AVERGE_DL)=    0.0015850154 
ITERATION  19 : L=   17.5634101232 DL=  6.57e-05 (AVERGE_DL)=    0.0015316509 
ITERATION  20 : L=   17.5634713541 DL=  6.12e-05 (AVERGE_DL)=    0.0014787899 
ITERATION  21 : L=   17.5635283420 DL=  5.70e-05 (AVERGE_DL)=    0.0014266325 
ITERATION  22 : L=   17.5635813061 DL=  5.30e-05 (AVERGE_DL)=    0.0013753461 
ITERATION  23 : L=   17.5636304651 DL=  4.92e-05 (AVERGE_DL)=    0.0013250202 
ITERATION  24 : L=   17.5636760377 DL=  4.56e-05 (AVERGE_DL)=    0.0012757709 
ITERATION  25 : L=   17.5637182376 DL=  4.22e-05 (AVERGE_DL)=    0.0012276569 
ITERATION  26 : L=   17.5637572751 DL=  3.90e-05 (AVERGE_DL)=    0.0011807602 
ITERATION  27 : L=   17.5637933519 DL=  3.61e-05 (AVERGE_DL)=    0.0011351016 
ITERATION  28 : L=   17.5638266631 DL=  3.33e-05 (AVERGE_DL)=    0.0010907274 
ITERATION  29 : L=   17.5638573949 DL=  3.07e-05 (AVERGE_DL)=    0.0010476475 
ITERATION  30 : L=   17.5638857264 DL=  2.83e-05 (AVERGE_DL)=    0.0010059020 
ITERATION  31 : L=   17.5639118261 DL=  2.61e-05 (AVERGE_DL)=    0.0009654697 
ITERATION  32 : L=   17.5639358552 DL=  2.40e-05 (AVERGE_DL)=    0.0009263812 
ITERATION  33 : L=   17.5639579641 DL=  2.21e-05 (AVERGE_DL)=    0.0008885977 
ITERATION  34 : L=   17.5639782965 DL=  2.03e-05 (AVERGE_DL)=    0.0008521483 
ITERATION  35 : L=   17.5639969842 DL=  1.87e-05 (AVERGE_DL)=    0.0008169551 
ITERATION  36 : L=   17.5640141529 DL=  1.72e-05 (AVERGE_DL)=    0.0007830507 
ITERATION  37 : L=   17.5640299193 DL=  1.58e-05 (AVERGE_DL)=    0.0007503905 
ITERATION  38 : L=   17.5640443924 DL=  1.45e-05 (AVERGE_DL)=    0.0007189561 
ITERATION  39 : L=   17.5640576736 DL=  1.33e-05 (AVERGE_DL)=    0.0006887146 
ITERATION  40 : L=   17.5640698571 DL=  1.22e-05 (AVERGE_DL)=    0.0006596397 
ITERATION  41 : L=   17.5640810301 DL=  1.12e-05 (AVERGE_DL)=    0.0006316936 
ITERATION  42 : L=   17.5640912738 DL=  1.02e-05 (AVERGE_DL)=    0.0006048524 
ITERATION  43 : L=   17.5641006630 DL=  9.39e-06 (AVERGE_DL)=    0.0005790737 
ITERATION  44 : L=   17.5641092672 DL=  8.60e-06 (AVERGE_DL)=    0.0005543415 
ITERATION  45 : L=   17.5641171502 DL=  7.88e-06 (AVERGE_DL)=    0.0005305999 
ITERATION  46 : L=   17.5641243710 DL=  7.22e-06 (AVERGE_DL)=    0.0005078219 
ITERATION  47 : L=   17.5641309840 DL=  6.61e-06 (AVERGE_DL)=    0.0004859844 
ITERATION  48 : L=   17.5641370397 DL=  6.06e-06 (AVERGE_DL)=    0.0004650519 
ITERATION  49 : L=   17.5641425839 DL=  5.54e-06 (AVERGE_DL)=    0.0004449800 
ITERATION  50 : L=   17.5641476592 DL=  5.08e-06 (AVERGE_DL)=    0.0004257486 
ITERATION  51 : L=   17.5641523049 DL=  4.65e-06 (AVERGE_DL)=    0.0004073318 
ITERATION  52 : L=   17.5641565567 DL=  4.25e-06 (AVERGE_DL)=    0.0003896793 
ITERATION  53 : L=   17.5641604476 DL=  3.89e-06 (AVERGE_DL)=    0.0003727727 
ITERATION  54 : L=   17.5641640079 DL=  3.56e-06 (AVERGE_DL)=    0.0003565845 
ITERATION  55 : L=   17.5641672655 DL=  3.26e-06 (AVERGE_DL)=    0.0003410931 
ITERATION  56 : L=   17.5641702458 DL=  2.98e-06 (AVERGE_DL)=    0.0003262519 
ITERATION  57 : L=   17.5641729723 DL=  2.73e-06 (AVERGE_DL)=    0.0003120448 
ITERATION  58 : L=   17.5641754663 DL=  2.49e-06 (AVERGE_DL)=    0.0002984495 
ITERATION  59 : L=   17.5641777477 DL=  2.28e-06 (AVERGE_DL)=    0.0002854439 
ITERATION  60 : L=   17.5641798343 DL=  2.09e-06 (AVERGE_DL)=    0.0002729875 
ITERATION  61 : L=   17.5641817427 DL=  1.91e-06 (AVERGE_DL)=    0.0002610716 
ITERATION  62 : L=   17.5641834881 DL=  1.75e-06 (AVERGE_DL)=    0.0002496724 
ITERATION  63 : L=   17.5641850844 DL=  1.60e-06 (AVERGE_DL)=    0.0002387628 
ITERATION  64 : L=   17.5641865442 DL=  1.46e-06 (AVERGE_DL)=    0.0002283368 
ITERATION  65 : L=   17.5641878792 DL=  1.34e-06 (AVERGE_DL)=    0.0002183568 
ITERATION  66 : L=   17.5641890999 DL=  1.22e-06 (AVERGE_DL)=    0.0002087967 
ITERATION  67 : L=   17.5641902161 DL=  1.12e-06 (AVERGE_DL)=    0.0001996606 
ITERATION  68 : L=   17.5641912368 DL=  1.02e-06 (AVERGE_DL)=    0.0001909216 
ITERATION  69 : L=   17.5641921700 DL=  9.33e-07 (AVERGE_DL)=    0.0001825661 
LOCALIZATION SUM CONVERGED


--------------------------------------------------------------------------------
                    LOCALIZED MOLECULAR ORBITAL COMPOSITIONS
--------------------------------------------------------------------------------

The Mulliken populations for each LMO on each atom are computed
The LMO`s will be ordered according to atom index and type
  (A) Strongly localized MO`s have populations of >=0.950 on one atom
  (B) Two center bond orbitals have populations of >=0.850 on two atoms
  (C) Other MO`s are considered to be `delocalized`

FOUND  -   4 strongly local MO`s
       -   4 two center bond MO`s
       -   0 significantly delocalized MO`s

Rather strongly localized orbitals:
MO   5:   1S  -   0.977764
MO   4:   1S  -   0.999050
MO   3:   1S  -   0.999117
MO   2:   1S  -   0.999041
Bond-like localized orbitals:
MO   9:   1S  -   0.709216  and   0Li -   0.290784
MO   8:   1S  -   0.793586  and   0Li -   0.206414
MO   7:   1S  -   0.710389  and   0Li -   0.289611
MO   6:   1S  -   0.202788  and   0Li -   0.797212
Localized MO's were stored in: /cluster/projects/nn14654k/ylvaos/basis_set_n_funcs/functionals/gga_c_N12/LiS/inp/LiS_gga_c_N12_augccpvdz.loc
------------------------------------------------------------------------------
                           ORCA ORBITAL LOCALIZATION
------------------------------------------------------------------------------

Input orbitals are from                  ... /cluster/projects/nn14654k/ylvaos/basis_set_n_funcs/functionals/gga_c_N12/LiS/inp/LiS_gga_c_N12_augccpvdz.loc
Output orbitals are to                   ... /cluster/projects/nn14654k/ylvaos/basis_set_n_funcs/functionals/gga_c_N12/LiS/inp/LiS_gga_c_N12_augccpvdz.loc
Max. number of iterations                ... 128
Localizations seeded randomly            ... on
Convergence tolerance                    ... 1.000e-06
Threshold for strong local MOs           ... 9.500e-01
Threshold for bond MOs                   ... 8.500e-01
Operator                                 ... 1
Orbital range for localization           ... 2 to 8
Localization criterion                   ... NEW-BOYS
Doing the dipole integrals               ... o.k.
Initial value of the localization sum :    13.832719
ITERATION   0 : L=   17.2564824169 DL=  3.42e+00 (AVERGE_DL)=    0.4037776134 
ITERATION   1 : L=   17.5063341515 DL=  2.50e-01 (AVERGE_DL)=    0.1090765862 
ITERATION   2 : L=   17.5095133274 DL=  3.18e-03 (AVERGE_DL)=    0.0123040372 
ITERATION   3 : L=   17.5095655850 DL=  5.23e-05 (AVERGE_DL)=    0.0015774843 
ITERATION   4 : L=   17.5095698404 DL=  4.26e-06 (AVERGE_DL)=    0.0004501504 
ITERATION   5 : L=   17.5095701921 DL=  3.52e-07 (AVERGE_DL)=    0.0001294217 
LOCALIZATION SUM CONVERGED


--------------------------------------------------------------------------------
                    LOCALIZED MOLECULAR ORBITAL COMPOSITIONS
--------------------------------------------------------------------------------

The Mulliken populations for each LMO on each atom are computed
The LMO`s will be ordered according to atom index and type
  (A) Strongly localized MO`s have populations of >=0.950 on one atom
  (B) Two center bond orbitals have populations of >=0.850 on two atoms
  (C) Other MO`s are considered to be `delocalized`

FOUND  -   4 strongly local MO`s
       -   3 two center bond MO`s
       -   0 significantly delocalized MO`s

Rather strongly localized orbitals:
MO   5:   1S  -   1.023870
MO   4:   1S  -   0.999542
MO   3:   1S  -   0.999727
MO   2:   1S  -   0.999543
Bond-like localized orbitals:
MO   8:   1S  -   0.706257  and   0Li -   0.293743
MO   7:   1S  -   0.706303  and   0Li -   0.293697
MO   6:   1S  -   0.202833  and   0Li -   0.797167
Localized MO's were stored in: /cluster/projects/nn14654k/ylvaos/basis_set_n_funcs/functionals/gga_c_N12/LiS/inp/LiS_gga_c_N12_augccpvdz.loc

-------------------------   --------------------
FINAL SINGLE POINT ENERGY      -379.767946565292
-------------------------   --------------------



           ************************************************************
           *        Program running with 8 parallel MPI-processes     *
           *              working on a common directory               *
           ************************************************************

------------------------------------------------------------------------------
                              ORCA PROPERTY CALCULATIONS
------------------------------------------------------------------------------

GBWName                                 ... /cluster/projects/nn14654k/ylvaos/basis_set_n_funcs/functionals/gga_c_N12/LiS/inp/LiS_gga_c_N12_augccpvdz.gbw
Number of atoms                         ...      2
Number of basis functions               ...     79
Max core memory                         ...   4096 MB

Electric properties:
Dipole moment                           ... YES
Quadrupole moment                       ... YES
Static polarizability (Dipole/Dipole)   ...  NO
Static polarizability (Dipole/Quad.)    ...  NO
Static polarizability (Quad./Quad.)     ...  NO
Static polarizability (Velocity)        ...  NO
Static hyperpolarizability              ...  NO

Atomic electric properties:
Dipole moment                           ...  NO
Quadrupole moment                       ...  NO
Static polarizability                   ...  NO

Choice of electric origin               ... Center of mass
Position of electric origin             ...     0.000000     0.000000     1.308198

General magnetic properties:
Magnetizability                         ...  NO

EPR properties:
g-Tensor (aka g-matrix)                 ...  NO
Zero-Field splitting spin-orbit         ...  NO
Zero-field splitting spin-spin          ...  NO
Hyperfine couplings                     ...  NO (   0 nuclei)
Quadrupole couplings                    ...  NO (   0 nuclei)
Contact density                         ...  NO (   0 nuclei)

NMR properties:
Chemical shifts                         ...  NO (   0 nuclei)
Spin-rotation constants                 ...  NO (   0 nuclei)
Spin-spin couplings                     ...  NO (   0 nuclei,    0 pairs)

Choice of magnetic origin               ... GIAO
Position of magnetic origin             ...     0.000000     0.000000     0.000000

Properties with geometric perturbations:
SCF Hessian                             ...  NO
IR spectrum                             ...  NO
VCD spectrum                            ...  NO
X-ray spectroscopy properties:
SCF XES/XAS/RIXS spectra                ...  NO

SCF SOC stabilization energy            ...  NO
Diagonal Born-Oppenheimer correction    ...  NO

-------------
DIPOLE MOMENT
-------------

Method             : SCF
Type of density    : Electron Density
Multiplicity       :   2
Irrep              :   0
Energy             :  -379.7679465652922204 Eh
Basis              : AO
                                X                 Y                 Z
Electronic contribution:      0.000003549       0.000020452      -3.160962711
Nuclear contribution   :      0.000000000       0.000000000       1.549484202
                        -----------------------------------------
Total Dipole Moment    :      0.000003549       0.000020452      -1.611478509
                        -----------------------------------------
Magnitude (a.u.)       :      1.611478509
Magnitude (Debye)      :      4.096052851



--------------------
Rotational spectrum 
--------------------
 
Rotational constants in cm-1:             0.000000             0.639339             0.639339 
Rotational constants in MHz :             0.000000         19166.891897         19166.891897 

Dipole components along the rotational axes: 
x,y,z [a.u.] :    -1.611479     0.000020     0.000004 
x,y,z [Debye]:    -4.096053     0.000052     0.000009 

 

Dipole moment calculation done in   0.0 sec 

-----------------
QUADRUPOLE MOMENT
-----------------

Method             : SCF
Type of density    : Electron Density
Multiplicity       :   2
Irrep              :   0
Energy             :  -379.7679465652922204 Eh
Basis              : AO

                XX              YY              ZZ              XY              XZ              YZ
  NUC        0.000000000     0.000000000    41.817245673     0.000000000     0.000000000     0.000000000
  EL       -25.778578657   -20.760320712   -57.577076756     0.886743107    -0.000000139     0.000006228
  TOT      -25.778578657   -20.760320712   -15.759831082     0.886743107    -0.000000139     0.000006228 (a.u.)
           -34.673069921   -27.923341361   -21.197511792     1.192699805    -0.000000187     0.000008377 (Buckingham)

diagonalized tensor:
           -25.930660224   -20.608239144   -15.759831082 (a.u.)
           -34.877624830   -27.718786451   -21.197511792 (Buckingham)
           -20.838951417     0.637563720    20.201387697 (traceless form in Buckingham)

            -0.985609579     0.169037739     0.000000098
             0.169037739     0.985609579     0.000001263
            -0.000000117    -0.000001261     1.000000000
        
Isotropic quadrupole :   -20.766243484

Quadrupole moment calculation done in   0.0 sec (  0.0 sec for integrals)

Maximum memory used throughout the entire PROP-calculation: 2.1 MB

--------------------------------
SUGGESTED CITATIONS FOR THIS RUN
--------------------------------

Below you find a list of papers that are relevant to this ORCA run
We neither can nor want to force you to cite these papers, but we appreciate if you do
You receive ORCA, which is the product of decades of hard work by many enthusiastic individuals, for free
The only thing we kindly ask in return is that you cite our papers,
We deeply appreciate it, if you show your appreciation for ORCA by not just citing the generic ORCA reference.

Please note that relegating all ORCA citations to the supporting information does *not* help us.
SI sections are not indexed - citations you put there will not count into any citation statistics
But we need these citations in order to attract the funding resources that allow us to do what we are doing

Therefore, if you are a happy ORCA user, please consider citing a few of the papers listed below in the main body of your paper

In addition to the list printed below, the program has created the file /cluster/projects/nn14654k/ylvaos/basis_set_n_funcs/functionals/gga_c_N12/LiS/inp/LiS_gga_c_N12_augccpvdz.bibtex that contains the list in bibtex format
You can import this file easily into all common literature databanks and citation aid programs

It goes without saying that in many instances, there are alternative algorithms to achieve similar
results as the ones you have gotten from ORCA. It is, of course, also the case that in some instances
ORCA just re-implements algorithms worked out by others. We are fully aware of that and we are also
fully appreciative of our colleagues work. Hence this citation list should not be read as indicating
that the listed papers, which are focused on our own work, are the only ones worth citing. It simply
meant to make it easier for users to cite ORCA specific papers. It is not a substitute for doing your
own literature research and citing the relevant literature in a scientifically appropriate manner.

List of essential papers. We consider these as the minimum necessary citations

  1. Neese, F.
     Software update: the ORCA program system, version 6.0
     WIRES Comput. Molec. Sci. 2025 15(1), e70019
     doi.org/10.1002/wcms.70019

List of papers to cite with high priority. The work reported in these papers was absolutely
necessary for this run to complete.
Our perspective: the developers of density functionals and basis sets usually get cited in chemistry papers
Good! But without the algorithms to do something with them, the functionals or basis sets would not do anything.
Hence, in our opinion, the algorithm design and method developments papers are equally worthy of getting cited

  1. Lehtola, S.; Steigemann, C.; Oliveira, M.; Marques, M.
     Recent developments in Libxc - A comprehensive library of functionals for density functional theory
     Software X 2018 7 , 
     doi.org/10.1016/j.softx.2017.11.002
  2. Neese, F.
     The SHARK Integral Generation and Digestion System
     J. Comp. Chem. 2022 44(3), 381
     doi.org/10.1002/jcc.26942

List of suggested additional citations. These are papers that are important in the 'surrounding' of 
of this run, or papers that preceded the highly important papers. If you like your results we are grateful for a citation.

  1. Neese, F.
     The ORCA program system
     WIRES Comput. Molec. Sci. 2012 2(1), 73-78
     doi.org/10.1002/wcms.81
  2. Neese, F.
     Software update: the ORCA program system, version 4.0
     WIRES Comput. Molec. Sci. 2018 8(1), 1-6
     doi.org/10.1002/wcms.1327
  3. Neese, F.; Wennmohs, F.; Becker, U.; Riplinger, C.
     The ORCA quantum chemistry program package
     J. Chem. Phys. 2020 152(22), 224108
     doi.org/10.1063/5.0004608
  4. Neese, F.
     Software update: The ORCA program system—Version 5.0
     WIRES Comput. Molec. Sci. 2022 12(1), e1606
     doi.org/10.1002/wcms.1606

List of optional additional citations

  1. Neese, F.
     Approximate second-order SCF convergence for spin unrestricted wavefunctions
     Chem. Phys. Lett. 2000 325(1-3), 93-98
     doi.org/10.1016/s0009-2614(00)00662-x

Timings for individual modules:

Sum of individual times          ...        4.926 sec (=   0.082 min)
Startup calculation              ...        1.099 sec (=   0.018 min)  22.3 %
SCF iterations                   ...        3.332 sec (=   0.056 min)  67.6 %
Property integrals               ...        0.244 sec (=   0.004 min)   4.9 %
Property calculations            ...        0.240 sec (=   0.004 min)   4.9 %
Orbital localization             ...        0.012 sec (=   0.000 min)   0.2 %
                             ****ORCA TERMINATED NORMALLY****
TOTAL RUN TIME: 0 days 0 hours 0 minutes 5 seconds 706 msec
