
                                 *****************
                                 * O   R   C   A *
                                 *****************

                                            #,                                       
                                            ###                                      
                                            ####                                     
                                            #####                                    
                                            ######                                   
                                           ########,                                 
                                     ,,################,,,,,                         
                               ,,#################################,,                 
                          ,,##########################################,,             
                       ,#########################################, ''#####,          
                    ,#############################################,,   '####,        
                  ,##################################################,,,,####,       
                ,###########''''           ''''###############################       
              ,#####''   ,,,,##########,,,,          '''####'''          '####       
            ,##' ,,,,###########################,,,                        '##       
           ' ,,###''''                  '''############,,,                           
         ,,##''                                '''############,,,,        ,,,,,,###''
      ,#''                                            '''#######################'''  
     '                                                          ''''####''''         
             ,#######,   #######,   ,#######,      ##                                
            ,#'     '#,  ##    ##  ,#'     '#,    #''#        ,####,    ,#,          
            ##       ##  ##   ,#'  ##            #'  '#       #'       ,# #          
            ##       ##  #######   ##           ,######,      #####,      #          
            '#,     ,#'  ##    ##  '#,     ,#' ,#      #,     #,   #      #          
             '#######'   ##     ##  '#######'  #'      '#     '####' #    #          



                #########################################################
                #                        -***-                          #
                #          Department of theory and spectroscopy        #
                #                                                       #
                #                      Frank Neese                      #
                #                                                       #
                #     Directorship, Architecture, Infrastructure        #
                #                    SHARK, DRIVERS                     #
                #        Core code/Algorithms in most modules           #
                #                                                       #
                #        Max Planck Institute fuer Kohlenforschung      #
                #                Kaiser Wilhelm Platz 1                 #
                #                 D-45470 Muelheim/Ruhr                 #
                #                      Germany                          #
                #                                                       #
                #                  All rights reserved                  #
                #                        -***-                          #
                #########################################################


                         Program Version 6.1.1  -  RELEASE   -
                                (GIT: $487d211c$)
                          ($2025-11-21 10:33:24 +0100$)


 With contributions from (in alphabetic order):
[Max-Planck-Institut fuer Kohlenforschung]                               
  Daniel Aravena         : Magnetic Suceptibility                        
  Michael Atanasov       : Ab Initio Ligand Field Theory (pilot matlab implementation)
  Alexander A. Auer      : GIAO ZORA, VPT2 properties, NMR spectrum      
  Ute Becker             : All parallelization in ORCA, NUMFREQ, NUMCALC 
  Giovanni Bistoni       : ED, misc. LED, open-shell LED, HFLD           
  Dmytro Bykov           : pre 5.0 version of the SCF Hessian            
  Marcos Casanova-Páez   : Triplet and SCS-CIS(D). UHF-(DLPNO)-IP/EA/STEOM-CCSD. UHF-CVS-IP/STEOM-CCSD   
  Vijay G. Chilkuri      : MRCI spin determinant printing, contributions to CSF-ICE 
  Pauline Colinet        : FMM embedding                                 
  Dipayan Datta          : RHF DLPNO-CCSD density                        
  Achintya Kumar Dutta   : EOM-CC, STEOM-CC                              
  Nicolas Foglia         : Exact transition moments, OPA infrastructure, MCD improvements    
  Dmitry Ganyushin       : Spin-Orbit,Spin-Spin,Magnetic field MRCI      
  Miquel Garcia-Rates    : C-PCM and meta-GGA Hessian, CCSD/C-PCM, Gaussian charge scheme 
  Tiago L. C. Gouveia    : GS-ROHF, GS-ROCIS                             
  Yang Guo               : DLPNO-NEVPT2, F12-NEVPT2, CIM, IAO-localization        
  Andreas Hansen         : Spin unrestricted coupled pair/coupled cluster methods 
  Ingolf Harden          : AUTO-CI MPn and infrastructure                
  Benjamin Helmich-Paris : MC-RPA, TRAH-(SCF,CASSCF), AVAS, COSX integrals, SCF dyn. polar., MC-PDFT, srDFT 
  Lee Huntington         : MR-EOM, pCC                                   
  Robert Izsak           : Overlap fitted RIJCOSX, COSX-SCS-MP3, EOM     
  Riya Kayal             : Wick's Theorem for AUTO-CI, AUTO-CI UHF-CCSDT 
  Emily Kempfer          : AUTO-CI RHF CISDT and CCSDT, approximate NEVPT4
  Christian Kollmar      : KDIIS, OOCD, Brueckner-CCSD(T), CCSD density, CASPT2, CASPT2-K, improved NEVPT2 
  Axel Koslowski         : Symmetry handling                             
  Simone Kossmann        : meta-GGA functionals, TD-DFT gradient, OOMP2, (MP2 Hessian; deprecated post 5.0) 
  Lucas Lang             : DCDCAS, Hyperfine gauge corrections, ICE-SOC+SSC
  Marvin Lechner         : AUTO-CI (C++ implementation), FIC-MRCC        
  Spencer Leger          : CASSCF response                               
  Dagmar Lenk            : GEPOL surface, SMD, ORCA-2-JSON               
  Dimitrios Liakos       : Extrapolation schemes; Compound Job, Property file
  Dimitrios Manganas     : Further ROCIS development; embedding schemes. LFT, Crystal Embedding 
  Dimitrios Pantazis     : SARC Basis sets                               
  Anastasios Papadopoulos: AUTO-CI, single reference methods and gradients 
  Taras Petrenko         : pre 6.0 DFT Hessian and TD-DFT gradient,  ECA, NRVS 
  Petra Pikulova         : Analytic Raman intensities                    
  Peter Pinski           : DLPNO-MP2, DLPNO-MP2 Gradient                 
  Shashank Vittal Rao    : ES-AILFT, MagRelax                            
  Christoph Reimann      : Effective Core Potentials                     
  Marius Retegan         : Local ZFS, SOC                                
  Christoph Riplinger    : Optimizer, TS searches, QM/MM, DLPNO-CCSD(T), (RO)-DLPNO pert. Triples 
  Michael Roemelt        : Original ROCIS implementation, recursive CI coupling coefficients
  Masaaki Saitow         : Open-shell DLPNO-CCSD energy and density      
  Barbara Sandhoefer     : DKH picture change effects                    
  Yorick L. A. Schmerwitz: GMF and freeze-and-release deltaSCF, NEB S-IDPP initial path                    
  Kantharuban Sivalingam : CASSCF convergence/infrastructure, NEVPT2, NEVPT3, NEVPT4(SD), FIC-MRCI and CEPA variants
  Bernardo de Souza      : ESD, SOC TD-DFT                               
  Georgi L. Stoychev     : AutoAux, RI-MP2 NMR, DLPNO-MP2 response, X2C  
  Van Anh Tran           : RI-MP2 g-tensors                              
  Willem Van den Heuvel  : Paramagnetic NMR                              
  Zikuan Wang            : NOTCH, Electric field optimization            
  Frank Wennmohs         : Technical directorship and infrastructure     
  Hang Xu                : AUTO-CI-Response properties                   
                                                                         
[FACCTs GmbH]                                                            
  Markus Bursch, Nicolas Foglia, Miquel Garcia-Rates, Ingolf Harden, Hagen Neugebauer, Anastasios Papadopoulos, 
  Christoph Riplinger, Bernardo de Souza, Georgi L. Stoychev                                                    
                                                                 
  APM, various basis sets, CI-OPT, improved COSX, DLPNO-Multilevel,           
  DOCKER, DRACO, updates on ESD, Fragmentator, GOAT, IRC, LR-CPCM, L-BFGS, MBIS, meta-GGA TD-DFT gradient, ML-optimized integration grids, 
  MM, NACMEs, nearIR, NEB, NEB-TS, NL-DFT gradient (VV10), 2- and 3-layer-ONIOM, interface openCOSMO-RS, QMMM,   
  Crystal-QMMM, RESP, rigid body optimization, SF, symmetry and pop. for TD-DFT, various functionals, SOLVATOR                                   
                                                                         
[Other institutions]                                                     
  V. Asgeirsson          : NEB                                           
  Christoph Bannwarth    : sTDA-DFT, sTD-DFT, PBEh-3c, B97-3c, D3        
  Giovanni Bistoni       : ETS/NOCV, ADLD/ADEX, COVALED                  
  Martin Brehm           : Molecular dynamics                            
  Ronald Cardenas        : ETS/NOCV                                      
  Martina Colucci        : COVALED                                       
  Sebastian Ehlert       : rSCAN, r2SCAN, r2SCAN-3c, D4, dhf basis sets  
  Marvin Friede          : D4 for Fr, Ra, Ac-Lr                          
  Lars Goerigk           : TD-DFT with DH, B97 family of functionals     
  Stefan Grimme          : VdW corrections, initial TS optimization, DFT functionals, gCP, sTDA/sTD-DF 
  Waldemar Hujo          : DFT-NL                                        
  H. Jonsson             : NEB                                           
  Holger Kruse           : gCP                                           
  Marcel Mueller         : wB97X-3c, vDZP basis set                      
  Hagen Neugebauer       : wr2SCAN, Native XTB                           
  Gianluca Regni         : ADLD/ADEX                                     
  Tobias Risthaus        : pre 6.0 range-separated hybrid DFT and stability analysis
  Lukas Wittmann         : regularized MP2, r2SCAN double-hybrids, wr2SCAN        
                                                                         
We gratefully acknowledge several colleagues who have allowed us to      
interface, adapt or use parts of their codes:                            
  Ed Valeev, F. Pavosevic, A. Kumar             : LibInt (2-el integral package), F12 methods 
  Garnet Chan, S. Sharma, J. Yang, R. Olivares  : DMRG                   
  Ulf Ekstrom                                   : XCFun DFT Library      
  Mihaly Kallay                                 : mrcc  (arbitrary order and MRCC methods)
  Frank Weinhold                                : gennbo (NPA and NBO analysis)           
  Simon Mueller                                 : openCOSMO-RS                            
  Christopher J. Cramer and Donald G. Truhlar   : smd solvation model                     
  S Lehtola, MJT Oliveira, MAL Marques          : LibXC Library                           
  Liviu Ungur et al                             : ANISO software                          


 Your calculation uses the libint2 library for the computation of 2-el integrals
 For citations please refer to: http://libint.valeyev.net

 Your ORCA version has been built with support for libXC version: 7.0.0
 For citations please refer to: https://libxc.gitlab.io

 This ORCA versions uses:
   CBLAS   interface :  Fast vector & matrix operations
   LAPACKE interface :  Fast linear algebra routines
   SCALAPACK package :  Parallel linear algebra routines
   Shared memory     :  Shared parallel matrices
   BLAS/LAPACK       :  OpenBLAS 0.3.29  USE64BITINT DYNAMIC_ARCH NO_AFFINITY Cooperlake SINGLE_THREADED
        Core in use  :  Cooperlake
   Copyright (c) 2011-2014, The OpenBLAS Project


  ***********************************
  * Starting time: Wed May 20 12:35:45 2026
  * Host name:     c1-45
  * Process ID:    3570773
  * Working dir.:  /cluster/projects/nn14654k/ylvaos/basis_set_n_funcs/functionals/gga_c_N12/LiS/out
  ***********************************

Using LibXC functional ID  80 : Minnesota N12 correlation functional
[ 1]  R. Peverati and D. G. Truhlar.,  J. Chem. Theory Comput. 8, 2310 (2012)
Using LibXC functional ID  80 : Minnesota N12 correlation functional
[ 1]  R. Peverati and D. G. Truhlar.,  J. Chem. Theory Comput. 8, 2310 (2012)
Your calculation utilizes LibXC
by S. Lehtola, C. Steigemann, M. J. T. Oliveira & M. A. L. Marques
Please cite in your paper:
Lehtola, S.; Steigemann, C.; Oliveira, M.J.T.; Marques, M. A. L. Software X, 7, (2018), 1.
   

================================================================================

----- Orbital basis set information -----
Your calculation utilizes the basis: pc-2
   H, C-F              : F. Jensen, J. Chem. Phys. 115, 9113 (2001).
                         F. Jensen, J. Chem. Phys. 116, 7372 (2002).
                         F. Jensen, J. Chem. Phys. 117, 9234 (2002).
   Si-Cl               : F. Jensen, T. Helgaker, J. Chem. Phys. 121, 3463 (2004).
   He-B, Ne-Mg, Al, Ar : F. Jensen, J. Phys. Chem. A 111, 11198 (2007).
   K, Ca, Ga-Kr        : F. Jensen, J. Chem. Phys. 136, 094110 (2012).
   Sc-Zn               : F. Jensen, J. Chem. Phys. 138, 014107 (2013).

================================================================================
                                        WARNINGS
                       Please study these warnings very carefully!
================================================================================


WARNING: your system is open-shell and RHF/RKS was chosen
  ===> : WILL SWITCH to UHF/UKS


================================================================================
                                       INPUT FILE
================================================================================
NAME = /cluster/projects/nn14654k/ylvaos/basis_set_n_funcs/functionals/gga_c_N12/LiS/inp/LiS_gga_c_N12_pc2.inp
|  1> ! dft pc-2 TightSCF
|  2> %pal nprocs 8 end
|  3> 
|  4> %loc
|  5>   LocMet NewBoys
|  6>   Occ true
|  7> end
|  8> 
|  9> %method
| 10>   exchange None
| 11>   correlation gga_c_N12
| 12> end
| 13> 
| 14> %elprop
| 15>   Dipole true
| 16>   Quadrupole true
| 17> end
| 18> 
| 19> * xyz 0 2
| 20> Li    0.000000000000   0.000000000000  -1.074850000000
| 21> S    0.000000000000   0.000000000000   1.074850000000
| 22> *
| 23> 
| 24> 
| 25>                          ****END OF INPUT****
================================================================================

                       ****************************
                       * Single Point Calculation *
                       ****************************

---------------------------------
CARTESIAN COORDINATES (ANGSTROEM)
---------------------------------
  Li     0.000000    0.000000   -1.074850
  S      0.000000    0.000000    1.074850

----------------------------
CARTESIAN COORDINATES (A.U.)
----------------------------
  NO LB      ZA    FRAG     MASS         X           Y           Z
   0 Li    3.0000    0     6.941    0.000000    0.000000   -2.031172
   1 S    16.0000    0    32.060    0.000000    0.000000    2.031172

--------------------------------
INTERNAL COORDINATES (ANGSTROEM)
--------------------------------
 Li     0   0   0     0.000000000000     0.00000000     0.00000000
 S      1   0   0     2.149700000000     0.00000000     0.00000000

---------------------------
INTERNAL COORDINATES (A.U.)
---------------------------
 Li     0   0   0     0.000000000000     0.00000000     0.00000000
 S      1   0   0     4.062344270091     0.00000000     0.00000000

---------------------
BASIS SET INFORMATION
---------------------
There are 2 groups of distinct atoms

 Group   1 Type Li  : 16s4p1d contracted to 4s2p1d pattern {7711/31/1}
 Group   2 Type S   : 29s16p2d1f contracted to 5s4p2d1f pattern {99911/7711/11/1}

Atom   0Li   basis set group =>   1
Atom   1S    basis set group =>   2


           ************************************************************
           *        Program running with 8 parallel MPI-processes     *
           *              working on a common directory               *
           ************************************************************
------------------------------------------------------------------------------
                             ORCA STARTUP CALCULATIONS
------------------------------------------------------------------------------
------------------------------------------------------------------------------
                   ___                                                        
                  /   \      - P O W E R E D   B Y -                         
                 /     \                                                     
                 |  |  |   _    _      __       _____    __    __             
                 |  |  |  | |  | |    /  \     |  _  \  |  |  /  |          
                  \  \/   | |  | |   /    \    | | | |  |  | /  /          
                 / \  \   | |__| |  /  /\  \   | |_| |  |  |/  /          
                |  |  |   |  __  | /  /__\  \  |    /   |      \           
                |  |  |   | |  | | |   __   |  |    \   |  |\   \          
                \     /   | |  | | |  |  |  |  | |\  \  |  | \   \       
                 \___/    |_|  |_| |__|  |__|  |_| \__\ |__|  \__/        
                                                                              
                      - O R C A' S   B I G   F R I E N D -                    
                                      &                                       
                       - I N T E G R A L  F E E D E R -                       
                                                                              
 v1 FN, 2020, v2 2021, v3 2022-2024                                           
------------------------------------------------------------------------------


----------------------
SHARK INTEGRAL PACKAGE
----------------------

Number of atoms                             ...      2
Number of basis functions                   ...     49
Number of shells                            ...     19
Maximum angular momentum                    ...      3
Integral batch strategy                     ... SHARK/LIBINT Hybrid
RI-J (if used) integral strategy            ... SPLIT-RIJ (Revised 2003 algorithm where possible)
Printlevel                                  ...      1
Contraction scheme used                     ... SEGMENTED contraction
Prescreening option                         ... SCHWARTZ
   Thresh                                   ... 2.500e-11
   Tcut                                     ... 2.500e-12
   Tpresel                                  ... 2.500e-12 
Coulomb Range Separation                    ... NOT USED
Exchange Range Separation                   ... NOT USED
Multipole approximations                    ... NOT USED
Finite Nucleus Model                        ... NOT USED
CABS basis                                  ... NOT available
Auxiliary Coulomb fitting basis             ... NOT available
Auxiliary J/K fitting basis                 ... NOT available
Auxiliary Correlation fitting basis         ... NOT available
Auxiliary 'external' fitting basis          ... NOT available

Checking pre-screening integrals            ... done (  0.0 sec) Dimension = 19
   => SHARK Basis and OBASIS are compatible. Storing Pre-screening
Shell pair information
Shell pair cut-off parameter TPreSel        ...   2.5e-12
Total number of shell pairs                 ...       190
Shell pairs after pre-screening             ...       190
Total number of primitive shell pairs       ...      2610
Primitive shell pairs kept                  ...      2198
          la=0 lb=0:     45 shell pairs
          la=1 lb=0:     54 shell pairs
          la=1 lb=1:     21 shell pairs
          la=2 lb=0:     27 shell pairs
          la=2 lb=1:     18 shell pairs
          la=2 lb=2:      6 shell pairs
          la=3 lb=0:      9 shell pairs
          la=3 lb=1:      6 shell pairs
          la=3 lb=2:      3 shell pairs
          la=3 lb=3:      1 shell pairs

Checking whether 4 symmetric matrices of dimension 49 fit in memory
:Max Core in MB      =   4096.00
 MB in use           =      2.35
 MB left             =   4093.65
 MB needed           =      0.04
 Data fit in memory  = YES
Calculating Nuclear repulsion               ... done (  0.0 sec) ENN=     11.815837557985 Eh

Diagonalization of the overlap matrix:
Smallest eigenvalue                        ... 1.462e-02
Time for diagonalization                   ...    0.001 sec
Threshold for overlap eigenvalues          ... 1.000e-07
Number of eigenvalues below threshold      ... 0
Time for construction of square roots      ...    0.002 sec
Total time needed                          ...    0.007 sec

-------------------
DFT GRID GENERATION
-------------------

General Integration Accuracy     IntAcc      ... 4.388
Radial Grid Type                 RadialGrid  ... OptM3 with GC (2021)
Angular Grid (max. ang.)         AngularGrid ... 4 (Lebedev-302)
Angular grid pruning method      GridPruning ... 4 (adaptive)
Weight generation scheme         WeightScheme... mBecke (2022)
Basis function cutoff            BFCut       ... 1.0000e-11
Integration weight cutoff        WCut        ... 1.0000e-14
Partially contracted basis set               ... off
Rotationally invariant grid construction     ... off
Angular grids for H and He will be reduced by one unit

Total number of grid points                  ...    13486
Total number of batches                      ...      212
Average number of points per batch           ...       63
Average number of grid points per atom       ...     6743
Grids setup in   0.1 sec
Initializing property integral containers    ... done (  0.0 sec)

SHARK setup successfully completed in   0.1 seconds

Maximum memory used throughout the entire STARTUP-calculation: 19.1 MB


           ************************************************************
           *        Program running with 8 parallel MPI-processes     *
           *              working on a common directory               *
           ************************************************************
-------------------------------------------------------------------------------
                                 ORCA GUESS
                   Start orbitals & Density for SCF / CASSCF
-------------------------------------------------------------------------------

------------
SCF SETTINGS
------------
Hamiltonian:
 Density Functional     Method          .... DFT(GTOs)
 Exchange Functional    Exchange        .... no Exchange
  Functional kind                       .... Correlation
  Functional name                       .... Minnesota N12 correlation functional
  Functional family                     .... GGA
  Functional refs                              
    [ 0] R. Peverati and D. G. Truhlar.,  J. Chem. Theory Comput. 8, 2310 (2012), doi: 10.1021/ct3002656
  Functional external parameters        .... 10
    Parameter  0 _css0      =  1.000000e+00 : u^0 coefficient for same-spin correlation
    Parameter  1 _css1      = -5.531700e+00 : u^1 coefficient for same-spin correlation
    Parameter  2 _css2      =  3.079580e+01 : u^2 coefficient for same-spin correlation
    Parameter  3 _css3      = -5.641960e+01 : u^3 coefficient for same-spin correlation
    Parameter  4 _css4      =  3.212500e+01 : u^4 coefficient for same-spin correlation
    Parameter  5 _cos0      =  1.000000e+00 : u^0 coefficient for opposite-spin correlation
    Parameter  6 _cos1      =  3.245110e+00 : u^1 coefficient for opposite-spin correlation
    Parameter  7 _cos2      = -2.528930e+01 : u^2 coefficient for opposite-spin correlation
    Parameter  8 _cos3      =  1.444070e+01 : u^3 coefficient for opposite-spin correlation
    Parameter  9 _cos4      =  1.968700e+01 : u^4 coefficient for opposite-spin correlation
 Gradients option       PostSCFGGA      .... off


General Settings:
 Integral files         IntName         .... /cluster/projects/nn14654k/ylvaos/basis_set_n_funcs/functionals/gga_c_N12/LiS/inp/LiS_gga_c_N12_pc2
 Hartree-Fock type      HFTyp           .... UHF
 Total Charge           Charge          ....    0
 Multiplicity           Mult            ....    2
 Number of Electrons    NEL             ....   19
 Basis Dimension        Dim             ....   49
 Nuclear Repulsion      ENuc            ....     11.8158375580 Eh

Convergence Acceleration:
 AO-DIIS                CNVDIIS         .... on
   Start iteration      DIISMaxIt       ....    12
   Startup error        DIISStart       ....  0.200000
   # of expansion vecs  DIISMaxEq       ....     5
   Bias factor          DIISBfac        ....   1.050
   Max. coefficient     DIISMaxC        ....  10.000
 MO-DIIS                CNVKDIIS        .... off
 Trust-Rad. Augm. Hess. CNVTRAH         .... auto
   Auto Start mean grad. ratio tolernc. ....  1.125000
   Auto Start start iteration           ....    50
   Auto Start num. interpolation iter.  ....    10
   Max. Number of Micro iterations      ....    24
   Max. Number of Macro iterations      .... Maxiter - #DIIS iter
   Number of Davidson start vectors     ....     2
   Converg. threshold    (grad. norm)   ....   1.000e-05
   Grad. Scal. Fac. for Micro threshold ....   0.100
   Minimum threshold for Micro iter.    ....   1.000e-02
   NR start threshold (gradient norm)   ....   1.000e-04
   Initial trust radius                 ....   0.400
   Minimum AH scaling param. (alpha)    ....   1.000
   Maximum AH scaling param. (alpha)    .... 1000.000
   Quad. conv. algorithm                .... NR
   White noise on init. David. guess    .... on
   Maximum white noise                  ....   0.010
   Pseudo random numbers                .... off
   Inactive MOs                         .... canonical
   Orbital update algorithm             .... Taylor
   Preconditioner                       .... Diag
   Full preconditioner red. dimension   ....   250
 SOSCF                 CNVSOSCF           .... on
   Start iteration     SOSCFMaxIt         ....   150
   Startup grad/error  SOSCFStart         ....  0.003300
   Hessian update      SOSCFHessUp        .... L-BFGS
   Autom. constraints  SOSCFAutoConstrain .... off
 Level Shifting         CNVShift        .... on
   Level shift para.    LevelShift      ....    0.2500
   Turn off err/grad.   ShiftErr        ....    0.0010
 Zerner damping         CNVZerner       .... off
 Static damping         CNVDamp         .... on
   Fraction old density DampFac         ....    0.7000
   Max. Damping (<1)    DampMax         ....    0.9800
   Min. Damping (>=0)   DampMin         ....    0.0000
   Turn off err/grad.   DampErr         ....    0.1000

SCF Procedure:
 Maximum # iterations   MaxIter         ....   125
 SCF integral mode      SCFMode         .... Direct
   Integral package                     .... SHARK and LIBINT hybrid scheme
 Reset frequency        DirectResetFreq ....    20
 Integral Threshold     Thresh          ....  2.500e-11 Eh
 Primitive CutOff       TCut            ....  2.500e-12 Eh

Convergence Tolerance:
 Convergence Check Mode ConvCheckMode   .... Total+1el-Energy
 Convergence forced     ConvForced      .... 0
 Energy Change          TolE            ....  1.000e-08 Eh
 1-El. energy change                    ....  1.000e-05 Eh
 Orbital Gradient       TolG            ....  1.000e-05
 Orbital Rotation angle TolX            ....  1.000e-05
 DIIS Error             TolErr          ....  5.000e-07

------------------------------
INITIAL GUESS: MODEL POTENTIAL
------------------------------
Loading Hartree-Fock densities                     ... done
Calculating cut-offs                               ... done
Initializing the effective Hamiltonian             ... done
Setting up the integral package (SHARK)            ... done
Starting the Coulomb interaction                   ... done (   0.0 sec)
Making the grid                                    ... done (   0.0 sec)
Mapping shells                                     ... done
Starting the XC term evaluation                    ... done (   0.0 sec)
  promolecular density results
     # of electrons  =     18.999659774
     EX              =      0.000000000
     EC              =     -1.157893592
     EX+EC           =     -1.157893592
Transforming the Hamiltonian                       ... done (   0.0 sec)
Diagonalizing the Hamiltonian                      ... done (   0.0 sec)
Back transforming the eigenvectors                 ... done (   0.0 sec)
Now organizing SCF variables                       ... done
                      ------------------
                      INITIAL GUESS DONE (   0.1 sec)
                      ------------------
             **** ENERGY FILE WAS UPDATED (/cluster/projects/nn14654k/ylvaos/basis_set_n_funcs/functionals/gga_c_N12/LiS/inp/LiS_gga_c_N12_pc2.en.tmp) ****
Finished Guess after   0.1 sec
Maximum memory used throughout the entire GUESS-calculation: 5.9 MB


           ************************************************************
           *        Program running with 8 parallel MPI-processes     *
           *              working on a common directory               *
           ************************************************************

-------------------------------------------------------------------------------------------
                                      ORCA LEAN-SCF
                              memory conserving SCF solver
-------------------------------------------------------------------------------------------

----------------------------------------D-I-I-S--------------------------------------------
Iteration    Energy (Eh)           Delta-E    RMSDP     MaxDP     DIISErr   Damp  Time(sec)
-------------------------------------------------------------------------------------------
               ***  Starting incremental Fock matrix formation  ***
    1    -378.5352585271199928     0.00e+00  8.53e-02  8.08e-01  3.04e-01  0.700   0.1
Warning: op=1 Small HOMO/LUMO gap (  -0.064) - skipping pre-diagonalization
         Will do a full diagonalization
    2    -379.2756228687224507    -7.40e-01  5.84e-02  5.66e-01  1.44e-01  0.700   0.1
                               ***Turning on AO-DIIS***
    3    -379.5099338952469452    -2.34e-01  3.97e-02  3.95e-01  7.41e-02  0.700   0.1
    4    -379.6093303293114332    -9.94e-02  9.17e-02  9.17e-01  4.90e-02  0.000   0.1
    5    -379.7592358634284437    -1.50e-01  1.07e-02  5.95e-02  4.81e-02  0.000   0.1
    6    -379.7898013668562953    -3.06e-02  4.32e-03  1.98e-02  2.84e-02  0.000   0.1
    7    -379.7973261309562645    -7.52e-03  3.62e-03  1.98e-02  1.88e-02  0.000   0.1
    8    -379.8009519289026343    -3.63e-03  3.62e-03  2.17e-02  1.19e-02  0.000   0.1
    9    -379.8029014367425589    -1.95e-03  3.69e-03  2.28e-02  8.03e-03  0.000   0.1
   10    -379.8040069832407539    -1.11e-03  3.15e-03  2.28e-02  7.13e-03  0.000   0.1
   11    -379.8047242094759781    -7.17e-04  2.37e-03  2.05e-02  6.61e-03  0.000   0.1
   12    -379.8051575475761297    -4.33e-04  1.85e-03  1.73e-02  6.39e-03  0.000   0.1
   13    -379.8054061891893980    -2.49e-04  1.64e-03  1.66e-02  6.60e-03  0.000   0.1
   14    -379.8056537516847584    -2.48e-04  2.39e-03  2.54e-02  6.35e-03  0.000   0.1
   15    -379.8059920737196649    -3.38e-04  2.40e-03  2.70e-02  4.95e-03  0.000   0.1
   16    -379.8062467457447156    -2.55e-04  2.35e-03  2.73e-02  4.80e-03  0.000   0.1
   17    -379.8064652424724272    -2.18e-04  2.35e-03  2.77e-02  4.64e-03  0.000   0.2
   18    -379.8066747406060131    -2.09e-04  2.40e-03  2.90e-02  4.41e-03  0.000   0.1
   19    -379.8068827615644523    -2.08e-04  2.41e-03  2.96e-02  3.93e-03  0.000   0.1
   20    -379.8070827629891255    -2.00e-04  2.35e-03  2.92e-02  3.39e-03  0.000   0.1
               *** Restarting incremental Fock matrix formation ***
                             ****Resetting DIIS****
Warning: op=0 Small HOMO/LUMO gap (  -0.002) - skipping pre-diagonalization
         Will do a full diagonalization
                              *** Initializing SOSCF ***
---------------------------------------S-O-S-C-F--------------------------------------
Iteration    Energy (Eh)           Delta-E    RMSDP     MaxDP     MaxGrad    Time(sec)
--------------------------------------------------------------------------------------
   21    -379.8072611959345863    -1.78e-04  9.51e-03  1.20e-01  2.80e-03     0.1
               *** Restarting incremental Fock matrix formation ***
   22    -379.8078278517036779    -5.67e-04  1.82e-03  1.27e-02  3.09e-03     0.1
   23    -379.8079232887515104    -9.54e-05  2.97e-03  3.85e-02  2.85e-03     0.1
   24    -379.8080233497874474    -1.00e-04  1.58e-03  2.20e-02  1.00e-03     0.1
   25    -379.8080425463656411    -1.92e-05  2.85e-04  1.74e-03  3.15e-04     0.1
   26    -379.8080441347196938    -1.59e-06  1.09e-04  6.91e-04  9.88e-05     0.1
   27    -379.8080442854285366    -1.51e-07  2.25e-05  1.48e-04  5.97e-05     0.1
   28    -379.8080443164201370    -3.10e-08  8.60e-06  5.68e-05  2.00e-05     0.1
   29    -379.8080443185235708    -2.10e-09  4.69e-06  3.02e-05  3.21e-06     0.1
                 **** Energy Check signals convergence ****

               *****************************************************
               *                     SUCCESS                       *
               *           SCF CONVERGED AFTER  29 CYCLES          *
               *****************************************************

             **** ENERGY FILE WAS UPDATED (/cluster/projects/nn14654k/ylvaos/basis_set_n_funcs/functionals/gga_c_N12/LiS/inp/LiS_gga_c_N12_pc2.en.tmp) ****

----------------
TOTAL SCF ENERGY
----------------

Total Energy       :       -379.80804431890476 Eh          -10335.10231 eV

Components:
Nuclear Repulsion  :         11.81583755798484 Eh             321.52529 eV
Electronic Energy  :       -391.62388187688958 Eh          -10656.62760 eV
One Electron Energy:       -573.55557909123070 Eh          -15607.24076 eV
Two Electron Energy:        181.93169721434111 Eh            4950.61317 eV

Virial components:
Potential Energy   :       -772.96027724835130 Eh          -21033.31846 eV
Kinetic Energy     :        393.15223292944660 Eh           10698.21614 eV
Virial Ratio       :          1.96605846923185

DFT components:
N(Alpha)           :        9.999654938700 electrons
N(Beta)            :        8.999950565366 electrons
N(Total)           :       18.999605504066 electrons
E(X)               :        0.000000000000 Eh       
E(C)               :       -1.129087419079 Eh       
E(XC)              :       -1.129087419079 Eh       

---------------
SCF CONVERGENCE
---------------

  Last Energy change         ...    2.1034e-09  Tolerance :   1.0000e-08
  Last MAX-Density change    ...    3.0158e-05  Tolerance :   1.0000e-07
  Last RMS-Density change    ...    4.6946e-06  Tolerance :   5.0000e-09
  Last DIIS Error            ...    2.8040e-03  Tolerance :   5.0000e-07
  Last Orbital Gradient      ...    3.2066e-06  Tolerance :   1.0000e-05
  Last Orbital Rotation      ...    2.4654e-05  Tolerance :   1.0000e-05


----------------------
UHF SPIN CONTAMINATION
----------------------

Warning: in a DFT calculation there is little theoretical justification to 
         calculate <S**2> as in Hartree-Fock theory. We will do it anyways
         but you should keep in mind that the values have only limited relevance

Expectation value of <S**2>     :     0.876632
Ideal value S*(S+1) for S=0.5   :     0.750000
Deviation                       :     0.126632

----------------
ORBITAL ENERGIES
----------------
                 SPIN UP ORBITALS
  NO   OCC          E(Eh)            E(eV) 
   0   1.0000     -82.960484     -2257.4695 
   1   1.0000      -6.482823      -176.4066 
   2   1.0000      -4.526274      -123.1662 
   3   1.0000      -4.516853      -122.9098 
   4   1.0000      -4.515677      -122.8778 
   5   1.0000      -1.029508       -28.0143 
   6   1.0000      -0.324150        -8.8206 
   7   1.0000      -0.021226        -0.5776 
   8   1.0000      -0.007328        -0.1994 
   9   1.0000      -0.000471        -0.0128 
  10   0.0000       0.001090         0.0297 
  11   0.0000       0.105532         2.8717 
  12   0.0000       0.127763         3.4766 
  13   0.0000       0.132903         3.6165 
  14   0.0000       0.206693         5.6244 
  15   0.0000       0.334004         9.0887 
  16   0.0000       0.346957         9.4412 
  17   0.0000       0.363780         9.8990 
  18   0.0000       0.590441        16.0667 
  19   0.0000       0.605331        16.4719 
  20   0.0000       0.618420        16.8281 

                 SPIN DOWN ORBITALS
  NO   OCC          E(Eh)            E(eV) 
   0   1.0000     -82.960993     -2257.4834 
   1   1.0000      -6.484583      -176.4545 
   2   1.0000      -4.530786      -123.2889 
   3   1.0000      -4.517435      -122.9256 
   4   1.0000      -4.516998      -122.9138 
   5   1.0000      -1.028324       -27.9821 
   6   1.0000      -0.332188        -9.0393 
   7   1.0000      -0.008667        -0.2358 
   8   1.0000      -0.005021        -0.1366 
   9   0.0000      -0.036687        -0.9983 
  10   0.0000       0.044736         1.2173 
  11   0.0000       0.130866         3.5610 
  12   0.0000       0.156575         4.2606 
  13   0.0000       0.170305         4.6342 
  14   0.0000       0.248356         6.7581 
  15   0.0000       0.347249         9.4491 
  16   0.0000       0.371247        10.1021 
  17   0.0000       0.384293        10.4572 
  18   0.0000       0.612453        16.6657 
  19   0.0000       0.616106        16.7651 
*Only the first 10 virtual orbitals were printed.

                    ********************************
                    * MULLIKEN POPULATION ANALYSIS *
                    ********************************

--------------------------------------------
MULLIKEN ATOMIC CHARGES AND SPIN POPULATIONS
--------------------------------------------
   0 Li:    0.326001    0.213485
   1 S :   -0.326001    0.786515
Sum of atomic charges         :   -0.0000000
Sum of atomic spin populations:    1.0000000

-----------------------------------------------------
MULLIKEN REDUCED ORBITAL CHARGES AND SPIN POPULATIONS
-----------------------------------------------------
CHARGE
  0 Lis       :     2.266216  s :     2.266216
      pz      :     0.093361  p :     0.394533
      px      :     0.199023
      py      :     0.102149
      dz2     :     0.003517  d :     0.013250
      dxz     :     0.005799
      dyz     :     0.003855
      dx2y2   :     0.000042
      dxy     :     0.000037

  1 S s       :     5.898304  s :     5.898304
      pz      :     3.734694  p :    10.421565
      px      :     3.658674
      py      :     3.028197
      dz2     :     0.002657  d :     0.005667
      dxz     :     0.001342
      dyz     :     0.000831
      dx2y2   :     0.000446
      dxy     :     0.000391
      f0      :     0.000284  f :     0.000466
      f+1     :     0.000033
      f-1     :    -0.000001
      f+2     :     0.000027
      f-2     :     0.000024
      f+3     :     0.000037
      f-3     :     0.000061


SPIN
  0 Lis       :     0.158173  s :     0.158173
      pz      :    -0.029804  p :     0.051884
      px      :     0.009149
      py      :     0.072539
      dz2     :    -0.000040  d :     0.003428
      dxz     :     0.000553
      dyz     :     0.002970
      dx2y2   :    -0.000029
      dxy     :    -0.000026

  1 S s       :    -0.003142  s :    -0.003142
      pz      :    -0.124388  p :     0.789613
      px      :     0.125235
      py      :     0.788765
      dz2     :    -0.000374  d :     0.000038
      dxz     :     0.000128
      dyz     :     0.000641
      dx2y2   :    -0.000190
      dxy     :    -0.000167
      f0      :     0.000002  f :     0.000006
      f+1     :     0.000005
      f-1     :    -0.000005
      f+2     :    -0.000008
      f-2     :    -0.000007
      f+3     :     0.000022
      f-3     :    -0.000003



                     *******************************
                     * LOEWDIN POPULATION ANALYSIS *
                     *******************************

-------------------------------------------
LOEWDIN ATOMIC CHARGES AND SPIN POPULATIONS
-------------------------------------------
   0 Li:   -0.175237    0.272862
   1 S :    0.175237    0.727138

----------------------------------------------------
LOEWDIN REDUCED ORBITAL CHARGES AND SPIN POPULATIONS
----------------------------------------------------
CHARGE
  0 Lis       :     2.464517  s :     2.464517
      pz      :     0.274336  p :     0.617194
      px      :     0.224435
      py      :     0.118423
      dz2     :     0.056614  d :     0.093526
      dxz     :     0.022465
      dyz     :     0.014367
      dx2y2   :     0.000043
      dxy     :     0.000038

  1 S s       :     5.623580  s :     5.623580
      pz      :     3.576178  p :    10.195116
      px      :     3.617169
      py      :     3.001768
      dz2     :     0.003298  d :     0.005401
      dxz     :     0.000797
      dyz     :     0.000469
      dx2y2   :     0.000446
      dxy     :     0.000391
      f0      :     0.000510  f :     0.000667
      f+1     :     0.000005
      f-1     :     0.000003
      f+2     :     0.000027
      f-2     :     0.000024
      f+3     :     0.000037
      f-3     :     0.000061


SPIN
  0 Lis       :     0.196985  s :     0.196985
      pz      :    -0.032931  p :     0.062936
      px      :     0.010828
      py      :     0.085039
      dz2     :    -0.000012  d :     0.012941
      dxz     :     0.001870
      dyz     :     0.011139
      dx2y2   :    -0.000029
      dxy     :    -0.000026

  1 S s       :     0.005699  s :     0.005699
      pz      :    -0.168829  p :     0.721842
      px      :     0.122297
      py      :     0.768374
      dz2     :    -0.000479  d :    -0.000407
      dxz     :     0.000073
      dyz     :     0.000356
      dx2y2   :    -0.000190
      dxy     :    -0.000167
      f0      :    -0.000006  f :     0.000003
      f+1     :     0.000002
      f-1     :     0.000002
      f+2     :    -0.000008
      f-2     :    -0.000007
      f+3     :     0.000022
      f-3     :    -0.000003



                      *****************************
                      * MAYER POPULATION ANALYSIS *
                      *****************************

  NA   - Mulliken gross atomic population
  ZA   - Total nuclear charge
  QA   - Mulliken gross atomic charge
  VA   - Mayer's total valence
  BVA  - Mayer's bonded valence
  FA   - Mayer's free valence

  ATOM       NA         ZA         QA         VA         BVA        FA
  0 Li     2.6740     3.0000     0.3260     1.2325     1.1910     0.0414
  1 S     16.3260    16.0000    -0.3260     2.0426     1.1910     0.8516

  Mayer bond orders larger than 0.100000
B(  0-Li,  1-S ) :   1.1910 

-------
TIMINGS
-------

Total SCF time: 0 days 0 hours 0 min 3 sec 

Total time                  ....       3.378 sec
Sum of individual times     ....       3.232 sec  ( 95.7%)

SCF preparation             ....       0.078 sec  (  2.3%)
Fock matrix formation       ....       2.325 sec  ( 68.8%)
  Startup                   ....       0.041 sec  (  1.8% of F)
  Coulomb formation         ....       0.752 sec  ( 32.3% of F)
  XC integration            ....       0.829 sec  ( 35.7% of F)
    Basis function eval.    ....       0.035 sec  (  4.3% of XC)
    Density eval.           ....       0.017 sec  (  2.0% of XC)
    XC-Functional eval.     ....       0.030 sec  (  3.7% of XC)
    XC-Potential eval.      ....       0.039 sec  (  4.7% of XC)
Diagonalization             ....       0.000 sec  (  0.0%)
Density matrix formation    ....       0.386 sec  ( 11.4%)
Total Energy calculation    ....       0.067 sec  (  2.0%)
Population analysis         ....       0.013 sec  (  0.4%)
Orbital Transformation      ....       0.031 sec  (  0.9%)
Orbital Orthonormalization  ....       0.000 sec  (  0.0%)
DIIS solution               ....       0.226 sec  (  6.7%)
SOSCF solution              ....       0.106 sec  (  3.1%)
Finished LeanSCF after   3.4 sec

Maximum memory used throughout the entire LEANSCF-calculation: 18.2 MB


           ************************************************************
           *        Program running with 8 parallel MPI-processes     *
           *              working on a common directory               *
           ************************************************************

------------------------------------------------------------------------------
                         ORCA PROPERTY INTEGRAL CALCULATIONS
------------------------------------------------------------------------------

GBWName                                   ... /cluster/projects/nn14654k/ylvaos/basis_set_n_funcs/functionals/gga_c_N12/LiS/inp/LiS_gga_c_N12_pc2.gbw
Number of atoms                           ...      2
Number of basis functions                 ...     49
Max core memory                           ...   4096 MB

Dipole integrals                          ... YES
Quadrupole integrals                      ... YES
Linear momentum integrals                 ...  NO
Angular momentum integrals                ...  NO
Higher moments length integrals           ...  NO
Higher moments velocity integrals         ...  NO
Kinetic energy integrals                  ...  NO
GIAO right hand sides                     ...  NO
GIAO dipole derivative integrals          ...  NO
SOC integrals                             ...  NO
EPR diamagnetic integrals (GIAO)          ...  NO
EPR gauge integrals                       ...  NO
Field gradient integrals                  ...  NO (   0 nuclei)
Spin-dipole/Fermi contact integrals       ...  NO (   0 nuclei)
Contact density integrals                 ...  NO (   0 nuclei)
Nucleus-orbit integrals                   ...  NO (   0 nuclei)
Geometric perturbations                   ...  NO (   2 nuclei)

Choice of electric origin   ... Center of mass
Position of electric origin ... (  0.0000,  0.0000,  1.3082) 
Choice of magnetic origin   ... GIAO
Position of magnetic origin ... (  0.0000,  0.0000,  0.0000) 

Calculating integrals                     ... Electric Dipole (Length)     done (  0.0 sec)
Calculating integrals                     ... Electric Quadrupole (Length) done (  0.0 sec)

Property integrals calculated in   0.0 sec

Maximum memory used throughout the entire PROPINT-calculation: 6.1 MB
------------------------------------------------------------------------------
                           ORCA ORBITAL LOCALIZATION
------------------------------------------------------------------------------

Input orbitals are from                  ... /cluster/projects/nn14654k/ylvaos/basis_set_n_funcs/functionals/gga_c_N12/LiS/inp/LiS_gga_c_N12_pc2.gbw
Output orbitals are to                   ... /cluster/projects/nn14654k/ylvaos/basis_set_n_funcs/functionals/gga_c_N12/LiS/inp/LiS_gga_c_N12_pc2.loc
Max. number of iterations                ... 128
Localizations seeded randomly            ... on
Convergence tolerance                    ... 1.000e-06
Threshold for strong local MOs           ... 9.500e-01
Threshold for bond MOs                   ... 8.500e-01
Operator                                 ... 0
Orbital range for localization           ... 2 to 9
Localization criterion                   ... NEW-BOYS
Doing the dipole integrals               ... o.k.
Initial value of the localization sum :    13.451508
ITERATION   0 : L=   16.9856268934 DL=  3.53e+00 (AVERGE_DL)=    0.3552724674 
ITERATION   1 : L=   17.2319834326 DL=  2.46e-01 (AVERGE_DL)=    0.0938000417 
ITERATION   2 : L=   17.2860553923 DL=  5.41e-02 (AVERGE_DL)=    0.0439447542 
ITERATION   3 : L=   17.3066521119 DL=  2.06e-02 (AVERGE_DL)=    0.0271218939 
ITERATION   4 : L=   17.3175109867 DL=  1.09e-02 (AVERGE_DL)=    0.0196930688 
ITERATION   5 : L=   17.3235648599 DL=  6.05e-03 (AVERGE_DL)=    0.0147040727 
ITERATION   6 : L=   17.3270326830 DL=  3.47e-03 (AVERGE_DL)=    0.0111288287 
ITERATION   7 : L=   17.3291111852 DL=  2.08e-03 (AVERGE_DL)=    0.0086158122 
ITERATION   8 : L=   17.3304577266 DL=  1.35e-03 (AVERGE_DL)=    0.0069347504 
ITERATION   9 : L=   17.3314354626 DL=  9.78e-04 (AVERGE_DL)=    0.0059092423 
ITERATION  10 : L=   17.3322487104 DL=  8.13e-04 (AVERGE_DL)=    0.0053893007 
ITERATION  11 : L=   17.3330165073 DL=  7.68e-04 (AVERGE_DL)=    0.0052365370 
ITERATION  12 : L=   17.3338123272 DL=  7.96e-04 (AVERGE_DL)=    0.0053312419 
ITERATION  13 : L=   17.3346835456 DL=  8.71e-04 (AVERGE_DL)=    0.0055780768 
ITERATION  14 : L=   17.3356615780 DL=  9.78e-04 (AVERGE_DL)=    0.0059101379 
ITERATION  15 : L=   17.3367670196 DL=  1.11e-03 (AVERGE_DL)=    0.0062833157 
ITERATION  16 : L=   17.3380117514 DL=  1.24e-03 (AVERGE_DL)=    0.0066674364 
ITERATION  17 : L=   17.3393994519 DL=  1.39e-03 (AVERGE_DL)=    0.0070399383 
ITERATION  18 : L=   17.3409254060 DL=  1.53e-03 (AVERGE_DL)=    0.0073823005 
ITERATION  19 : L=   17.3425762577 DL=  1.65e-03 (AVERGE_DL)=    0.0076784756 
ITERATION  20 : L=   17.3443301831 DL=  1.75e-03 (AVERGE_DL)=    0.0079145558 
ITERATION  21 : L=   17.3461578423 DL=  1.83e-03 (AVERGE_DL)=    0.0080792044 
ITERATION  22 : L=   17.3480242442 DL=  1.87e-03 (AVERGE_DL)=    0.0081643866 
ITERATION  23 : L=   17.3498914089 DL=  1.87e-03 (AVERGE_DL)=    0.0081660550 
ITERATION  24 : L=   17.3517215315 DL=  1.83e-03 (AVERGE_DL)=    0.0080846473 
ITERATION  25 : L=   17.3534801241 DL=  1.76e-03 (AVERGE_DL)=    0.0079250791 
ITERATION  26 : L=   17.3551386589 DL=  1.66e-03 (AVERGE_DL)=    0.0076963228 
ITERATION  27 : L=   17.3566762897 DL=  1.54e-03 (AVERGE_DL)=    0.0074104917 
ITERATION  28 : L=   17.3580804995 DL=  1.40e-03 (AVERGE_DL)=    0.0070816912 
ITERATION  29 : L=   17.3593467157 DL=  1.27e-03 (AVERGE_DL)=    0.0067247311 
ITERATION  30 : L=   17.3604771402 DL=  1.13e-03 (AVERGE_DL)=    0.0063539201 
ITERATION  31 : L=   17.3614791243 DL=  1.00e-03 (AVERGE_DL)=    0.0059820689 
ITERATION  32 : L=   17.3623634205 DL=  8.84e-04 (AVERGE_DL)=    0.0056197872 
ITERATION  33 : L=   17.3631425686 DL=  7.79e-04 (AVERGE_DL)=    0.0052751034 
ITERATION  34 : L=   17.3638295796 DL=  6.87e-04 (AVERGE_DL)=    0.0049533937 
ITERATION  35 : L=   17.3644369797 DL=  6.07e-04 (AVERGE_DL)=    0.0046575596 
ITERATION  36 : L=   17.3649762057 DL=  5.39e-04 (AVERGE_DL)=    0.0043884019 
ITERATION  37 : L=   17.3654572985 DL=  4.81e-04 (AVERGE_DL)=    0.0041451034 
ITERATION  38 : L=   17.3658888181 DL=  4.32e-04 (AVERGE_DL)=    0.0039257377 
ITERATION  39 : L=   17.3662779106 DL=  3.89e-04 (AVERGE_DL)=    0.0037277552 
ITERATION  40 : L=   17.3666304576 DL=  3.53e-04 (AVERGE_DL)=    0.0035483748 
ITERATION  41 : L=   17.3669512653 DL=  3.21e-04 (AVERGE_DL)=    0.0033848812 
ITERATION  42 : L=   17.3672442584 DL=  2.93e-04 (AVERGE_DL)=    0.0032348164 
ITERATION  43 : L=   17.3675126568 DL=  2.68e-04 (AVERGE_DL)=    0.0030960711 
ITERATION  44 : L=   17.3677591288 DL=  2.46e-04 (AVERGE_DL)=    0.0029669131 
ITERATION  45 : L=   17.3679859161 DL=  2.27e-04 (AVERGE_DL)=    0.0028459699 
ITERATION  46 : L=   17.3681949289 DL=  2.09e-04 (AVERGE_DL)=    0.0027321683 
ITERATION  47 : L=   17.3683878231 DL=  1.93e-04 (AVERGE_DL)=    0.0026247055 
ITERATION  48 : L=   17.3685660547 DL=  1.78e-04 (AVERGE_DL)=    0.0025229771 
ITERATION  49 : L=   17.3687309166 DL=  1.65e-04 (AVERGE_DL)=    0.0024265050 
ITERATION  50 : L=   17.3688835705 DL=  1.53e-04 (AVERGE_DL)=    0.0023349359 
ITERATION  51 : L=   17.3690250657 DL=  1.41e-04 (AVERGE_DL)=    0.0022479764 
ITERATION  52 : L=   17.3691563552 DL=  1.31e-04 (AVERGE_DL)=    0.0021653895 
ITERATION  53 : L=   17.3692783061 DL=  1.22e-04 (AVERGE_DL)=    0.0020869572 
ITERATION  54 : L=   17.3693917091 DL=  1.13e-04 (AVERGE_DL)=    0.0020124879 
ITERATION  55 : L=   17.3694972848 DL=  1.06e-04 (AVERGE_DL)=    0.0019417927 
ITERATION  56 : L=   17.3695956901 DL=  9.84e-05 (AVERGE_DL)=    0.0018746938 
ITERATION  57 : L=   17.3696875236 DL=  9.18e-05 (AVERGE_DL)=    0.0018110122 
ITERATION  58 : L=   17.3697733300 DL=  8.58e-05 (AVERGE_DL)=    0.0017505760 
ITERATION  59 : L=   17.3698536053 DL=  8.03e-05 (AVERGE_DL)=    0.0016932145 
ITERATION  60 : L=   17.3699288002 DL=  7.52e-05 (AVERGE_DL)=    0.0016387587 
ITERATION  61 : L=   17.3699993239 DL=  7.05e-05 (AVERGE_DL)=    0.0015870427 
ITERATION  62 : L=   17.3700655488 DL=  6.62e-05 (AVERGE_DL)=    0.0015379130 
ITERATION  63 : L=   17.3701278137 DL=  6.23e-05 (AVERGE_DL)=    0.0014912231 
ITERATION  64 : L=   17.3701864259 DL=  5.86e-05 (AVERGE_DL)=    0.0014468208 
ITERATION  65 : L=   17.3702416648 DL=  5.52e-05 (AVERGE_DL)=    0.0014045702 
ITERATION  66 : L=   17.3702937853 DL=  5.21e-05 (AVERGE_DL)=    0.0013643492 
ITERATION  67 : L=   17.3703430176 DL=  4.92e-05 (AVERGE_DL)=    0.0013260074 
ITERATION  68 : L=   17.3703895743 DL=  4.66e-05 (AVERGE_DL)=    0.0012894727 
ITERATION  69 : L=   17.3704336466 DL=  4.41e-05 (AVERGE_DL)=    0.0012545960 
ITERATION  70 : L=   17.3704754104 DL=  4.18e-05 (AVERGE_DL)=    0.0012212960 
ITERATION  71 : L=   17.3705150261 DL=  3.96e-05 (AVERGE_DL)=    0.0011894724 
ITERATION  72 : L=   17.3705526404 DL=  3.76e-05 (AVERGE_DL)=    0.0011590376 
ITERATION  73 : L=   17.3705883879 DL=  3.57e-05 (AVERGE_DL)=    0.0011299100 
ITERATION  74 : L=   17.3706223918 DL=  3.40e-05 (AVERGE_DL)=    0.0011020100 
ITERATION  75 : L=   17.3706547660 DL=  3.24e-05 (AVERGE_DL)=    0.0010752775 
ITERATION  76 : L=   17.3706856130 DL=  3.08e-05 (AVERGE_DL)=    0.0010496085 
ITERATION  77 : L=   17.3707150307 DL=  2.94e-05 (AVERGE_DL)=    0.0010250030 
ITERATION  78 : L=   17.3707431058 DL=  2.81e-05 (AVERGE_DL)=    0.0010013400 
ITERATION  79 : L=   17.3707699205 DL=  2.68e-05 (AVERGE_DL)=    0.0009786049 
ITERATION  80 : L=   17.3707955499 DL=  2.56e-05 (AVERGE_DL)=    0.0009567332 
ITERATION  81 : L=   17.3708200639 DL=  2.45e-05 (AVERGE_DL)=    0.0009356814 
ITERATION  82 : L=   17.3708435270 DL=  2.35e-05 (AVERGE_DL)=    0.0009154052 
ITERATION  83 : L=   17.3708659991 DL=  2.25e-05 (AVERGE_DL)=    0.0008958654 
ITERATION  84 : L=   17.3708875358 DL=  2.15e-05 (AVERGE_DL)=    0.0008770224 
ITERATION  85 : L=   17.3709081887 DL=  2.07e-05 (AVERGE_DL)=    0.0008588379 
ITERATION  86 : L=   17.3709280059 DL=  1.98e-05 (AVERGE_DL)=    0.0008412827 
ITERATION  87 : L=   17.3709470322 DL=  1.90e-05 (AVERGE_DL)=    0.0008243244 
ITERATION  88 : L=   17.3709653094 DL=  1.83e-05 (AVERGE_DL)=    0.0008079339 
ITERATION  89 : L=   17.3709828765 DL=  1.76e-05 (AVERGE_DL)=    0.0007920837 
ITERATION  90 : L=   17.3709997700 DL=  1.69e-05 (AVERGE_DL)=    0.0007767501 
ITERATION  91 : L=   17.3710160239 DL=  1.63e-05 (AVERGE_DL)=    0.0007619042 
ITERATION  92 : L=   17.3710316702 DL=  1.56e-05 (AVERGE_DL)=    0.0007475267 
ITERATION  93 : L=   17.3710467388 DL=  1.51e-05 (AVERGE_DL)=    0.0007335959 
ITERATION  94 : L=   17.3710612577 DL=  1.45e-05 (AVERGE_DL)=    0.0007200916 
ITERATION  95 : L=   17.3710752533 DL=  1.40e-05 (AVERGE_DL)=    0.0007069967 
ITERATION  96 : L=   17.3710887504 DL=  1.35e-05 (AVERGE_DL)=    0.0006942894 
ITERATION  97 : L=   17.3711017719 DL=  1.30e-05 (AVERGE_DL)=    0.0006819496 
ITERATION  98 : L=   17.3711143401 DL=  1.26e-05 (AVERGE_DL)=    0.0006699727 
ITERATION  99 : L=   17.3711264758 DL=  1.21e-05 (AVERGE_DL)=    0.0006583454 
ITERATION 100 : L=   17.3711381980 DL=  1.17e-05 (AVERGE_DL)=    0.0006470301 
ITERATION 101 : L=   17.3711495252 DL=  1.13e-05 (AVERGE_DL)=    0.0006360368 
ITERATION 102 : L=   17.3711604748 DL=  1.09e-05 (AVERGE_DL)=    0.0006253468 
ITERATION 103 : L=   17.3711710633 DL=  1.06e-05 (AVERGE_DL)=    0.0006149463 
ITERATION 104 : L=   17.3711813054 DL=  1.02e-05 (AVERGE_DL)=    0.0006048068 
ITERATION 105 : L=   17.3711912170 DL=  9.91e-06 (AVERGE_DL)=    0.0005949672 
ITERATION 106 : L=   17.3712008108 DL=  9.59e-06 (AVERGE_DL)=    0.0005853504 
ITERATION 107 : L=   17.3712101010 DL=  9.29e-06 (AVERGE_DL)=    0.0005760131 
ITERATION 108 : L=   17.3712190989 DL=  9.00e-06 (AVERGE_DL)=    0.0005668825 
ITERATION 109 : L=   17.3712278176 DL=  8.72e-06 (AVERGE_DL)=    0.0005580137 
ITERATION 110 : L=   17.3712362670 DL=  8.45e-06 (AVERGE_DL)=    0.0005493308 
ITERATION 111 : L=   17.3712444586 DL=  8.19e-06 (AVERGE_DL)=    0.0005408872 
ITERATION 112 : L=   17.3712524021 DL=  7.94e-06 (AVERGE_DL)=    0.0005326312 
ITERATION 113 : L=   17.3712601069 DL=  7.70e-06 (AVERGE_DL)=    0.0005245679 
ITERATION 114 : L=   17.3712675830 DL=  7.48e-06 (AVERGE_DL)=    0.0005167244 
ITERATION 115 : L=   17.3712748383 DL=  7.26e-06 (AVERGE_DL)=    0.0005090359 
ITERATION 116 : L=   17.3712818812 DL=  7.04e-06 (AVERGE_DL)=    0.0005015299 
ITERATION 117 : L=   17.3712887200 DL=  6.84e-06 (AVERGE_DL)=    0.0004942111 
ITERATION 118 : L=   17.3712953619 DL=  6.64e-06 (AVERGE_DL)=    0.0004870426 
ITERATION 119 : L=   17.3713018141 DL=  6.45e-06 (AVERGE_DL)=    0.0004800345 
ITERATION 120 : L=   17.3713080834 DL=  6.27e-06 (AVERGE_DL)=    0.0004731859 
ITERATION 121 : L=   17.3713141763 DL=  6.09e-06 (AVERGE_DL)=    0.0004664787 
ITERATION 122 : L=   17.3713200996 DL=  5.92e-06 (AVERGE_DL)=    0.0004599411 
ITERATION 123 : L=   17.3713258584 DL=  5.76e-06 (AVERGE_DL)=    0.0004535124 
ITERATION 124 : L=   17.3713314590 DL=  5.60e-06 (AVERGE_DL)=    0.0004472361 
ITERATION 125 : L=   17.3713369068 DL=  5.45e-06 (AVERGE_DL)=    0.0004410958 
ITERATION 126 : L=   17.3713422072 DL=  5.30e-06 (AVERGE_DL)=    0.0004350839 
ITERATION 127 : L=   17.3713473644 DL=  5.16e-06 (AVERGE_DL)=    0.0004291699 
MAXIMUM NO OF ITERATIONS EXCEEDED - LOCALIZATION NOT CONVERGED


--------------------------------------------------------------------------------
                    LOCALIZED MOLECULAR ORBITAL COMPOSITIONS
--------------------------------------------------------------------------------

The Mulliken populations for each LMO on each atom are computed
The LMO`s will be ordered according to atom index and type
  (A) Strongly localized MO`s have populations of >=0.950 on one atom
  (B) Two center bond orbitals have populations of >=0.850 on two atoms
  (C) Other MO`s are considered to be `delocalized`

FOUND  -   4 strongly local MO`s
       -   4 two center bond MO`s
       -   0 significantly delocalized MO`s

Rather strongly localized orbitals:
MO   5:   1S  -   0.999296
MO   4:   1S  -   0.999941
MO   3:   1S  -   0.998869
MO   2:   0Li -   1.003327
Bond-like localized orbitals:
MO   9:   1S  -   0.854714  and   0Li -   0.145286
MO   8:   1S  -   0.939059  and   0Li -   0.060941
MO   7:   1S  -   0.832317  and   0Li -   0.167683
MO   6:   1S  -   0.939101  and   0Li -   0.060899
Localized MO's were stored in: /cluster/projects/nn14654k/ylvaos/basis_set_n_funcs/functionals/gga_c_N12/LiS/inp/LiS_gga_c_N12_pc2.loc
------------------------------------------------------------------------------
                           ORCA ORBITAL LOCALIZATION
------------------------------------------------------------------------------

Input orbitals are from                  ... /cluster/projects/nn14654k/ylvaos/basis_set_n_funcs/functionals/gga_c_N12/LiS/inp/LiS_gga_c_N12_pc2.loc
Output orbitals are to                   ... /cluster/projects/nn14654k/ylvaos/basis_set_n_funcs/functionals/gga_c_N12/LiS/inp/LiS_gga_c_N12_pc2.loc
Max. number of iterations                ... 128
Localizations seeded randomly            ... on
Convergence tolerance                    ... 1.000e-06
Threshold for strong local MOs           ... 9.500e-01
Threshold for bond MOs                   ... 8.500e-01
Operator                                 ... 1
Orbital range for localization           ... 2 to 8
Localization criterion                   ... NEW-BOYS
Doing the dipole integrals               ... o.k.
Initial value of the localization sum :    13.573681
ITERATION   0 : L=   15.8959829851 DL=  2.32e+00 (AVERGE_DL)=    0.3325444750 
ITERATION   1 : L=   17.4292388824 DL=  1.53e+00 (AVERGE_DL)=    0.2702076712 
ITERATION   2 : L=   17.6437481834 DL=  2.15e-01 (AVERGE_DL)=    0.1010679406 
ITERATION   3 : L=   17.6578739153 DL=  1.41e-02 (AVERGE_DL)=    0.0259355722 
ITERATION   4 : L=   17.6592629100 DL=  1.39e-03 (AVERGE_DL)=    0.0081328101 
ITERATION   5 : L=   17.6594063039 DL=  1.43e-04 (AVERGE_DL)=    0.0026130985 
ITERATION   6 : L=   17.6594213617 DL=  1.51e-05 (AVERGE_DL)=    0.0008467797 
ITERATION   7 : L=   17.6594229507 DL=  1.59e-06 (AVERGE_DL)=    0.0002750750 
ITERATION   8 : L=   17.6594231190 DL=  1.68e-07 (AVERGE_DL)=    0.0000895446 
LOCALIZATION SUM CONVERGED


--------------------------------------------------------------------------------
                    LOCALIZED MOLECULAR ORBITAL COMPOSITIONS
--------------------------------------------------------------------------------

The Mulliken populations for each LMO on each atom are computed
The LMO`s will be ordered according to atom index and type
  (A) Strongly localized MO`s have populations of >=0.950 on one atom
  (B) Two center bond orbitals have populations of >=0.850 on two atoms
  (C) Other MO`s are considered to be `delocalized`

FOUND  -   5 strongly local MO`s
       -   2 two center bond MO`s
       -   0 significantly delocalized MO`s

Rather strongly localized orbitals:
MO   6:   1S  -   0.999158
MO   5:   1S  -   0.999765
MO   4:   1S  -   0.999765
MO   3:   1S  -   0.999884
MO   2:   0Li -   1.002587
Bond-like localized orbitals:
MO   8:   1S  -   0.888779  and   0Li -   0.111221
MO   7:   1S  -   0.888776  and   0Li -   0.111224
Localized MO's were stored in: /cluster/projects/nn14654k/ylvaos/basis_set_n_funcs/functionals/gga_c_N12/LiS/inp/LiS_gga_c_N12_pc2.loc

-------------------------   --------------------
FINAL SINGLE POINT ENERGY      -379.808044318905
-------------------------   --------------------



           ************************************************************
           *        Program running with 8 parallel MPI-processes     *
           *              working on a common directory               *
           ************************************************************

------------------------------------------------------------------------------
                              ORCA PROPERTY CALCULATIONS
------------------------------------------------------------------------------

GBWName                                 ... /cluster/projects/nn14654k/ylvaos/basis_set_n_funcs/functionals/gga_c_N12/LiS/inp/LiS_gga_c_N12_pc2.gbw
Number of atoms                         ...      2
Number of basis functions               ...     49
Max core memory                         ...   4096 MB

Electric properties:
Dipole moment                           ... YES
Quadrupole moment                       ... YES
Static polarizability (Dipole/Dipole)   ...  NO
Static polarizability (Dipole/Quad.)    ...  NO
Static polarizability (Quad./Quad.)     ...  NO
Static polarizability (Velocity)        ...  NO
Static hyperpolarizability              ...  NO

Atomic electric properties:
Dipole moment                           ...  NO
Quadrupole moment                       ...  NO
Static polarizability                   ...  NO

Choice of electric origin               ... Center of mass
Position of electric origin             ...     0.000000     0.000000     1.308198

General magnetic properties:
Magnetizability                         ...  NO

EPR properties:
g-Tensor (aka g-matrix)                 ...  NO
Zero-Field splitting spin-orbit         ...  NO
Zero-field splitting spin-spin          ...  NO
Hyperfine couplings                     ...  NO (   0 nuclei)
Quadrupole couplings                    ...  NO (   0 nuclei)
Contact density                         ...  NO (   0 nuclei)

NMR properties:
Chemical shifts                         ...  NO (   0 nuclei)
Spin-rotation constants                 ...  NO (   0 nuclei)
Spin-spin couplings                     ...  NO (   0 nuclei,    0 pairs)

Choice of magnetic origin               ... GIAO
Position of magnetic origin             ...     0.000000     0.000000     0.000000

Properties with geometric perturbations:
SCF Hessian                             ...  NO
IR spectrum                             ...  NO
VCD spectrum                            ...  NO
X-ray spectroscopy properties:
SCF XES/XAS/RIXS spectra                ...  NO

SCF SOC stabilization energy            ...  NO
Diagonal Born-Oppenheimer correction    ...  NO

-------------
DIPOLE MOMENT
-------------

Method             : SCF
Type of density    : Electron Density
Multiplicity       :   2
Irrep              :   0
Energy             :  -379.8080443189047628 Eh
Basis              : AO
                                X                 Y                 Z
Electronic contribution:      0.000000003       0.000000001      -2.798374798
Nuclear contribution   :      0.000000000       0.000000000       1.549484202
                        -----------------------------------------
Total Dipole Moment    :      0.000000003       0.000000001      -1.248890596
                        -----------------------------------------
Magnitude (a.u.)       :      1.248890596
Magnitude (Debye)      :      3.174427620



--------------------
Rotational spectrum 
--------------------
 
Rotational constants in cm-1:             0.000000             0.639339             0.639339 
Rotational constants in MHz :             0.000000         19166.891897         19166.891897 

Dipole components along the rotational axes: 
x,y,z [a.u.] :    -1.248891     0.000000     0.000000 
x,y,z [Debye]:    -3.174428     0.000000     0.000000 

 

Dipole moment calculation done in   0.0 sec 

-----------------
QUADRUPOLE MOMENT
-----------------

Method             : SCF
Type of density    : Electron Density
Multiplicity       :   2
Irrep              :   0
Energy             :  -379.8080443189047628 Eh
Basis              : AO

                XX              YY              ZZ              XY              XZ              YZ
  NUC        0.000000000     0.000000000    41.817245673     0.000000000     0.000000000     0.000000000
  EL       -21.728225112   -19.333629532   -55.853471368     1.121307187     0.000000005    -0.000000006
  TOT      -21.728225112   -19.333629532   -14.036225694     1.121307187     0.000000005    -0.000000006 (a.u.)
           -29.225205881   -26.004392931   -18.879203598     1.508196516     0.000000006    -0.000000009 (Buckingham)

diagonalized tensor:
           -22.171308926   -18.890545718   -14.036225694 (a.u.)
           -29.821168764   -25.408430048   -18.879203598 (Buckingham)
           -15.354703883    -2.116487733    17.471191616 (traceless form in Buckingham)

            -0.930024138     0.367498440     0.000000000
             0.367498440     0.930024138    -0.000000001
             0.000000001     0.000000001     1.000000000
        
Isotropic quadrupole :   -18.366026780

Quadrupole moment calculation done in   0.0 sec (  0.0 sec for integrals)

Maximum memory used throughout the entire PROP-calculation: 2.6 MB

--------------------------------
SUGGESTED CITATIONS FOR THIS RUN
--------------------------------

Below you find a list of papers that are relevant to this ORCA run
We neither can nor want to force you to cite these papers, but we appreciate if you do
You receive ORCA, which is the product of decades of hard work by many enthusiastic individuals, for free
The only thing we kindly ask in return is that you cite our papers,
We deeply appreciate it, if you show your appreciation for ORCA by not just citing the generic ORCA reference.

Please note that relegating all ORCA citations to the supporting information does *not* help us.
SI sections are not indexed - citations you put there will not count into any citation statistics
But we need these citations in order to attract the funding resources that allow us to do what we are doing

Therefore, if you are a happy ORCA user, please consider citing a few of the papers listed below in the main body of your paper

In addition to the list printed below, the program has created the file /cluster/projects/nn14654k/ylvaos/basis_set_n_funcs/functionals/gga_c_N12/LiS/inp/LiS_gga_c_N12_pc2.bibtex that contains the list in bibtex format
You can import this file easily into all common literature databanks and citation aid programs

It goes without saying that in many instances, there are alternative algorithms to achieve similar
results as the ones you have gotten from ORCA. It is, of course, also the case that in some instances
ORCA just re-implements algorithms worked out by others. We are fully aware of that and we are also
fully appreciative of our colleagues work. Hence this citation list should not be read as indicating
that the listed papers, which are focused on our own work, are the only ones worth citing. It simply
meant to make it easier for users to cite ORCA specific papers. It is not a substitute for doing your
own literature research and citing the relevant literature in a scientifically appropriate manner.

List of essential papers. We consider these as the minimum necessary citations

  1. Neese, F.
     Software update: the ORCA program system, version 6.0
     WIRES Comput. Molec. Sci. 2025 15(1), e70019
     doi.org/10.1002/wcms.70019

List of papers to cite with high priority. The work reported in these papers was absolutely
necessary for this run to complete.
Our perspective: the developers of density functionals and basis sets usually get cited in chemistry papers
Good! But without the algorithms to do something with them, the functionals or basis sets would not do anything.
Hence, in our opinion, the algorithm design and method developments papers are equally worthy of getting cited

  1. Lehtola, S.; Steigemann, C.; Oliveira, M.; Marques, M.
     Recent developments in Libxc - A comprehensive library of functionals for density functional theory
     Software X 2018 7 , 
     doi.org/10.1016/j.softx.2017.11.002
  2. Neese, F.
     The SHARK Integral Generation and Digestion System
     J. Comp. Chem. 2022 44(3), 381
     doi.org/10.1002/jcc.26942

List of suggested additional citations. These are papers that are important in the 'surrounding' of 
of this run, or papers that preceded the highly important papers. If you like your results we are grateful for a citation.

  1. Neese, F.
     The ORCA program system
     WIRES Comput. Molec. Sci. 2012 2(1), 73-78
     doi.org/10.1002/wcms.81
  2. Neese, F.
     Software update: the ORCA program system, version 4.0
     WIRES Comput. Molec. Sci. 2018 8(1), 1-6
     doi.org/10.1002/wcms.1327
  3. Neese, F.; Wennmohs, F.; Becker, U.; Riplinger, C.
     The ORCA quantum chemistry program package
     J. Chem. Phys. 2020 152(22), 224108
     doi.org/10.1063/5.0004608
  4. Neese, F.
     Software update: The ORCA program system—Version 5.0
     WIRES Comput. Molec. Sci. 2022 12(1), e1606
     doi.org/10.1002/wcms.1606

List of optional additional citations

  1. Neese, F.
     Approximate second-order SCF convergence for spin unrestricted wavefunctions
     Chem. Phys. Lett. 2000 325(1-3), 93-98
     doi.org/10.1016/s0009-2614(00)00662-x

Timings for individual modules:

Sum of individual times          ...        4.884 sec (=   0.081 min)
Startup calculation              ...        0.379 sec (=   0.006 min)   7.8 %
SCF iterations                   ...        3.976 sec (=   0.066 min)  81.4 %
Property integrals               ...        0.268 sec (=   0.004 min)   5.5 %
Property calculations            ...        0.251 sec (=   0.004 min)   5.1 %
Orbital localization             ...        0.009 sec (=   0.000 min)   0.2 %
                             ****ORCA TERMINATED NORMALLY****
TOTAL RUN TIME: 0 days 0 hours 0 minutes 5 seconds 840 msec
