
                                 *****************
                                 * O   R   C   A *
                                 *****************

                                            #,                                       
                                            ###                                      
                                            ####                                     
                                            #####                                    
                                            ######                                   
                                           ########,                                 
                                     ,,################,,,,,                         
                               ,,#################################,,                 
                          ,,##########################################,,             
                       ,#########################################, ''#####,          
                    ,#############################################,,   '####,        
                  ,##################################################,,,,####,       
                ,###########''''           ''''###############################       
              ,#####''   ,,,,##########,,,,          '''####'''          '####       
            ,##' ,,,,###########################,,,                        '##       
           ' ,,###''''                  '''############,,,                           
         ,,##''                                '''############,,,,        ,,,,,,###''
      ,#''                                            '''#######################'''  
     '                                                          ''''####''''         
             ,#######,   #######,   ,#######,      ##                                
            ,#'     '#,  ##    ##  ,#'     '#,    #''#        ,####,    ,#,          
            ##       ##  ##   ,#'  ##            #'  '#       #'       ,# #          
            ##       ##  #######   ##           ,######,      #####,      #          
            '#,     ,#'  ##    ##  '#,     ,#' ,#      #,     #,   #      #          
             '#######'   ##     ##  '#######'  #'      '#     '####' #    #          



                #########################################################
                #                        -***-                          #
                #          Department of theory and spectroscopy        #
                #                                                       #
                #                      Frank Neese                      #
                #                                                       #
                #     Directorship, Architecture, Infrastructure        #
                #                    SHARK, DRIVERS                     #
                #        Core code/Algorithms in most modules           #
                #                                                       #
                #        Max Planck Institute fuer Kohlenforschung      #
                #                Kaiser Wilhelm Platz 1                 #
                #                 D-45470 Muelheim/Ruhr                 #
                #                      Germany                          #
                #                                                       #
                #                  All rights reserved                  #
                #                        -***-                          #
                #########################################################


                         Program Version 6.1.1  -  RELEASE   -
                                (GIT: $487d211c$)
                          ($2025-11-21 10:33:24 +0100$)


 With contributions from (in alphabetic order):
[Max-Planck-Institut fuer Kohlenforschung]                               
  Daniel Aravena         : Magnetic Suceptibility                        
  Michael Atanasov       : Ab Initio Ligand Field Theory (pilot matlab implementation)
  Alexander A. Auer      : GIAO ZORA, VPT2 properties, NMR spectrum      
  Ute Becker             : All parallelization in ORCA, NUMFREQ, NUMCALC 
  Giovanni Bistoni       : ED, misc. LED, open-shell LED, HFLD           
  Dmytro Bykov           : pre 5.0 version of the SCF Hessian            
  Marcos Casanova-Páez   : Triplet and SCS-CIS(D). UHF-(DLPNO)-IP/EA/STEOM-CCSD. UHF-CVS-IP/STEOM-CCSD   
  Vijay G. Chilkuri      : MRCI spin determinant printing, contributions to CSF-ICE 
  Pauline Colinet        : FMM embedding                                 
  Dipayan Datta          : RHF DLPNO-CCSD density                        
  Achintya Kumar Dutta   : EOM-CC, STEOM-CC                              
  Nicolas Foglia         : Exact transition moments, OPA infrastructure, MCD improvements    
  Dmitry Ganyushin       : Spin-Orbit,Spin-Spin,Magnetic field MRCI      
  Miquel Garcia-Rates    : C-PCM and meta-GGA Hessian, CCSD/C-PCM, Gaussian charge scheme 
  Tiago L. C. Gouveia    : GS-ROHF, GS-ROCIS                             
  Yang Guo               : DLPNO-NEVPT2, F12-NEVPT2, CIM, IAO-localization        
  Andreas Hansen         : Spin unrestricted coupled pair/coupled cluster methods 
  Ingolf Harden          : AUTO-CI MPn and infrastructure                
  Benjamin Helmich-Paris : MC-RPA, TRAH-(SCF,CASSCF), AVAS, COSX integrals, SCF dyn. polar., MC-PDFT, srDFT 
  Lee Huntington         : MR-EOM, pCC                                   
  Robert Izsak           : Overlap fitted RIJCOSX, COSX-SCS-MP3, EOM     
  Riya Kayal             : Wick's Theorem for AUTO-CI, AUTO-CI UHF-CCSDT 
  Emily Kempfer          : AUTO-CI RHF CISDT and CCSDT, approximate NEVPT4
  Christian Kollmar      : KDIIS, OOCD, Brueckner-CCSD(T), CCSD density, CASPT2, CASPT2-K, improved NEVPT2 
  Axel Koslowski         : Symmetry handling                             
  Simone Kossmann        : meta-GGA functionals, TD-DFT gradient, OOMP2, (MP2 Hessian; deprecated post 5.0) 
  Lucas Lang             : DCDCAS, Hyperfine gauge corrections, ICE-SOC+SSC
  Marvin Lechner         : AUTO-CI (C++ implementation), FIC-MRCC        
  Spencer Leger          : CASSCF response                               
  Dagmar Lenk            : GEPOL surface, SMD, ORCA-2-JSON               
  Dimitrios Liakos       : Extrapolation schemes; Compound Job, Property file
  Dimitrios Manganas     : Further ROCIS development; embedding schemes. LFT, Crystal Embedding 
  Dimitrios Pantazis     : SARC Basis sets                               
  Anastasios Papadopoulos: AUTO-CI, single reference methods and gradients 
  Taras Petrenko         : pre 6.0 DFT Hessian and TD-DFT gradient,  ECA, NRVS 
  Petra Pikulova         : Analytic Raman intensities                    
  Peter Pinski           : DLPNO-MP2, DLPNO-MP2 Gradient                 
  Shashank Vittal Rao    : ES-AILFT, MagRelax                            
  Christoph Reimann      : Effective Core Potentials                     
  Marius Retegan         : Local ZFS, SOC                                
  Christoph Riplinger    : Optimizer, TS searches, QM/MM, DLPNO-CCSD(T), (RO)-DLPNO pert. Triples 
  Michael Roemelt        : Original ROCIS implementation, recursive CI coupling coefficients
  Masaaki Saitow         : Open-shell DLPNO-CCSD energy and density      
  Barbara Sandhoefer     : DKH picture change effects                    
  Yorick L. A. Schmerwitz: GMF and freeze-and-release deltaSCF, NEB S-IDPP initial path                    
  Kantharuban Sivalingam : CASSCF convergence/infrastructure, NEVPT2, NEVPT3, NEVPT4(SD), FIC-MRCI and CEPA variants
  Bernardo de Souza      : ESD, SOC TD-DFT                               
  Georgi L. Stoychev     : AutoAux, RI-MP2 NMR, DLPNO-MP2 response, X2C  
  Van Anh Tran           : RI-MP2 g-tensors                              
  Willem Van den Heuvel  : Paramagnetic NMR                              
  Zikuan Wang            : NOTCH, Electric field optimization            
  Frank Wennmohs         : Technical directorship and infrastructure     
  Hang Xu                : AUTO-CI-Response properties                   
                                                                         
[FACCTs GmbH]                                                            
  Markus Bursch, Nicolas Foglia, Miquel Garcia-Rates, Ingolf Harden, Hagen Neugebauer, Anastasios Papadopoulos, 
  Christoph Riplinger, Bernardo de Souza, Georgi L. Stoychev                                                    
                                                                 
  APM, various basis sets, CI-OPT, improved COSX, DLPNO-Multilevel,           
  DOCKER, DRACO, updates on ESD, Fragmentator, GOAT, IRC, LR-CPCM, L-BFGS, MBIS, meta-GGA TD-DFT gradient, ML-optimized integration grids, 
  MM, NACMEs, nearIR, NEB, NEB-TS, NL-DFT gradient (VV10), 2- and 3-layer-ONIOM, interface openCOSMO-RS, QMMM,   
  Crystal-QMMM, RESP, rigid body optimization, SF, symmetry and pop. for TD-DFT, various functionals, SOLVATOR                                   
                                                                         
[Other institutions]                                                     
  V. Asgeirsson          : NEB                                           
  Christoph Bannwarth    : sTDA-DFT, sTD-DFT, PBEh-3c, B97-3c, D3        
  Giovanni Bistoni       : ETS/NOCV, ADLD/ADEX, COVALED                  
  Martin Brehm           : Molecular dynamics                            
  Ronald Cardenas        : ETS/NOCV                                      
  Martina Colucci        : COVALED                                       
  Sebastian Ehlert       : rSCAN, r2SCAN, r2SCAN-3c, D4, dhf basis sets  
  Marvin Friede          : D4 for Fr, Ra, Ac-Lr                          
  Lars Goerigk           : TD-DFT with DH, B97 family of functionals     
  Stefan Grimme          : VdW corrections, initial TS optimization, DFT functionals, gCP, sTDA/sTD-DF 
  Waldemar Hujo          : DFT-NL                                        
  H. Jonsson             : NEB                                           
  Holger Kruse           : gCP                                           
  Marcel Mueller         : wB97X-3c, vDZP basis set                      
  Hagen Neugebauer       : wr2SCAN, Native XTB                           
  Gianluca Regni         : ADLD/ADEX                                     
  Tobias Risthaus        : pre 6.0 range-separated hybrid DFT and stability analysis
  Lukas Wittmann         : regularized MP2, r2SCAN double-hybrids, wr2SCAN        
                                                                         
We gratefully acknowledge several colleagues who have allowed us to      
interface, adapt or use parts of their codes:                            
  Ed Valeev, F. Pavosevic, A. Kumar             : LibInt (2-el integral package), F12 methods 
  Garnet Chan, S. Sharma, J. Yang, R. Olivares  : DMRG                   
  Ulf Ekstrom                                   : XCFun DFT Library      
  Mihaly Kallay                                 : mrcc  (arbitrary order and MRCC methods)
  Frank Weinhold                                : gennbo (NPA and NBO analysis)           
  Simon Mueller                                 : openCOSMO-RS                            
  Christopher J. Cramer and Donald G. Truhlar   : smd solvation model                     
  S Lehtola, MJT Oliveira, MAL Marques          : LibXC Library                           
  Liviu Ungur et al                             : ANISO software                          


 Your calculation uses the libint2 library for the computation of 2-el integrals
 For citations please refer to: http://libint.valeyev.net

 Your ORCA version has been built with support for libXC version: 7.0.0
 For citations please refer to: https://libxc.gitlab.io

 This ORCA versions uses:
   CBLAS   interface :  Fast vector & matrix operations
   LAPACKE interface :  Fast linear algebra routines
   SCALAPACK package :  Parallel linear algebra routines
   Shared memory     :  Shared parallel matrices
   BLAS/LAPACK       :  OpenBLAS 0.3.29  USE64BITINT DYNAMIC_ARCH NO_AFFINITY Cooperlake SINGLE_THREADED
        Core in use  :  Cooperlake
   Copyright (c) 2011-2014, The OpenBLAS Project


  ***********************************
  * Starting time: Wed May 20 12:36:45 2026
  * Host name:     c1-46
  * Process ID:    3932546
  * Working dir.:  /cluster/projects/nn14654k/ylvaos/basis_set_n_funcs/functionals/pw91/LiS/out
  ***********************************

Using LibXC functional ID 109 : Perdew & Wang 91
[ 1]  J. P. Perdew. In P. Ziesche and H. Eschrig, editors, Proceedings of the 75. WE-Heraeus-Seminar and 21st Annual International Symposium on Electronic Structure of Solids, 11. Berlin, 1991. Akademie Verlag.
[ 2]  J. P. Perdew, J. A. Chevary, S. H. Vosko, K. A. Jackson, M. R. Pederson, D. J. Singh, and C. Fiolhais.,  Phys. Rev. B 46, 6671 (1992)
[ 3]  J. P. Perdew, J. A. Chevary, S. H. Vosko, K. A. Jackson, M. R. Pederson, D. J. Singh, and C. Fiolhais.,  Phys. Rev. B 48, 4978 (1993)
Using LibXC functional ID 134 : Perdew & Wang 91
[ 1]  J. P. Perdew. In P. Ziesche and H. Eschrig, editors, Proceedings of the 75. WE-Heraeus-Seminar and 21st Annual International Symposium on Electronic Structure of Solids, 11. Berlin, 1991. Akademie Verlag.
[ 2]  J. P. Perdew, J. A. Chevary, S. H. Vosko, K. A. Jackson, M. R. Pederson, D. J. Singh, and C. Fiolhais.,  Phys. Rev. B 46, 6671 (1992)
[ 3]  J. P. Perdew, J. A. Chevary, S. H. Vosko, K. A. Jackson, M. R. Pederson, D. J. Singh, and C. Fiolhais.,  Phys. Rev. B 48, 4978 (1993)
Using LibXC functional ID 109 : Perdew & Wang 91
[ 1]  J. P. Perdew. In P. Ziesche and H. Eschrig, editors, Proceedings of the 75. WE-Heraeus-Seminar and 21st Annual International Symposium on Electronic Structure of Solids, 11. Berlin, 1991. Akademie Verlag.
[ 2]  J. P. Perdew, J. A. Chevary, S. H. Vosko, K. A. Jackson, M. R. Pederson, D. J. Singh, and C. Fiolhais.,  Phys. Rev. B 46, 6671 (1992)
[ 3]  J. P. Perdew, J. A. Chevary, S. H. Vosko, K. A. Jackson, M. R. Pederson, D. J. Singh, and C. Fiolhais.,  Phys. Rev. B 48, 4978 (1993)
Using LibXC functional ID 134 : Perdew & Wang 91
[ 1]  J. P. Perdew. In P. Ziesche and H. Eschrig, editors, Proceedings of the 75. WE-Heraeus-Seminar and 21st Annual International Symposium on Electronic Structure of Solids, 11. Berlin, 1991. Akademie Verlag.
[ 2]  J. P. Perdew, J. A. Chevary, S. H. Vosko, K. A. Jackson, M. R. Pederson, D. J. Singh, and C. Fiolhais.,  Phys. Rev. B 46, 6671 (1992)
[ 3]  J. P. Perdew, J. A. Chevary, S. H. Vosko, K. A. Jackson, M. R. Pederson, D. J. Singh, and C. Fiolhais.,  Phys. Rev. B 48, 4978 (1993)
Your calculation utilizes LibXC
by S. Lehtola, C. Steigemann, M. J. T. Oliveira & M. A. L. Marques
Please cite in your paper:
Lehtola, S.; Steigemann, C.; Oliveira, M.J.T.; Marques, M. A. L. Software X, 7, (2018), 1.
   

================================================================================

----- Orbital basis set information -----
Your calculation utilizes the basis: aug-cc-pVQZ 
    H, B-Ne : Obtained from the ccRepo (grant-hill.group.shef.ac.uk/ccrepo) Feb. 2017
              R. A. Kendall, T. H. Dunning, Jr., R. J. Harrison, J. Chem. Phys. 96, 6796 (1992)
         He : Obtained from the ccRepo (grant-hill.group.shef.ac.uk/ccrepo) Feb. 2017
              D. E. Woon, T. H. Dunning, Jr., J. Chem. Phys. 100, 2975 (1994)
  Li-Be, Na : Obtained from the ccRepo (grant-hill.group.shef.ac.uk/ccrepo) Feb. 2017
              B. P. Prascher, D. E. Woon, K. A. Peterson, T. H. Dunning, Jr., A. K. Wilson, Theor. Chem. Acc. 128, 69 (2011)
         Mg : Obtained from the Peterson Research Group Website (tyr0.chem.wsu.edu/~kipeters) Feb. 2017
              B. P. Prascher, D. E. Woon, K. A. Peterson, T. H. Dunning, Jr., A. K. Wilson, Theor. Chem. Acc. 128, 69 (2011)
      Al-Ar : Obtained from the ccRepo (grant-hill.group.shef.ac.uk/ccrepo) Feb. 2017
              D. E. Woon, T. H. Dunning, Jr., J. Chem. Phys. 98, 1358 (1993)
      Sc-Zn : Obtained from the ccRepo (grant-hill.group.shef.ac.uk/ccrepo) Feb. 2017
              N. B. Balabanov, K. A. Peterson, J. Chem. Phys. 123, 064107 (2005)
              N. B. Balabanov, K. A. Peterson, J. Chem. Phys. 125, 074110 (2006)
      Ga-Kr : Obtained from the ccRepo (grant-hill.group.shef.ac.uk/ccrepo) Feb. 2017
              A. K. Wilson, D. E. Woon, K. A. Peterson, T. H. Dunning, Jr., J. Chem. Phys. 110, 7667 (1999)

================================================================================
                                        WARNINGS
                       Please study these warnings very carefully!
================================================================================


WARNING: your system is open-shell and RHF/RKS was chosen
  ===> : WILL SWITCH to UHF/UKS


================================================================================
                                       INPUT FILE
================================================================================
NAME = /cluster/projects/nn14654k/ylvaos/basis_set_n_funcs/functionals/pw91/LiS/inp/LiS_pw91_augccpvqz.inp
|  1> ! dft aug-cc-pVQZ TightSCF
|  2> %pal nprocs 8 end
|  3> 
|  4> %loc
|  5>   LocMet NewBoys
|  6>   Occ true
|  7> end
|  8> 
|  9> %method
| 10>   exchange gga_x_pw91
| 11>   correlation gga_c_pw91
| 12> end
| 13> 
| 14> %elprop
| 15>   Dipole true
| 16>   Quadrupole true
| 17> end
| 18> 
| 19> * xyz 0 2
| 20> Li    0.000000000000   0.000000000000  -1.074850000000
| 21> S    0.000000000000   0.000000000000   1.074850000000
| 22> *
| 23> 
| 24> 
| 25>                          ****END OF INPUT****
================================================================================

                       ****************************
                       * Single Point Calculation *
                       ****************************

---------------------------------
CARTESIAN COORDINATES (ANGSTROEM)
---------------------------------
  Li     0.000000    0.000000   -1.074850
  S      0.000000    0.000000    1.074850

----------------------------
CARTESIAN COORDINATES (A.U.)
----------------------------
  NO LB      ZA    FRAG     MASS         X           Y           Z
   0 Li    3.0000    0     6.941    0.000000    0.000000   -2.031172
   1 S    16.0000    0    32.060    0.000000    0.000000    2.031172

--------------------------------
INTERNAL COORDINATES (ANGSTROEM)
--------------------------------
 Li     0   0   0     0.000000000000     0.00000000     0.00000000
 S      1   0   0     2.149700000000     0.00000000     0.00000000

---------------------------
INTERNAL COORDINATES (A.U.)
---------------------------
 Li     0   0   0     0.000000000000     0.00000000     0.00000000
 S      1   0   0     4.062344270091     0.00000000     0.00000000

---------------------
BASIS SET INFORMATION
---------------------
There are 2 groups of distinct atoms

 Group   1 Type Li  : 22s7p4d3f2g contracted to 6s5p4d3f2g pattern {991111/31111/1111/111/11}
 Group   2 Type S   : 43s20p4d3f2g contracted to 7s6p4d3f2g pattern {1313131111/881111/1111/111/11}

Atom   0Li   basis set group =>   1
Atom   1S    basis set group =>   2


           ************************************************************
           *        Program running with 8 parallel MPI-processes     *
           *              working on a common directory               *
           ************************************************************
------------------------------------------------------------------------------
                             ORCA STARTUP CALCULATIONS
------------------------------------------------------------------------------
------------------------------------------------------------------------------
                   ___                                                        
                  /   \      - P O W E R E D   B Y -                         
                 /     \                                                     
                 |  |  |   _    _      __       _____    __    __             
                 |  |  |  | |  | |    /  \     |  _  \  |  |  /  |          
                  \  \/   | |  | |   /    \    | | | |  |  | /  /          
                 / \  \   | |__| |  /  /\  \   | |_| |  |  |/  /          
                |  |  |   |  __  | /  /__\  \  |    /   |      \           
                |  |  |   | |  | | |   __   |  |    \   |  |\   \          
                \     /   | |  | | |  |  |  |  | |\  \  |  | \   \       
                 \___/    |_|  |_| |__|  |__|  |_| \__\ |__|  \__/        
                                                                              
                      - O R C A' S   B I G   F R I E N D -                    
                                      &                                       
                       - I N T E G R A L  F E E D E R -                       
                                                                              
 v1 FN, 2020, v2 2021, v3 2022-2024                                           
------------------------------------------------------------------------------


----------------------
SHARK INTEGRAL PACKAGE
----------------------

Number of atoms                             ...      2
Number of basis functions                   ...    199
Number of shells                            ...     65
Maximum angular momentum                    ...      4
Integral batch strategy                     ... SHARK/LIBINT Hybrid
RI-J (if used) integral strategy            ... SPLIT-RIJ (Revised 2003 algorithm where possible)
Printlevel                                  ...      1
Contraction scheme used                     ... PARTIAL GENERAL contraction
Prescreening option                         ... SCHWARTZ
   Thresh                                   ... 2.500e-11
   Tcut                                     ... 2.500e-12
   Tpresel                                  ... 2.500e-12 
Coulomb Range Separation                    ... NOT USED
Exchange Range Separation                   ... NOT USED
Multipole approximations                    ... NOT USED
Finite Nucleus Model                        ... NOT USED
CABS basis                                  ... NOT available
Auxiliary Coulomb fitting basis             ... NOT available
Auxiliary J/K fitting basis                 ... NOT available
Auxiliary Correlation fitting basis         ... NOT available
Auxiliary 'external' fitting basis          ... NOT available

Checking pre-screening integrals            ... done (  0.0 sec) Dimension = 65
Save PGC pre-screening integrals            ... done (  0.0 sec) Dimension = 65
Calculate PGC overlap integrals             ... done (  0.0 sec) Dimension = 42
Calculating pre-screening integrals (ORCA)  ... done (  0.1 sec) Dimension = 42
Shell pair information
Shell pair cut-off parameter TPreSel        ...   2.5e-12
Total number of shell pairs                 ...      2145
Shell pairs after pre-screening             ...      1997
Total number of primitive shell pairs       ...      2281
Primitive shell pairs kept                  ...      2114
          la=0 lb=0:    376 shell pairs
          la=1 lb=0:    461 shell pairs
          la=1 lb=1:    153 shell pairs
          la=2 lb=0:    240 shell pairs
          la=2 lb=1:    136 shell pairs
          la=2 lb=2:     36 shell pairs
          la=3 lb=0:    176 shell pairs
          la=3 lb=1:    102 shell pairs
          la=3 lb=2:     48 shell pairs
          la=3 lb=3:     21 shell pairs
          la=4 lb=0:    114 shell pairs
          la=4 lb=1:     68 shell pairs
          la=4 lb=2:     32 shell pairs
          la=4 lb=3:     24 shell pairs
          la=4 lb=4:     10 shell pairs

Checking whether 4 symmetric matrices of dimension 199 fit in memory
:Max Core in MB      =   4096.00
 MB in use           =      5.51
 MB left             =   4090.49
 MB needed           =      0.61
 Data fit in memory  = YES
Calculating Nuclear repulsion               ... done (  0.0 sec) ENN=     11.815837557985 Eh

Diagonalization of the overlap matrix:
Smallest eigenvalue                        ... 8.338e-05
Time for diagonalization                   ...    0.002 sec
Threshold for overlap eigenvalues          ... 1.000e-07
Number of eigenvalues below threshold      ... 0
Time for construction of square roots      ...    0.002 sec
Total time needed                          ...    0.005 sec

-------------------
DFT GRID GENERATION
-------------------

General Integration Accuracy     IntAcc      ... 4.388
Radial Grid Type                 RadialGrid  ... OptM3 with GC (2021)
Angular Grid (max. ang.)         AngularGrid ... 4 (Lebedev-302)
Angular grid pruning method      GridPruning ... 4 (adaptive)
Weight generation scheme         WeightScheme... mBecke (2022)
Basis function cutoff            BFCut       ... 1.0000e-11
Integration weight cutoff        WCut        ... 1.0000e-14
Partially contracted basis set               ... off
Rotationally invariant grid construction     ... off
Angular grids for H and He will be reduced by one unit
Diffuse basis detected: some atoms will have their outermost
                        angular grid increased by 1.

Total number of grid points                  ...    14126
Total number of batches                      ...      221
Average number of points per batch           ...       63
Average number of grid points per atom       ...     7063

---------------------
SHARK GRID GENERATION
---------------------

General Integration Accuracy     IntAcc      ... 4.388
Radial Grid Type                 RadialGrid  ... OptM3 with GC (2021)
Angular Grid (max. ang.)         AngularGrid ... 4 (Lebedev-302)
Angular grid pruning method      GridPruning ... 4 (adaptive)
Weight generation scheme         WeightScheme... mBecke (2022)
Basis function cutoff            BFCut       ... 1.0000e-11
Integration weight cutoff        WCut        ... 1.0000e-14
Partially contracted basis set               ... off
Rotationally invariant grid construction     ... off
Angular grids for H and He will be reduced by one unit
Diffuse basis detected: some atoms will have their outermost
                        angular grid increased by 1.
Core-polarized basis detected: some atoms will have their core
                               angular grid increased.
Steep s-basis detected: some atoms will have their radial
                        grid points doubled.

Total number of grid points                  ...    33087
Total number of batches                      ...      518
Average number of points per batch           ...       63
Average number of grid points per atom       ...    16544
Grids setup in   0.7 sec
Initializing property integral containers    ... done (  0.0 sec)

SHARK setup successfully completed in   0.9 seconds

Maximum memory used throughout the entire STARTUP-calculation: 59.0 MB


           ************************************************************
           *        Program running with 8 parallel MPI-processes     *
           *              working on a common directory               *
           ************************************************************
-------------------------------------------------------------------------------
                                 ORCA GUESS
                   Start orbitals & Density for SCF / CASSCF
-------------------------------------------------------------------------------

------------
SCF SETTINGS
------------
Hamiltonian:
 Density Functional     Method          .... DFT(GTOs)
  Functional kind                       .... Exchange
  Functional name                       .... Perdew & Wang 91
  Functional family                     .... GGA
  Functional refs                              
    [ 0] J. P. Perdew. In P. Ziesche and H. Eschrig, editors, Proceedings of the 75. WE-Heraeus-Seminar and 21st Annual International Symposium on Electronic Structure of Solids, 11. Berlin, 1991. Akademie Verlag.
    [ 1] J. P. Perdew, J. A. Chevary, S. H. Vosko, K. A. Jackson, M. R. Pederson, D. J. Singh, and C. Fiolhais.,  Phys. Rev. B 46, 6671 (1992), doi: 10.1103/PhysRevB.46.6671
    [ 2] J. P. Perdew, J. A. Chevary, S. H. Vosko, K. A. Jackson, M. R. Pederson, D. J. Singh, and C. Fiolhais.,  Phys. Rev. B 48, 4978 (1993), doi: 10.1103/PhysRevB.48.4978.2
  Functional external parameters        .... 7
    Parameter  0 _a         =  1.964500e-01 : a parameter         
    Parameter  1 _b         =  7.795600e+00 : b parameter         
    Parameter  2 _c         =  2.743000e-01 : c parameter         
    Parameter  3 _d         = -1.508000e-01 : d parameter         
    Parameter  4 _f         =  4.000000e-03 : f parameter         
    Parameter  5 _alpha     =  1.000000e+02 : alpha parameter     
    Parameter  6 _expo      =  4.000000e+00 : exponent            
  Functional kind                       .... Correlation
  Functional name                       .... Perdew & Wang 91
  Functional family                     .... GGA
  Functional refs                              
    [ 0] J. P. Perdew. In P. Ziesche and H. Eschrig, editors, Proceedings of the 75. WE-Heraeus-Seminar and 21st Annual International Symposium on Electronic Structure of Solids, 11. Berlin, 1991. Akademie Verlag.
    [ 1] J. P. Perdew, J. A. Chevary, S. H. Vosko, K. A. Jackson, M. R. Pederson, D. J. Singh, and C. Fiolhais.,  Phys. Rev. B 46, 6671 (1992), doi: 10.1103/PhysRevB.46.6671
    [ 2] J. P. Perdew, J. A. Chevary, S. H. Vosko, K. A. Jackson, M. R. Pederson, D. J. Singh, and C. Fiolhais.,  Phys. Rev. B 48, 4978 (1993), doi: 10.1103/PhysRevB.48.4978.2
  Functional external parameters        .... 0
 Gradients option       PostSCFGGA      .... off


General Settings:
 Integral files         IntName         .... /cluster/projects/nn14654k/ylvaos/basis_set_n_funcs/functionals/pw91/LiS/inp/LiS_pw91_augccpvqz
 Hartree-Fock type      HFTyp           .... UHF
 Total Charge           Charge          ....    0
 Multiplicity           Mult            ....    2
 Number of Electrons    NEL             ....   19
 Basis Dimension        Dim             ....  164
 Nuclear Repulsion      ENuc            ....     11.8158375580 Eh

Convergence Acceleration:
 AO-DIIS                CNVDIIS         .... on
   Start iteration      DIISMaxIt       ....    12
   Startup error        DIISStart       ....  0.200000
   # of expansion vecs  DIISMaxEq       ....     5
   Bias factor          DIISBfac        ....   1.050
   Max. coefficient     DIISMaxC        ....  10.000
 MO-DIIS                CNVKDIIS        .... off
 Trust-Rad. Augm. Hess. CNVTRAH         .... auto
   Auto Start mean grad. ratio tolernc. ....  1.125000
   Auto Start start iteration           ....    50
   Auto Start num. interpolation iter.  ....    10
   Max. Number of Micro iterations      ....    24
   Max. Number of Macro iterations      .... Maxiter - #DIIS iter
   Number of Davidson start vectors     ....     2
   Converg. threshold    (grad. norm)   ....   1.000e-05
   Grad. Scal. Fac. for Micro threshold ....   0.100
   Minimum threshold for Micro iter.    ....   1.000e-02
   NR start threshold (gradient norm)   ....   1.000e-04
   Initial trust radius                 ....   0.400
   Minimum AH scaling param. (alpha)    ....   1.000
   Maximum AH scaling param. (alpha)    .... 1000.000
   Quad. conv. algorithm                .... NR
   White noise on init. David. guess    .... on
   Maximum white noise                  ....   0.010
   Pseudo random numbers                .... off
   Inactive MOs                         .... canonical
   Orbital update algorithm             .... Taylor
   Preconditioner                       .... Diag
   Full preconditioner red. dimension   ....   250
 SOSCF                 CNVSOSCF           .... on
   Start iteration     SOSCFMaxIt         ....   150
   Startup grad/error  SOSCFStart         ....  0.003300
   Hessian update      SOSCFHessUp        .... L-BFGS
   Autom. constraints  SOSCFAutoConstrain .... off
 Level Shifting         CNVShift        .... on
   Level shift para.    LevelShift      ....    0.2500
   Turn off err/grad.   ShiftErr        ....    0.0010
 Zerner damping         CNVZerner       .... off
 Static damping         CNVDamp         .... on
   Fraction old density DampFac         ....    0.7000
   Max. Damping (<1)    DampMax         ....    0.9800
   Min. Damping (>=0)   DampMin         ....    0.0000
   Turn off err/grad.   DampErr         ....    0.1000

SCF Procedure:
 Maximum # iterations   MaxIter         ....   125
 SCF integral mode      SCFMode         .... Direct
   Integral package                     .... SHARK and LIBINT hybrid scheme
 Reset frequency        DirectResetFreq ....    20
 Integral Threshold     Thresh          ....  2.500e-11 Eh
 Primitive CutOff       TCut            ....  2.500e-12 Eh

Convergence Tolerance:
 Convergence Check Mode ConvCheckMode   .... Total+1el-Energy
 Convergence forced     ConvForced      .... 0
 Energy Change          TolE            ....  1.000e-08 Eh
 1-El. energy change                    ....  1.000e-05 Eh
 Orbital Gradient       TolG            ....  1.000e-05
 Orbital Rotation angle TolX            ....  1.000e-05
 DIIS Error             TolErr          ....  5.000e-07

------------------------------
INITIAL GUESS: MODEL POTENTIAL
------------------------------
Loading Hartree-Fock densities                     ... done
Calculating cut-offs                               ... done
Initializing the effective Hamiltonian             ... done
Setting up the integral package (SHARK)            ... done
Starting the Coulomb interaction                   ... done (   0.0 sec)
Making the grid                                    ... done (   0.0 sec)
Mapping shells                                     ... done
Starting the XC term evaluation                    ... done (   0.0 sec)
  promolecular density results
     # of electrons  =     18.999681821
     EX              =    -26.701294417
     EC              =     -0.722250975
     EX+EC           =    -27.423545392
Transforming the Hamiltonian                       ... done (   0.0 sec)
Diagonalizing the Hamiltonian                      ... done (   0.0 sec)
Back transforming the eigenvectors                 ... done (   0.0 sec)
Now organizing SCF variables                       ... done
                      ------------------
                      INITIAL GUESS DONE (   0.1 sec)
                      ------------------
             **** ENERGY FILE WAS UPDATED (/cluster/projects/nn14654k/ylvaos/basis_set_n_funcs/functionals/pw91/LiS/inp/LiS_pw91_augccpvqz.en.tmp) ****
Finished Guess after   0.1 sec
Maximum memory used throughout the entire GUESS-calculation: 12.1 MB


           ************************************************************
           *        Program running with 8 parallel MPI-processes     *
           *              working on a common directory               *
           ************************************************************

-------------------------------------------------------------------------------------------
                                      ORCA LEAN-SCF
                              memory conserving SCF solver
-------------------------------------------------------------------------------------------

----------------------------------------D-I-I-S--------------------------------------------
Iteration    Energy (Eh)           Delta-E    RMSDP     MaxDP     DIISErr   Damp  Time(sec)
-------------------------------------------------------------------------------------------
               ***  Starting incremental Fock matrix formation  ***
    1    -405.6624518978717902     0.00e+00  1.91e-03  2.69e-02  6.26e-02  0.700   0.4
Warning: op=0 Small HOMO/LUMO gap (   0.058) - skipping pre-diagonalization
         Will do a full diagonalization
    2    -405.6796185528974092    -1.72e-02  1.88e-03  2.27e-02  3.66e-02  0.700   0.7
                               ***Turning on AO-DIIS***
    3    -405.6876902150027604    -8.07e-03  1.04e-03  1.17e-02  1.50e-02  0.700   0.4
    4    -405.6918153795800208    -4.13e-03  1.66e-03  1.99e-02  1.02e-02  0.000   0.4
    5    -405.7007795890412467    -8.96e-03  4.21e-04  4.54e-03  3.44e-03  0.000   0.4
                              *** Initializing SOSCF ***
---------------------------------------S-O-S-C-F--------------------------------------
Iteration    Energy (Eh)           Delta-E    RMSDP     MaxDP     MaxGrad    Time(sec)
--------------------------------------------------------------------------------------
    6    -405.7009501965117693    -1.71e-04  1.23e-04  1.33e-03  1.72e-03     0.4
               *** Restarting incremental Fock matrix formation ***
    7    -405.7009937048595702    -4.35e-05  7.81e-05  7.42e-04  7.45e-04     0.4
    8    -405.7010033304140393    -9.63e-06  6.07e-05  6.56e-04  3.51e-04     0.4
    9    -405.7010067169816807    -3.39e-06  3.03e-05  3.71e-04  1.56e-04     0.3
   10    -405.7010069170516999    -2.00e-07  6.05e-06  6.18e-05  4.36e-05     0.3
   11    -405.7010069485891677    -3.15e-08  3.73e-06  5.60e-05  2.01e-05     0.3
   12    -405.7010069525798031    -3.99e-09  1.18e-06  1.82e-05  9.19e-06     0.3
                 **** Energy Check signals convergence ****

               *****************************************************
               *                     SUCCESS                       *
               *           SCF CONVERGED AFTER  12 CYCLES          *
               *****************************************************

             **** ENERGY FILE WAS UPDATED (/cluster/projects/nn14654k/ylvaos/basis_set_n_funcs/functionals/pw91/LiS/inp/LiS_pw91_augccpvqz.en.tmp) ****

----------------
TOTAL SCF ENERGY
----------------

Total Energy       :       -405.70100695280274 Eh          -11039.68565 eV

Components:
Nuclear Repulsion  :         11.81583755798484 Eh             321.52529 eV
Electronic Energy  :       -417.51684451078756 Eh          -11361.21093 eV
One Electron Energy:       -584.40782862127890 Eh          -15902.54549 eV
Two Electron Energy:        166.89098411049136 Eh            4541.33455 eV

Virial components:
Potential Energy   :       -810.03132757632852 Eh          -22042.07302 eV
Kinetic Energy     :        404.33032062352584 Eh           11002.38737 eV
Virial Ratio       :          2.00339001618074

DFT components:
N(Alpha)           :       10.000001178217 electrons
N(Beta)            :        9.000000151779 electrons
N(Total)           :       19.000001329996 electrons
E(X)               :      -26.794716512122 Eh       
E(C)               :       -0.731097945977 Eh       
E(XC)              :      -27.525814458099 Eh       

---------------
SCF CONVERGENCE
---------------

  Last Energy change         ...    3.9906e-09  Tolerance :   1.0000e-08
  Last MAX-Density change    ...    1.8169e-05  Tolerance :   1.0000e-07
  Last RMS-Density change    ...    1.1751e-06  Tolerance :   5.0000e-09
  Last DIIS Error            ...    1.7216e-03  Tolerance :   5.0000e-07
  Last Orbital Gradient      ...    9.1864e-06  Tolerance :   1.0000e-05
  Last Orbital Rotation      ...    1.9372e-05  Tolerance :   1.0000e-05


----------------------
UHF SPIN CONTAMINATION
----------------------

Warning: in a DFT calculation there is little theoretical justification to 
         calculate <S**2> as in Hartree-Fock theory. We will do it anyways
         but you should keep in mind that the values have only limited relevance

Expectation value of <S**2>     :     0.754174
Ideal value S*(S+1) for S=0.5   :     0.750000
Deviation                       :     0.004174

----------------
ORBITAL ENERGIES
----------------
                 SPIN UP ORBITALS
  NO   OCC          E(Eh)            E(eV) 
   0   1.0000     -88.070935     -2396.5320 
   1   1.0000      -7.627411      -207.5524 
   2   1.0000      -5.663378      -154.1083 
   3   1.0000      -5.647342      -153.6720 
   4   1.0000      -5.646789      -153.6569 
   5   1.0000      -1.899114       -51.6775 
   6   1.0000      -0.556865       -15.1531 
   7   1.0000      -0.220398        -5.9973 
   8   1.0000      -0.200632        -5.4595 
   9   1.0000      -0.178351        -4.8532 
  10   0.0000      -0.077693        -2.1141 
  11   0.0000      -0.017733        -0.4825 
  12   0.0000      -0.013662        -0.3718 
  13   0.0000       0.003793         0.1032 
  14   0.0000       0.006002         0.1633 
  15   0.0000       0.016920         0.4604 
  16   0.0000       0.017944         0.4883 
  17   0.0000       0.032871         0.8945 
  18   0.0000       0.045508         1.2383 
  19   0.0000       0.045807         1.2465 
  20   0.0000       0.050375         1.3708 

                 SPIN DOWN ORBITALS
  NO   OCC          E(Eh)            E(eV) 
   0   1.0000     -88.066918     -2396.4227 
   1   1.0000      -7.622922      -207.4303 
   2   1.0000      -5.650941      -153.7699 
   3   1.0000      -5.644771      -153.6020 
   4   1.0000      -5.644143      -153.5849 
   5   1.0000      -1.899190       -51.6796 
   6   1.0000      -0.521836       -14.1999 
   7   1.0000      -0.189030        -5.1438 
   8   1.0000      -0.167158        -4.5486 
   9   0.0000      -0.153536        -4.1779 
  10   0.0000      -0.077653        -2.1131 
  11   0.0000      -0.013938        -0.3793 
  12   0.0000      -0.010779        -0.2933 
  13   0.0000       0.005697         0.1550 
  14   0.0000       0.007000         0.1905 
  15   0.0000       0.017860         0.4860 
  16   0.0000       0.017985         0.4894 
  17   0.0000       0.034380         0.9355 
  18   0.0000       0.047811         1.3010 
  19   0.0000       0.049120         1.3366 
*Only the first 10 virtual orbitals were printed.

                    ********************************
                    * MULLIKEN POPULATION ANALYSIS *
                    ********************************

--------------------------------------------
MULLIKEN ATOMIC CHARGES AND SPIN POPULATIONS
--------------------------------------------
   0 Li:    0.182912    0.031787
   1 S :   -0.182912    0.968213
Sum of atomic charges         :    0.0000000
Sum of atomic spin populations:    1.0000000

-----------------------------------------------------
MULLIKEN REDUCED ORBITAL CHARGES AND SPIN POPULATIONS
-----------------------------------------------------
CHARGE
  0 Lis       :     2.392158  s :     2.392158
      pz      :     0.167706  p :     0.318383
      px      :     0.033813
      py      :     0.116863
      dz2     :     0.024278  d :     0.076450
      dxz     :     0.014230
      dyz     :     0.037926
      dx2y2   :     0.000016
      dxy     :     0.000000
      f0      :     0.007284  f :     0.024392
      f+1     :     0.004972
      f-1     :     0.012122
      f+2     :     0.000004
      f-2     :     0.000000
      f+3     :     0.000003
      f-3     :     0.000006
      g0      :     0.001995  g :     0.005706
      g+1     :     0.001100
      g-1     :     0.002605
      g+2     :    -0.000002
      g-2     :    -0.000000
      g+3     :     0.000003
      g-3     :     0.000004
      g+4     :     0.000000
      g-4     :     0.000000

  1 S s       :     5.906647  s :     5.906647
      pz      :     3.525765  p :    10.297211
      px      :     2.945478
      py      :     3.825968
      dz2     :    -0.025402  d :    -0.020074
      dxz     :     0.001722
      dyz     :     0.002484
      dx2y2   :     0.001115
      dxy     :     0.000007
      f0      :    -0.002415  f :    -0.001575
      f+1     :    -0.000066
      f-1     :     0.000142
      f+2     :     0.000200
      f-2     :     0.000001
      f+3     :     0.000259
      f-3     :     0.000305
      g0      :     0.000637  g :     0.000702
      g+1     :     0.000014
      g-1     :     0.000044
      g+2     :     0.000003
      g-2     :     0.000000
      g+3     :     0.000001
      g-3     :     0.000001
      g+4     :     0.000002
      g-4     :     0.000000


SPIN
  0 Lis       :    -0.008454  s :    -0.008454
      pz      :    -0.001300  p :     0.022775
      px      :     0.033665
      py      :    -0.009590
      dz2     :    -0.001023  d :     0.012045
      dxz     :     0.014245
      dyz     :    -0.001183
      dx2y2   :     0.000006
      dxy     :     0.000000
      f0      :    -0.000583  f :     0.004367
      f+1     :     0.004996
      f-1     :    -0.000053
      f+2     :    -0.000003
      f-2     :    -0.000000
      f+3     :     0.000003
      f-3     :     0.000005
      g0      :    -0.000135  g :     0.001054
      g+1     :     0.001110
      g-1     :     0.000074
      g+2     :    -0.000002
      g-2     :    -0.000000
      g+3     :     0.000003
      g-3     :     0.000004
      g+4     :    -0.000000
      g-4     :    -0.000000

  1 S s       :    -0.000207  s :    -0.000207
      pz      :     0.010316  p :     0.964928
      px      :     0.942524
      py      :     0.012088
      dz2     :     0.000261  d :     0.002977
      dxz     :     0.001718
      dyz     :     0.000093
      dx2y2   :     0.000899
      dxy     :     0.000006
      f0      :     0.000025  f :     0.000497
      f+1     :    -0.000066
      f-1     :    -0.000181
      f+2     :     0.000181
      f-2     :     0.000001
      f+3     :     0.000258
      f-3     :     0.000279
      g0      :     0.000013  g :     0.000017
      g+1     :     0.000013
      g-1     :    -0.000010
      g+2     :     0.000001
      g-2     :     0.000000
      g+3     :     0.000001
      g-3     :     0.000001
      g+4     :    -0.000002
      g-4     :    -0.000000



                     *******************************
                     * LOEWDIN POPULATION ANALYSIS *
                     *******************************

-------------------------------------------
LOEWDIN ATOMIC CHARGES AND SPIN POPULATIONS
-------------------------------------------
   0 Li:   -0.812983    0.251552
   1 S :    0.812983    0.748448

----------------------------------------------------
LOEWDIN REDUCED ORBITAL CHARGES AND SPIN POPULATIONS
----------------------------------------------------
CHARGE
  0 Lis       :     2.143691  s :     2.143691
      pz      :     0.352562  p :     0.588995
      px      :     0.062737
      py      :     0.173696
      dz2     :     0.247991  d :     0.493274
      dxz     :     0.080564
      dyz     :     0.164693
      dx2y2   :     0.000025
      dxy     :     0.000000
      f0      :     0.158806  f :     0.375892
      f+1     :     0.075038
      f-1     :     0.141994
      f+2     :     0.000039
      f-2     :     0.000000
      f+3     :     0.000005
      f-3     :     0.000009
      g0      :     0.076383  g :     0.211131
      g+1     :     0.048029
      g-1     :     0.086652
      g+2     :     0.000046
      g-2     :     0.000000
      g+3     :     0.000008
      g-3     :     0.000012
      g+4     :     0.000000
      g-4     :     0.000000

  1 S s       :     5.324343  s :     5.324343
      pz      :     3.626247  p :     9.780589
      px      :     2.731587
      py      :     3.422755
      dz2     :     0.027215  d :     0.035819
      dxz     :     0.002160
      dyz     :     0.005404
      dx2y2   :     0.001033
      dxy     :     0.000006
      f0      :     0.028623  f :     0.033344
      f+1     :     0.001122
      f-1     :     0.002860
      f+2     :     0.000191
      f-2     :     0.000001
      f+3     :     0.000252
      f-3     :     0.000295
      g0      :     0.012792  g :     0.012922
      g+1     :     0.000025
      g-1     :     0.000099
      g+2     :     0.000002
      g-2     :     0.000000
      g+3     :     0.000001
      g-3     :     0.000001
      g+4     :     0.000002
      g-4     :     0.000000


SPIN
  0 Lis       :    -0.006129  s :    -0.006129
      pz      :    -0.002087  p :     0.051349
      px      :     0.062438
      py      :    -0.009002
      dz2     :     0.000481  d :     0.080754
      dxz     :     0.080193
      dyz     :     0.000063
      dx2y2   :     0.000017
      dxy     :     0.000000
      f0      :     0.000788  f :     0.076877
      f+1     :     0.074387
      f-1     :     0.001660
      f+2     :     0.000029
      f-2     :     0.000000
      f+3     :     0.000005
      f-3     :     0.000008
      g0      :     0.000304  g :     0.048702
      g+1     :     0.046878
      g-1     :     0.001464
      g+2     :     0.000037
      g-2     :     0.000000
      g+3     :     0.000008
      g-3     :     0.000011
      g+4     :    -0.000000
      g-4     :    -0.000000

  1 S s       :     0.001914  s :     0.001914
      pz      :     0.002684  p :     0.741288
      px      :     0.731018
      py      :     0.007586
      dz2     :     0.000840  d :     0.003562
      dxz     :     0.002150
      dyz     :    -0.000263
      dx2y2   :     0.000829
      dxy     :     0.000005
      f0      :     0.000117  f :     0.001674
      f+1     :     0.001117
      f-1     :    -0.000255
      f+2     :     0.000171
      f-2     :     0.000001
      f+3     :     0.000251
      f-3     :     0.000270
      g0      :     0.000000  g :     0.000010
      g+1     :     0.000025
      g-1     :    -0.000014
      g+2     :    -0.000000
      g-2     :    -0.000000
      g+3     :     0.000001
      g-3     :     0.000001
      g+4     :    -0.000002
      g-4     :    -0.000000



                      *****************************
                      * MAYER POPULATION ANALYSIS *
                      *****************************

  NA   - Mulliken gross atomic population
  ZA   - Total nuclear charge
  QA   - Mulliken gross atomic charge
  VA   - Mayer's total valence
  BVA  - Mayer's bonded valence
  FA   - Mayer's free valence

  ATOM       NA         ZA         QA         VA         BVA        FA
  0 Li     2.8171     3.0000     0.1829     0.8988     0.8956     0.0032
  1 S     16.1829    16.0000    -0.1829     1.7974     0.8956     0.9018

  Mayer bond orders larger than 0.100000
B(  0-Li,  1-S ) :   0.8956 

-------
TIMINGS
-------

Total SCF time: 0 days 0 hours 0 min 5 sec 

Total time                  ....       5.329 sec
Sum of individual times     ....       5.022 sec  ( 94.2%)

SCF preparation             ....       0.103 sec  (  1.9%)
Fock matrix formation       ....       4.356 sec  ( 81.7%)
  Startup                   ....       0.021 sec  (  0.5% of F)
  Coulomb formation         ....       3.421 sec  ( 78.5% of F)
  XC integration            ....       0.663 sec  ( 15.2% of F)
    XC Preparation          ....       0.000 sec  (  0.0% of XC)
    Basis function eval.    ....       0.039 sec  (  5.9% of XC)
    Density eval.           ....       0.059 sec  (  8.9% of XC)
    XC-Functional eval.     ....       0.020 sec  (  3.0% of XC)
    XC-Potential eval.      ....       0.182 sec  ( 27.4% of XC)
Diagonalization             ....       0.000 sec  (  0.0%)
Density matrix formation    ....       0.154 sec  (  2.9%)
Total Energy calculation    ....       0.045 sec  (  0.8%)
Population analysis         ....       0.013 sec  (  0.3%)
Orbital Transformation      ....       0.071 sec  (  1.3%)
Orbital Orthonormalization  ....       0.000 sec  (  0.0%)
DIIS solution               ....       0.166 sec  (  3.1%)
SOSCF solution              ....       0.112 sec  (  2.1%)
Finished LeanSCF after   5.4 sec

Maximum memory used throughout the entire LEANSCF-calculation: 22.4 MB


           ************************************************************
           *        Program running with 8 parallel MPI-processes     *
           *              working on a common directory               *
           ************************************************************

------------------------------------------------------------------------------
                         ORCA PROPERTY INTEGRAL CALCULATIONS
------------------------------------------------------------------------------

GBWName                                   ... /cluster/projects/nn14654k/ylvaos/basis_set_n_funcs/functionals/pw91/LiS/inp/LiS_pw91_augccpvqz.gbw
Number of atoms                           ...      2
Number of basis functions                 ...    199
Max core memory                           ...   4096 MB

Dipole integrals                          ... YES
Quadrupole integrals                      ... YES
Linear momentum integrals                 ...  NO
Angular momentum integrals                ...  NO
Higher moments length integrals           ...  NO
Higher moments velocity integrals         ...  NO
Kinetic energy integrals                  ...  NO
GIAO right hand sides                     ...  NO
GIAO dipole derivative integrals          ...  NO
SOC integrals                             ...  NO
EPR diamagnetic integrals (GIAO)          ...  NO
EPR gauge integrals                       ...  NO
Field gradient integrals                  ...  NO (   0 nuclei)
Spin-dipole/Fermi contact integrals       ...  NO (   0 nuclei)
Contact density integrals                 ...  NO (   0 nuclei)
Nucleus-orbit integrals                   ...  NO (   0 nuclei)
Geometric perturbations                   ...  NO (   2 nuclei)

Choice of electric origin   ... Center of mass
Position of electric origin ... (  0.0000,  0.0000,  1.3082) 
Choice of magnetic origin   ... GIAO
Position of magnetic origin ... (  0.0000,  0.0000,  0.0000) 

Calculating integrals                     ... Electric Dipole (Length)     done (  0.0 sec)
Calculating integrals                     ... Electric Quadrupole (Length) done (  0.0 sec)

Property integrals calculated in   0.0 sec

Maximum memory used throughout the entire PROPINT-calculation: 13.0 MB
------------------------------------------------------------------------------
                           ORCA ORBITAL LOCALIZATION
------------------------------------------------------------------------------

Input orbitals are from                  ... /cluster/projects/nn14654k/ylvaos/basis_set_n_funcs/functionals/pw91/LiS/inp/LiS_pw91_augccpvqz.gbw
Output orbitals are to                   ... /cluster/projects/nn14654k/ylvaos/basis_set_n_funcs/functionals/pw91/LiS/inp/LiS_pw91_augccpvqz.loc
Max. number of iterations                ... 128
Localizations seeded randomly            ... on
Convergence tolerance                    ... 1.000e-06
Threshold for strong local MOs           ... 9.500e-01
Threshold for bond MOs                   ... 8.500e-01
Operator                                 ... 0
Orbital range for localization           ... 5 to 9
Localization criterion                   ... NEW-BOYS
Doing the dipole integrals               ... o.k.
Initial value of the localization sum :    12.538479
ITERATION   0 : L=   15.5533256091 DL=  3.01e+00 (AVERGE_DL)=    0.5490761471 
ITERATION   1 : L=   15.7590077412 DL=  2.06e-01 (AVERGE_DL)=    0.1434162237 
ITERATION   2 : L=   15.7996141703 DL=  4.06e-02 (AVERGE_DL)=    0.0637231741 
ITERATION   3 : L=   15.8321605273 DL=  3.25e-02 (AVERGE_DL)=    0.0570494145 
ITERATION   4 : L=   15.8475920852 DL=  1.54e-02 (AVERGE_DL)=    0.0392830217 
ITERATION   5 : L=   15.8556699170 DL=  8.08e-03 (AVERGE_DL)=    0.0284215267 
ITERATION   6 : L=   15.8593799085 DL=  3.71e-03 (AVERGE_DL)=    0.0192613380 
ITERATION   7 : L=   15.8610711627 DL=  1.69e-03 (AVERGE_DL)=    0.0130048230 
ITERATION   8 : L=   15.8618246767 DL=  7.54e-04 (AVERGE_DL)=    0.0086805186 
ITERATION   9 : L=   15.8621624588 DL=  3.38e-04 (AVERGE_DL)=    0.0058119024 
ITERATION  10 : L=   15.8623180852 DL=  1.56e-04 (AVERGE_DL)=    0.0039449514 
ITERATION  11 : L=   15.8623948745 DL=  7.68e-05 (AVERGE_DL)=    0.0027710870 
ITERATION  12 : L=   15.8624375053 DL=  4.26e-05 (AVERGE_DL)=    0.0020647236 
ITERATION  13 : L=   15.8624649897 DL=  2.75e-05 (AVERGE_DL)=    0.0016578415 
ITERATION  14 : L=   15.8624852833 DL=  2.03e-05 (AVERGE_DL)=    0.0014245550 
ITERATION  15 : L=   15.8625016795 DL=  1.64e-05 (AVERGE_DL)=    0.0012804791 
ITERATION  16 : L=   15.8625155527 DL=  1.39e-05 (AVERGE_DL)=    0.0011778465 
ITERATION  17 : L=   15.8625275145 DL=  1.20e-05 (AVERGE_DL)=    0.0010936998 
ITERATION  18 : L=   15.8625378830 DL=  1.04e-05 (AVERGE_DL)=    0.0010182539 
ITERATION  19 : L=   15.8625468686 DL=  8.99e-06 (AVERGE_DL)=    0.0009479282 
ITERATION  20 : L=   15.8625546397 DL=  7.77e-06 (AVERGE_DL)=    0.0008815395 
ITERATION  21 : L=   15.8625613461 DL=  6.71e-06 (AVERGE_DL)=    0.0008189215 
ITERATION  22 : L=   15.8625671235 DL=  5.78e-06 (AVERGE_DL)=    0.0007600938 
ITERATION  23 : L=   15.8625720953 DL=  4.97e-06 (AVERGE_DL)=    0.0007051121 
ITERATION  24 : L=   15.8625763713 DL=  4.28e-06 (AVERGE_DL)=    0.0006539115 
ITERATION  25 : L=   15.8625800484 DL=  3.68e-06 (AVERGE_DL)=    0.0006063888 
ITERATION  26 : L=   15.8625832115 DL=  3.16e-06 (AVERGE_DL)=    0.0005624160 
ITERATION  27 : L=   15.8625859341 DL=  2.72e-06 (AVERGE_DL)=    0.0005217809 
ITERATION  28 : L=   15.8625882789 DL=  2.34e-06 (AVERGE_DL)=    0.0004842349 
ITERATION  29 : L=   15.8625903006 DL=  2.02e-06 (AVERGE_DL)=    0.0004496276 
ITERATION  30 : L=   15.8625920449 DL=  1.74e-06 (AVERGE_DL)=    0.0004176578 
ITERATION  31 : L=   15.8625935516 DL=  1.51e-06 (AVERGE_DL)=    0.0003881617 
ITERATION  32 : L=   15.8625948545 DL=  1.30e-06 (AVERGE_DL)=    0.0003609566 
ITERATION  33 : L=   15.8625959823 DL=  1.13e-06 (AVERGE_DL)=    0.0003358167 
ITERATION  34 : L=   15.8625969595 DL=  9.77e-07 (AVERGE_DL)=    0.0003126140 
LOCALIZATION SUM CONVERGED


--------------------------------------------------------------------------------
                    LOCALIZED MOLECULAR ORBITAL COMPOSITIONS
--------------------------------------------------------------------------------

The Mulliken populations for each LMO on each atom are computed
The LMO`s will be ordered according to atom index and type
  (A) Strongly localized MO`s have populations of >=0.950 on one atom
  (B) Two center bond orbitals have populations of >=0.850 on two atoms
  (C) Other MO`s are considered to be `delocalized`

FOUND  -   2 strongly local MO`s
       -   3 two center bond MO`s
       -   0 significantly delocalized MO`s

Rather strongly localized orbitals:
MO   6:   1S  -   0.968124
MO   5:   0Li -   1.068876
Bond-like localized orbitals:
MO   9:   1S  -   0.866789  and   0Li -   0.133211
MO   8:   1S  -   0.866436  and   0Li -   0.133564
MO   7:   1S  -   0.942935  and   0Li -   0.057065
Localized MO's were stored in: /cluster/projects/nn14654k/ylvaos/basis_set_n_funcs/functionals/pw91/LiS/inp/LiS_pw91_augccpvqz.loc
------------------------------------------------------------------------------
                           ORCA ORBITAL LOCALIZATION
------------------------------------------------------------------------------

Input orbitals are from                  ... /cluster/projects/nn14654k/ylvaos/basis_set_n_funcs/functionals/pw91/LiS/inp/LiS_pw91_augccpvqz.loc
Output orbitals are to                   ... /cluster/projects/nn14654k/ylvaos/basis_set_n_funcs/functionals/pw91/LiS/inp/LiS_pw91_augccpvqz.loc
Max. number of iterations                ... 128
Localizations seeded randomly            ... on
Convergence tolerance                    ... 1.000e-06
Threshold for strong local MOs           ... 9.500e-01
Threshold for bond MOs                   ... 8.500e-01
Operator                                 ... 1
Orbital range for localization           ... 5 to 8
Localization criterion                   ... NEW-BOYS
Doing the dipole integrals               ... o.k.
Initial value of the localization sum :    12.222492
ITERATION   0 : L=   14.9525803592 DL=  2.73e+00 (AVERGE_DL)=    0.6745477830 
ITERATION   1 : L=   15.1638141049 DL=  2.11e-01 (AVERGE_DL)=    0.1876316186 
ITERATION   2 : L=   15.2293410279 DL=  6.55e-02 (AVERGE_DL)=    0.1045043244 
ITERATION   3 : L=   15.2840930540 DL=  5.48e-02 (AVERGE_DL)=    0.0955266334 
ITERATION   4 : L=   15.3156182297 DL=  3.15e-02 (AVERGE_DL)=    0.0724858327 
ITERATION   5 : L=   15.3322865621 DL=  1.67e-02 (AVERGE_DL)=    0.0527072613 
ITERATION   6 : L=   15.3403994035 DL=  8.11e-03 (AVERGE_DL)=    0.0367714596 
ITERATION   7 : L=   15.3441927773 DL=  3.79e-03 (AVERGE_DL)=    0.0251441635 
ITERATION   8 : L=   15.3459262758 DL=  1.73e-03 (AVERGE_DL)=    0.0169975414 
ITERATION   9 : L=   15.3467086931 DL=  7.82e-04 (AVERGE_DL)=    0.0114194084 
ITERATION  10 : L=   15.3470593818 DL=  3.51e-04 (AVERGE_DL)=    0.0076451370 
ITERATION  11 : L=   15.3472159328 DL=  1.57e-04 (AVERGE_DL)=    0.0051080169 
ITERATION  12 : L=   15.3472856521 DL=  6.97e-05 (AVERGE_DL)=    0.0034087951 
ITERATION  13 : L=   15.3473166554 DL=  3.10e-05 (AVERGE_DL)=    0.0022731484 
ITERATION  14 : L=   15.3473304295 DL=  1.38e-05 (AVERGE_DL)=    0.0015151550 
ITERATION  15 : L=   15.3473365456 DL=  6.12e-06 (AVERGE_DL)=    0.0010096223 
ITERATION  16 : L=   15.3473392602 DL=  2.71e-06 (AVERGE_DL)=    0.0006726338 
ITERATION  17 : L=   15.3473404646 DL=  1.20e-06 (AVERGE_DL)=    0.0004480393 
ITERATION  18 : L=   15.3473409992 DL=  5.35e-07 (AVERGE_DL)=    0.0002984894 
LOCALIZATION SUM CONVERGED


--------------------------------------------------------------------------------
                    LOCALIZED MOLECULAR ORBITAL COMPOSITIONS
--------------------------------------------------------------------------------

The Mulliken populations for each LMO on each atom are computed
The LMO`s will be ordered according to atom index and type
  (A) Strongly localized MO`s have populations of >=0.950 on one atom
  (B) Two center bond orbitals have populations of >=0.850 on two atoms
  (C) Other MO`s are considered to be `delocalized`

FOUND  -   2 strongly local MO`s
       -   2 two center bond MO`s
       -   0 significantly delocalized MO`s

Rather strongly localized orbitals:
MO   6:   1S  -   0.985969
MO   5:   0Li -   1.069138
Bond-like localized orbitals:
MO   8:   1S  -   0.845049  and   0Li -   0.154951
MO   7:   1S  -   0.845265  and   0Li -   0.154735
Localized MO's were stored in: /cluster/projects/nn14654k/ylvaos/basis_set_n_funcs/functionals/pw91/LiS/inp/LiS_pw91_augccpvqz.loc

-------------------------   --------------------
FINAL SINGLE POINT ENERGY      -405.701006952803
-------------------------   --------------------



           ************************************************************
           *        Program running with 8 parallel MPI-processes     *
           *              working on a common directory               *
           ************************************************************

------------------------------------------------------------------------------
                              ORCA PROPERTY CALCULATIONS
------------------------------------------------------------------------------

GBWName                                 ... /cluster/projects/nn14654k/ylvaos/basis_set_n_funcs/functionals/pw91/LiS/inp/LiS_pw91_augccpvqz.gbw
Number of atoms                         ...      2
Number of basis functions               ...    199
Max core memory                         ...   4096 MB

Electric properties:
Dipole moment                           ... YES
Quadrupole moment                       ... YES
Static polarizability (Dipole/Dipole)   ...  NO
Static polarizability (Dipole/Quad.)    ...  NO
Static polarizability (Quad./Quad.)     ...  NO
Static polarizability (Velocity)        ...  NO
Static hyperpolarizability              ...  NO

Atomic electric properties:
Dipole moment                           ...  NO
Quadrupole moment                       ...  NO
Static polarizability                   ...  NO

Choice of electric origin               ... Center of mass
Position of electric origin             ...     0.000000     0.000000     1.308198

General magnetic properties:
Magnetizability                         ...  NO

EPR properties:
g-Tensor (aka g-matrix)                 ...  NO
Zero-Field splitting spin-orbit         ...  NO
Zero-field splitting spin-spin          ...  NO
Hyperfine couplings                     ...  NO (   0 nuclei)
Quadrupole couplings                    ...  NO (   0 nuclei)
Contact density                         ...  NO (   0 nuclei)

NMR properties:
Chemical shifts                         ...  NO (   0 nuclei)
Spin-rotation constants                 ...  NO (   0 nuclei)
Spin-spin couplings                     ...  NO (   0 nuclei,    0 pairs)

Choice of magnetic origin               ... GIAO
Position of magnetic origin             ...     0.000000     0.000000     0.000000

Properties with geometric perturbations:
SCF Hessian                             ...  NO
IR spectrum                             ...  NO
VCD spectrum                            ...  NO
X-ray spectroscopy properties:
SCF XES/XAS/RIXS spectra                ...  NO

SCF SOC stabilization energy            ...  NO
Diagonal Born-Oppenheimer correction    ...  NO

-------------
DIPOLE MOMENT
-------------

Method             : SCF
Type of density    : Electron Density
Multiplicity       :   2
Irrep              :   0
Energy             :  -405.7010069528027429 Eh
Basis              : AO
                                X                 Y                 Z
Electronic contribution:      0.000000007      -0.000000004      -4.218014526
Nuclear contribution   :      0.000000000       0.000000000       1.549484202
                        -----------------------------------------
Total Dipole Moment    :      0.000000007      -0.000000004      -2.668530324
                        -----------------------------------------
Magnitude (a.u.)       :      2.668530324
Magnitude (Debye)      :      6.782865041



--------------------
Rotational spectrum 
--------------------
 
Rotational constants in cm-1:             0.000000             0.639339             0.639339 
Rotational constants in MHz :             0.000000         19166.891897         19166.891897 

Dipole components along the rotational axes: 
x,y,z [a.u.] :    -2.668530    -0.000000     0.000000 
x,y,z [Debye]:    -6.782865    -0.000000     0.000000 

 

Dipole moment calculation done in   0.0 sec 

-----------------
QUADRUPOLE MOMENT
-----------------

Method             : SCF
Type of density    : Electron Density
Multiplicity       :   2
Irrep              :   0
Energy             :  -405.7010069528027429 Eh
Basis              : AO

                XX              YY              ZZ              XY              XZ              YZ
  NUC        0.000000000     0.000000000    41.817245673     0.000000000     0.000000000     0.000000000
  EL       -11.905926173   -14.367618099   -45.198872847     0.096467549     0.000000002    -0.000000009
  TOT      -11.905926173   -14.367618099    -3.381627173     0.096467549     0.000000002    -0.000000009 (a.u.)
           -16.013877886   -19.324937715    -4.548404200     0.129752152     0.000000003    -0.000000012 (Buckingham)

diagonalized tensor:
           -14.371392633   -11.902151639    -3.381627173 (a.u.)
           -19.330014593   -16.008801008    -4.548404200 (Buckingham)
           -18.102823978    -8.139183223    26.242007201 (traceless form in Buckingham)

             0.039097587    -0.999235397     0.000000000
            -0.999235397    -0.039097587    -0.000000001
            -0.000000001     0.000000000     1.000000000
        
Isotropic quadrupole :    -9.885057148

Quadrupole moment calculation done in   0.0 sec (  0.0 sec for integrals)

Maximum memory used throughout the entire PROP-calculation: 7.6 MB

--------------------------------
SUGGESTED CITATIONS FOR THIS RUN
--------------------------------

Below you find a list of papers that are relevant to this ORCA run
We neither can nor want to force you to cite these papers, but we appreciate if you do
You receive ORCA, which is the product of decades of hard work by many enthusiastic individuals, for free
The only thing we kindly ask in return is that you cite our papers,
We deeply appreciate it, if you show your appreciation for ORCA by not just citing the generic ORCA reference.

Please note that relegating all ORCA citations to the supporting information does *not* help us.
SI sections are not indexed - citations you put there will not count into any citation statistics
But we need these citations in order to attract the funding resources that allow us to do what we are doing

Therefore, if you are a happy ORCA user, please consider citing a few of the papers listed below in the main body of your paper

In addition to the list printed below, the program has created the file /cluster/projects/nn14654k/ylvaos/basis_set_n_funcs/functionals/pw91/LiS/inp/LiS_pw91_augccpvqz.bibtex that contains the list in bibtex format
You can import this file easily into all common literature databanks and citation aid programs

It goes without saying that in many instances, there are alternative algorithms to achieve similar
results as the ones you have gotten from ORCA. It is, of course, also the case that in some instances
ORCA just re-implements algorithms worked out by others. We are fully aware of that and we are also
fully appreciative of our colleagues work. Hence this citation list should not be read as indicating
that the listed papers, which are focused on our own work, are the only ones worth citing. It simply
meant to make it easier for users to cite ORCA specific papers. It is not a substitute for doing your
own literature research and citing the relevant literature in a scientifically appropriate manner.

List of essential papers. We consider these as the minimum necessary citations

  1. Neese, F.
     Software update: the ORCA program system, version 6.0
     WIRES Comput. Molec. Sci. 2025 15(1), e70019
     doi.org/10.1002/wcms.70019

List of papers to cite with high priority. The work reported in these papers was absolutely
necessary for this run to complete.
Our perspective: the developers of density functionals and basis sets usually get cited in chemistry papers
Good! But without the algorithms to do something with them, the functionals or basis sets would not do anything.
Hence, in our opinion, the algorithm design and method developments papers are equally worthy of getting cited

  1. Lehtola, S.; Steigemann, C.; Oliveira, M.; Marques, M.
     Recent developments in Libxc - A comprehensive library of functionals for density functional theory
     Software X 2018 7 , 
     doi.org/10.1016/j.softx.2017.11.002
  2. Neese, F.
     The SHARK Integral Generation and Digestion System
     J. Comp. Chem. 2022 44(3), 381
     doi.org/10.1002/jcc.26942

List of suggested additional citations. These are papers that are important in the 'surrounding' of 
of this run, or papers that preceded the highly important papers. If you like your results we are grateful for a citation.

  1. Neese, F.
     The ORCA program system
     WIRES Comput. Molec. Sci. 2012 2(1), 73-78
     doi.org/10.1002/wcms.81
  2. Neese, F.
     Software update: the ORCA program system, version 4.0
     WIRES Comput. Molec. Sci. 2018 8(1), 1-6
     doi.org/10.1002/wcms.1327
  3. Neese, F.; Wennmohs, F.; Becker, U.; Riplinger, C.
     The ORCA quantum chemistry program package
     J. Chem. Phys. 2020 152(22), 224108
     doi.org/10.1063/5.0004608
  4. Neese, F.
     Software update: The ORCA program system—Version 5.0
     WIRES Comput. Molec. Sci. 2022 12(1), e1606
     doi.org/10.1002/wcms.1606

List of optional additional citations

  1. Neese, F.
     Approximate second-order SCF convergence for spin unrestricted wavefunctions
     Chem. Phys. Lett. 2000 325(1-3), 93-98
     doi.org/10.1016/s0009-2614(00)00662-x

Timings for individual modules:

Sum of individual times          ...        7.650 sec (=   0.127 min)
Startup calculation              ...        1.166 sec (=   0.019 min)  15.2 %
SCF iterations                   ...        5.980 sec (=   0.100 min)  78.2 %
Property integrals               ...        0.238 sec (=   0.004 min)   3.1 %
Property calculations            ...        0.258 sec (=   0.004 min)   3.4 %
Orbital localization             ...        0.008 sec (=   0.000 min)   0.1 %
                             ****ORCA TERMINATED NORMALLY****
TOTAL RUN TIME: 0 days 0 hours 0 minutes 8 seconds 312 msec
