
                                 *****************
                                 * O   R   C   A *
                                 *****************

                                            #,                                       
                                            ###                                      
                                            ####                                     
                                            #####                                    
                                            ######                                   
                                           ########,                                 
                                     ,,################,,,,,                         
                               ,,#################################,,                 
                          ,,##########################################,,             
                       ,#########################################, ''#####,          
                    ,#############################################,,   '####,        
                  ,##################################################,,,,####,       
                ,###########''''           ''''###############################       
              ,#####''   ,,,,##########,,,,          '''####'''          '####       
            ,##' ,,,,###########################,,,                        '##       
           ' ,,###''''                  '''############,,,                           
         ,,##''                                '''############,,,,        ,,,,,,###''
      ,#''                                            '''#######################'''  
     '                                                          ''''####''''         
             ,#######,   #######,   ,#######,      ##                                
            ,#'     '#,  ##    ##  ,#'     '#,    #''#        ,####,    ,#,          
            ##       ##  ##   ,#'  ##            #'  '#       #'       ,# #          
            ##       ##  #######   ##           ,######,      #####,      #          
            '#,     ,#'  ##    ##  '#,     ,#' ,#      #,     #,   #      #          
             '#######'   ##     ##  '#######'  #'      '#     '####' #    #          



                #########################################################
                #                        -***-                          #
                #          Department of theory and spectroscopy        #
                #                                                       #
                #                      Frank Neese                      #
                #                                                       #
                #     Directorship, Architecture, Infrastructure        #
                #                    SHARK, DRIVERS                     #
                #        Core code/Algorithms in most modules           #
                #                                                       #
                #        Max Planck Institute fuer Kohlenforschung      #
                #                Kaiser Wilhelm Platz 1                 #
                #                 D-45470 Muelheim/Ruhr                 #
                #                      Germany                          #
                #                                                       #
                #                  All rights reserved                  #
                #                        -***-                          #
                #########################################################


                         Program Version 6.1.1  -  RELEASE   -
                                (GIT: $487d211c$)
                          ($2025-11-21 10:33:24 +0100$)


 With contributions from (in alphabetic order):
[Max-Planck-Institut fuer Kohlenforschung]                               
  Daniel Aravena         : Magnetic Suceptibility                        
  Michael Atanasov       : Ab Initio Ligand Field Theory (pilot matlab implementation)
  Alexander A. Auer      : GIAO ZORA, VPT2 properties, NMR spectrum      
  Ute Becker             : All parallelization in ORCA, NUMFREQ, NUMCALC 
  Giovanni Bistoni       : ED, misc. LED, open-shell LED, HFLD           
  Dmytro Bykov           : pre 5.0 version of the SCF Hessian            
  Marcos Casanova-Páez   : Triplet and SCS-CIS(D). UHF-(DLPNO)-IP/EA/STEOM-CCSD. UHF-CVS-IP/STEOM-CCSD   
  Vijay G. Chilkuri      : MRCI spin determinant printing, contributions to CSF-ICE 
  Pauline Colinet        : FMM embedding                                 
  Dipayan Datta          : RHF DLPNO-CCSD density                        
  Achintya Kumar Dutta   : EOM-CC, STEOM-CC                              
  Nicolas Foglia         : Exact transition moments, OPA infrastructure, MCD improvements    
  Dmitry Ganyushin       : Spin-Orbit,Spin-Spin,Magnetic field MRCI      
  Miquel Garcia-Rates    : C-PCM and meta-GGA Hessian, CCSD/C-PCM, Gaussian charge scheme 
  Tiago L. C. Gouveia    : GS-ROHF, GS-ROCIS                             
  Yang Guo               : DLPNO-NEVPT2, F12-NEVPT2, CIM, IAO-localization        
  Andreas Hansen         : Spin unrestricted coupled pair/coupled cluster methods 
  Ingolf Harden          : AUTO-CI MPn and infrastructure                
  Benjamin Helmich-Paris : MC-RPA, TRAH-(SCF,CASSCF), AVAS, COSX integrals, SCF dyn. polar., MC-PDFT, srDFT 
  Lee Huntington         : MR-EOM, pCC                                   
  Robert Izsak           : Overlap fitted RIJCOSX, COSX-SCS-MP3, EOM     
  Riya Kayal             : Wick's Theorem for AUTO-CI, AUTO-CI UHF-CCSDT 
  Emily Kempfer          : AUTO-CI RHF CISDT and CCSDT, approximate NEVPT4
  Christian Kollmar      : KDIIS, OOCD, Brueckner-CCSD(T), CCSD density, CASPT2, CASPT2-K, improved NEVPT2 
  Axel Koslowski         : Symmetry handling                             
  Simone Kossmann        : meta-GGA functionals, TD-DFT gradient, OOMP2, (MP2 Hessian; deprecated post 5.0) 
  Lucas Lang             : DCDCAS, Hyperfine gauge corrections, ICE-SOC+SSC
  Marvin Lechner         : AUTO-CI (C++ implementation), FIC-MRCC        
  Spencer Leger          : CASSCF response                               
  Dagmar Lenk            : GEPOL surface, SMD, ORCA-2-JSON               
  Dimitrios Liakos       : Extrapolation schemes; Compound Job, Property file
  Dimitrios Manganas     : Further ROCIS development; embedding schemes. LFT, Crystal Embedding 
  Dimitrios Pantazis     : SARC Basis sets                               
  Anastasios Papadopoulos: AUTO-CI, single reference methods and gradients 
  Taras Petrenko         : pre 6.0 DFT Hessian and TD-DFT gradient,  ECA, NRVS 
  Petra Pikulova         : Analytic Raman intensities                    
  Peter Pinski           : DLPNO-MP2, DLPNO-MP2 Gradient                 
  Shashank Vittal Rao    : ES-AILFT, MagRelax                            
  Christoph Reimann      : Effective Core Potentials                     
  Marius Retegan         : Local ZFS, SOC                                
  Christoph Riplinger    : Optimizer, TS searches, QM/MM, DLPNO-CCSD(T), (RO)-DLPNO pert. Triples 
  Michael Roemelt        : Original ROCIS implementation, recursive CI coupling coefficients
  Masaaki Saitow         : Open-shell DLPNO-CCSD energy and density      
  Barbara Sandhoefer     : DKH picture change effects                    
  Yorick L. A. Schmerwitz: GMF and freeze-and-release deltaSCF, NEB S-IDPP initial path                    
  Kantharuban Sivalingam : CASSCF convergence/infrastructure, NEVPT2, NEVPT3, NEVPT4(SD), FIC-MRCI and CEPA variants
  Bernardo de Souza      : ESD, SOC TD-DFT                               
  Georgi L. Stoychev     : AutoAux, RI-MP2 NMR, DLPNO-MP2 response, X2C  
  Van Anh Tran           : RI-MP2 g-tensors                              
  Willem Van den Heuvel  : Paramagnetic NMR                              
  Zikuan Wang            : NOTCH, Electric field optimization            
  Frank Wennmohs         : Technical directorship and infrastructure     
  Hang Xu                : AUTO-CI-Response properties                   
                                                                         
[FACCTs GmbH]                                                            
  Markus Bursch, Nicolas Foglia, Miquel Garcia-Rates, Ingolf Harden, Hagen Neugebauer, Anastasios Papadopoulos, 
  Christoph Riplinger, Bernardo de Souza, Georgi L. Stoychev                                                    
                                                                 
  APM, various basis sets, CI-OPT, improved COSX, DLPNO-Multilevel,           
  DOCKER, DRACO, updates on ESD, Fragmentator, GOAT, IRC, LR-CPCM, L-BFGS, MBIS, meta-GGA TD-DFT gradient, ML-optimized integration grids, 
  MM, NACMEs, nearIR, NEB, NEB-TS, NL-DFT gradient (VV10), 2- and 3-layer-ONIOM, interface openCOSMO-RS, QMMM,   
  Crystal-QMMM, RESP, rigid body optimization, SF, symmetry and pop. for TD-DFT, various functionals, SOLVATOR                                   
                                                                         
[Other institutions]                                                     
  V. Asgeirsson          : NEB                                           
  Christoph Bannwarth    : sTDA-DFT, sTD-DFT, PBEh-3c, B97-3c, D3        
  Giovanni Bistoni       : ETS/NOCV, ADLD/ADEX, COVALED                  
  Martin Brehm           : Molecular dynamics                            
  Ronald Cardenas        : ETS/NOCV                                      
  Martina Colucci        : COVALED                                       
  Sebastian Ehlert       : rSCAN, r2SCAN, r2SCAN-3c, D4, dhf basis sets  
  Marvin Friede          : D4 for Fr, Ra, Ac-Lr                          
  Lars Goerigk           : TD-DFT with DH, B97 family of functionals     
  Stefan Grimme          : VdW corrections, initial TS optimization, DFT functionals, gCP, sTDA/sTD-DF 
  Waldemar Hujo          : DFT-NL                                        
  H. Jonsson             : NEB                                           
  Holger Kruse           : gCP                                           
  Marcel Mueller         : wB97X-3c, vDZP basis set                      
  Hagen Neugebauer       : wr2SCAN, Native XTB                           
  Gianluca Regni         : ADLD/ADEX                                     
  Tobias Risthaus        : pre 6.0 range-separated hybrid DFT and stability analysis
  Lukas Wittmann         : regularized MP2, r2SCAN double-hybrids, wr2SCAN        
                                                                         
We gratefully acknowledge several colleagues who have allowed us to      
interface, adapt or use parts of their codes:                            
  Ed Valeev, F. Pavosevic, A. Kumar             : LibInt (2-el integral package), F12 methods 
  Garnet Chan, S. Sharma, J. Yang, R. Olivares  : DMRG                   
  Ulf Ekstrom                                   : XCFun DFT Library      
  Mihaly Kallay                                 : mrcc  (arbitrary order and MRCC methods)
  Frank Weinhold                                : gennbo (NPA and NBO analysis)           
  Simon Mueller                                 : openCOSMO-RS                            
  Christopher J. Cramer and Donald G. Truhlar   : smd solvation model                     
  S Lehtola, MJT Oliveira, MAL Marques          : LibXC Library                           
  Liviu Ungur et al                             : ANISO software                          


 Your calculation uses the libint2 library for the computation of 2-el integrals
 For citations please refer to: http://libint.valeyev.net

 Your ORCA version has been built with support for libXC version: 7.0.0
 For citations please refer to: https://libxc.gitlab.io

 This ORCA versions uses:
   CBLAS   interface :  Fast vector & matrix operations
   LAPACKE interface :  Fast linear algebra routines
   SCALAPACK package :  Parallel linear algebra routines
   Shared memory     :  Shared parallel matrices
   BLAS/LAPACK       :  OpenBLAS 0.3.29  USE64BITINT DYNAMIC_ARCH NO_AFFINITY Cooperlake SINGLE_THREADED
        Core in use  :  Cooperlake
   Copyright (c) 2011-2014, The OpenBLAS Project


  ***********************************
  * Starting time: Wed May 20 12:37:04 2026
  * Host name:     c1-39
  * Process ID:    2059136
  * Working dir.:  /cluster/projects/nn14654k/ylvaos/basis_set_n_funcs/functionals/pw91/LiS/out
  ***********************************

Using LibXC functional ID 109 : Perdew & Wang 91
[ 1]  J. P. Perdew. In P. Ziesche and H. Eschrig, editors, Proceedings of the 75. WE-Heraeus-Seminar and 21st Annual International Symposium on Electronic Structure of Solids, 11. Berlin, 1991. Akademie Verlag.
[ 2]  J. P. Perdew, J. A. Chevary, S. H. Vosko, K. A. Jackson, M. R. Pederson, D. J. Singh, and C. Fiolhais.,  Phys. Rev. B 46, 6671 (1992)
[ 3]  J. P. Perdew, J. A. Chevary, S. H. Vosko, K. A. Jackson, M. R. Pederson, D. J. Singh, and C. Fiolhais.,  Phys. Rev. B 48, 4978 (1993)
Using LibXC functional ID 134 : Perdew & Wang 91
[ 1]  J. P. Perdew. In P. Ziesche and H. Eschrig, editors, Proceedings of the 75. WE-Heraeus-Seminar and 21st Annual International Symposium on Electronic Structure of Solids, 11. Berlin, 1991. Akademie Verlag.
[ 2]  J. P. Perdew, J. A. Chevary, S. H. Vosko, K. A. Jackson, M. R. Pederson, D. J. Singh, and C. Fiolhais.,  Phys. Rev. B 46, 6671 (1992)
[ 3]  J. P. Perdew, J. A. Chevary, S. H. Vosko, K. A. Jackson, M. R. Pederson, D. J. Singh, and C. Fiolhais.,  Phys. Rev. B 48, 4978 (1993)
Using LibXC functional ID 109 : Perdew & Wang 91
[ 1]  J. P. Perdew. In P. Ziesche and H. Eschrig, editors, Proceedings of the 75. WE-Heraeus-Seminar and 21st Annual International Symposium on Electronic Structure of Solids, 11. Berlin, 1991. Akademie Verlag.
[ 2]  J. P. Perdew, J. A. Chevary, S. H. Vosko, K. A. Jackson, M. R. Pederson, D. J. Singh, and C. Fiolhais.,  Phys. Rev. B 46, 6671 (1992)
[ 3]  J. P. Perdew, J. A. Chevary, S. H. Vosko, K. A. Jackson, M. R. Pederson, D. J. Singh, and C. Fiolhais.,  Phys. Rev. B 48, 4978 (1993)
Using LibXC functional ID 134 : Perdew & Wang 91
[ 1]  J. P. Perdew. In P. Ziesche and H. Eschrig, editors, Proceedings of the 75. WE-Heraeus-Seminar and 21st Annual International Symposium on Electronic Structure of Solids, 11. Berlin, 1991. Akademie Verlag.
[ 2]  J. P. Perdew, J. A. Chevary, S. H. Vosko, K. A. Jackson, M. R. Pederson, D. J. Singh, and C. Fiolhais.,  Phys. Rev. B 46, 6671 (1992)
[ 3]  J. P. Perdew, J. A. Chevary, S. H. Vosko, K. A. Jackson, M. R. Pederson, D. J. Singh, and C. Fiolhais.,  Phys. Rev. B 48, 4978 (1993)
Your calculation utilizes LibXC
by S. Lehtola, C. Steigemann, M. J. T. Oliveira & M. A. L. Marques
Please cite in your paper:
Lehtola, S.; Steigemann, C.; Oliveira, M.J.T.; Marques, M. A. L. Software X, 7, (2018), 1.
   

================================================================================

----- Orbital basis set information -----
Your calculation utilizes the basis: pc-2
   H, C-F              : F. Jensen, J. Chem. Phys. 115, 9113 (2001).
                         F. Jensen, J. Chem. Phys. 116, 7372 (2002).
                         F. Jensen, J. Chem. Phys. 117, 9234 (2002).
   Si-Cl               : F. Jensen, T. Helgaker, J. Chem. Phys. 121, 3463 (2004).
   He-B, Ne-Mg, Al, Ar : F. Jensen, J. Phys. Chem. A 111, 11198 (2007).
   K, Ca, Ga-Kr        : F. Jensen, J. Chem. Phys. 136, 094110 (2012).
   Sc-Zn               : F. Jensen, J. Chem. Phys. 138, 014107 (2013).

================================================================================
                                        WARNINGS
                       Please study these warnings very carefully!
================================================================================


WARNING: your system is open-shell and RHF/RKS was chosen
  ===> : WILL SWITCH to UHF/UKS


================================================================================
                                       INPUT FILE
================================================================================
NAME = /cluster/projects/nn14654k/ylvaos/basis_set_n_funcs/functionals/pw91/LiS/inp/LiS_pw91_pc2.inp
|  1> ! dft pc-2 TightSCF
|  2> %pal nprocs 8 end
|  3> 
|  4> %loc
|  5>   LocMet NewBoys
|  6>   Occ true
|  7> end
|  8> 
|  9> %method
| 10>   exchange gga_x_pw91
| 11>   correlation gga_c_pw91
| 12> end
| 13> 
| 14> %elprop
| 15>   Dipole true
| 16>   Quadrupole true
| 17> end
| 18> 
| 19> * xyz 0 2
| 20> Li    0.000000000000   0.000000000000  -1.074850000000
| 21> S    0.000000000000   0.000000000000   1.074850000000
| 22> *
| 23> 
| 24> 
| 25>                          ****END OF INPUT****
================================================================================

                       ****************************
                       * Single Point Calculation *
                       ****************************

---------------------------------
CARTESIAN COORDINATES (ANGSTROEM)
---------------------------------
  Li     0.000000    0.000000   -1.074850
  S      0.000000    0.000000    1.074850

----------------------------
CARTESIAN COORDINATES (A.U.)
----------------------------
  NO LB      ZA    FRAG     MASS         X           Y           Z
   0 Li    3.0000    0     6.941    0.000000    0.000000   -2.031172
   1 S    16.0000    0    32.060    0.000000    0.000000    2.031172

--------------------------------
INTERNAL COORDINATES (ANGSTROEM)
--------------------------------
 Li     0   0   0     0.000000000000     0.00000000     0.00000000
 S      1   0   0     2.149700000000     0.00000000     0.00000000

---------------------------
INTERNAL COORDINATES (A.U.)
---------------------------
 Li     0   0   0     0.000000000000     0.00000000     0.00000000
 S      1   0   0     4.062344270091     0.00000000     0.00000000

---------------------
BASIS SET INFORMATION
---------------------
There are 2 groups of distinct atoms

 Group   1 Type Li  : 16s4p1d contracted to 4s2p1d pattern {7711/31/1}
 Group   2 Type S   : 29s16p2d1f contracted to 5s4p2d1f pattern {99911/7711/11/1}

Atom   0Li   basis set group =>   1
Atom   1S    basis set group =>   2


           ************************************************************
           *        Program running with 8 parallel MPI-processes     *
           *              working on a common directory               *
           ************************************************************
------------------------------------------------------------------------------
                             ORCA STARTUP CALCULATIONS
------------------------------------------------------------------------------
------------------------------------------------------------------------------
                   ___                                                        
                  /   \      - P O W E R E D   B Y -                         
                 /     \                                                     
                 |  |  |   _    _      __       _____    __    __             
                 |  |  |  | |  | |    /  \     |  _  \  |  |  /  |          
                  \  \/   | |  | |   /    \    | | | |  |  | /  /          
                 / \  \   | |__| |  /  /\  \   | |_| |  |  |/  /          
                |  |  |   |  __  | /  /__\  \  |    /   |      \           
                |  |  |   | |  | | |   __   |  |    \   |  |\   \          
                \     /   | |  | | |  |  |  |  | |\  \  |  | \   \       
                 \___/    |_|  |_| |__|  |__|  |_| \__\ |__|  \__/        
                                                                              
                      - O R C A' S   B I G   F R I E N D -                    
                                      &                                       
                       - I N T E G R A L  F E E D E R -                       
                                                                              
 v1 FN, 2020, v2 2021, v3 2022-2024                                           
------------------------------------------------------------------------------


----------------------
SHARK INTEGRAL PACKAGE
----------------------

Number of atoms                             ...      2
Number of basis functions                   ...     49
Number of shells                            ...     19
Maximum angular momentum                    ...      3
Integral batch strategy                     ... SHARK/LIBINT Hybrid
RI-J (if used) integral strategy            ... SPLIT-RIJ (Revised 2003 algorithm where possible)
Printlevel                                  ...      1
Contraction scheme used                     ... SEGMENTED contraction
Prescreening option                         ... SCHWARTZ
   Thresh                                   ... 2.500e-11
   Tcut                                     ... 2.500e-12
   Tpresel                                  ... 2.500e-12 
Coulomb Range Separation                    ... NOT USED
Exchange Range Separation                   ... NOT USED
Multipole approximations                    ... NOT USED
Finite Nucleus Model                        ... NOT USED
CABS basis                                  ... NOT available
Auxiliary Coulomb fitting basis             ... NOT available
Auxiliary J/K fitting basis                 ... NOT available
Auxiliary Correlation fitting basis         ... NOT available
Auxiliary 'external' fitting basis          ... NOT available

Checking pre-screening integrals            ... done (  0.0 sec) Dimension = 19
   => SHARK Basis and OBASIS are compatible. Storing Pre-screening
Shell pair information
Shell pair cut-off parameter TPreSel        ...   2.5e-12
Total number of shell pairs                 ...       190
Shell pairs after pre-screening             ...       190
Total number of primitive shell pairs       ...      2610
Primitive shell pairs kept                  ...      2198
          la=0 lb=0:     45 shell pairs
          la=1 lb=0:     54 shell pairs
          la=1 lb=1:     21 shell pairs
          la=2 lb=0:     27 shell pairs
          la=2 lb=1:     18 shell pairs
          la=2 lb=2:      6 shell pairs
          la=3 lb=0:      9 shell pairs
          la=3 lb=1:      6 shell pairs
          la=3 lb=2:      3 shell pairs
          la=3 lb=3:      1 shell pairs

Checking whether 4 symmetric matrices of dimension 49 fit in memory
:Max Core in MB      =   4096.00
 MB in use           =      2.35
 MB left             =   4093.65
 MB needed           =      0.04
 Data fit in memory  = YES
Calculating Nuclear repulsion               ... done (  0.0 sec) ENN=     11.815837557985 Eh

Diagonalization of the overlap matrix:
Smallest eigenvalue                        ... 1.462e-02
Time for diagonalization                   ...    0.001 sec
Threshold for overlap eigenvalues          ... 1.000e-07
Number of eigenvalues below threshold      ... 0
Time for construction of square roots      ...    0.001 sec
Total time needed                          ...    0.004 sec

-------------------
DFT GRID GENERATION
-------------------

General Integration Accuracy     IntAcc      ... 4.388
Radial Grid Type                 RadialGrid  ... OptM3 with GC (2021)
Angular Grid (max. ang.)         AngularGrid ... 4 (Lebedev-302)
Angular grid pruning method      GridPruning ... 4 (adaptive)
Weight generation scheme         WeightScheme... mBecke (2022)
Basis function cutoff            BFCut       ... 1.0000e-11
Integration weight cutoff        WCut        ... 1.0000e-14
Partially contracted basis set               ... off
Rotationally invariant grid construction     ... off
Angular grids for H and He will be reduced by one unit

Total number of grid points                  ...    13486
Total number of batches                      ...      212
Average number of points per batch           ...       63
Average number of grid points per atom       ...     6743
Grids setup in   0.1 sec
Initializing property integral containers    ... done (  0.0 sec)

SHARK setup successfully completed in   0.2 seconds

Maximum memory used throughout the entire STARTUP-calculation: 19.1 MB


           ************************************************************
           *        Program running with 8 parallel MPI-processes     *
           *              working on a common directory               *
           ************************************************************
-------------------------------------------------------------------------------
                                 ORCA GUESS
                   Start orbitals & Density for SCF / CASSCF
-------------------------------------------------------------------------------

------------
SCF SETTINGS
------------
Hamiltonian:
 Density Functional     Method          .... DFT(GTOs)
  Functional kind                       .... Exchange
  Functional name                       .... Perdew & Wang 91
  Functional family                     .... GGA
  Functional refs                              
    [ 0] J. P. Perdew. In P. Ziesche and H. Eschrig, editors, Proceedings of the 75. WE-Heraeus-Seminar and 21st Annual International Symposium on Electronic Structure of Solids, 11. Berlin, 1991. Akademie Verlag.
    [ 1] J. P. Perdew, J. A. Chevary, S. H. Vosko, K. A. Jackson, M. R. Pederson, D. J. Singh, and C. Fiolhais.,  Phys. Rev. B 46, 6671 (1992), doi: 10.1103/PhysRevB.46.6671
    [ 2] J. P. Perdew, J. A. Chevary, S. H. Vosko, K. A. Jackson, M. R. Pederson, D. J. Singh, and C. Fiolhais.,  Phys. Rev. B 48, 4978 (1993), doi: 10.1103/PhysRevB.48.4978.2
  Functional external parameters        .... 7
    Parameter  0 _a         =  1.964500e-01 : a parameter         
    Parameter  1 _b         =  7.795600e+00 : b parameter         
    Parameter  2 _c         =  2.743000e-01 : c parameter         
    Parameter  3 _d         = -1.508000e-01 : d parameter         
    Parameter  4 _f         =  4.000000e-03 : f parameter         
    Parameter  5 _alpha     =  1.000000e+02 : alpha parameter     
    Parameter  6 _expo      =  4.000000e+00 : exponent            
  Functional kind                       .... Correlation
  Functional name                       .... Perdew & Wang 91
  Functional family                     .... GGA
  Functional refs                              
    [ 0] J. P. Perdew. In P. Ziesche and H. Eschrig, editors, Proceedings of the 75. WE-Heraeus-Seminar and 21st Annual International Symposium on Electronic Structure of Solids, 11. Berlin, 1991. Akademie Verlag.
    [ 1] J. P. Perdew, J. A. Chevary, S. H. Vosko, K. A. Jackson, M. R. Pederson, D. J. Singh, and C. Fiolhais.,  Phys. Rev. B 46, 6671 (1992), doi: 10.1103/PhysRevB.46.6671
    [ 2] J. P. Perdew, J. A. Chevary, S. H. Vosko, K. A. Jackson, M. R. Pederson, D. J. Singh, and C. Fiolhais.,  Phys. Rev. B 48, 4978 (1993), doi: 10.1103/PhysRevB.48.4978.2
  Functional external parameters        .... 0
 Gradients option       PostSCFGGA      .... off


General Settings:
 Integral files         IntName         .... /cluster/projects/nn14654k/ylvaos/basis_set_n_funcs/functionals/pw91/LiS/inp/LiS_pw91_pc2
 Hartree-Fock type      HFTyp           .... UHF
 Total Charge           Charge          ....    0
 Multiplicity           Mult            ....    2
 Number of Electrons    NEL             ....   19
 Basis Dimension        Dim             ....   49
 Nuclear Repulsion      ENuc            ....     11.8158375580 Eh

Convergence Acceleration:
 AO-DIIS                CNVDIIS         .... on
   Start iteration      DIISMaxIt       ....    12
   Startup error        DIISStart       ....  0.200000
   # of expansion vecs  DIISMaxEq       ....     5
   Bias factor          DIISBfac        ....   1.050
   Max. coefficient     DIISMaxC        ....  10.000
 MO-DIIS                CNVKDIIS        .... off
 Trust-Rad. Augm. Hess. CNVTRAH         .... auto
   Auto Start mean grad. ratio tolernc. ....  1.125000
   Auto Start start iteration           ....    50
   Auto Start num. interpolation iter.  ....    10
   Max. Number of Micro iterations      ....    24
   Max. Number of Macro iterations      .... Maxiter - #DIIS iter
   Number of Davidson start vectors     ....     2
   Converg. threshold    (grad. norm)   ....   1.000e-05
   Grad. Scal. Fac. for Micro threshold ....   0.100
   Minimum threshold for Micro iter.    ....   1.000e-02
   NR start threshold (gradient norm)   ....   1.000e-04
   Initial trust radius                 ....   0.400
   Minimum AH scaling param. (alpha)    ....   1.000
   Maximum AH scaling param. (alpha)    .... 1000.000
   Quad. conv. algorithm                .... NR
   White noise on init. David. guess    .... on
   Maximum white noise                  ....   0.010
   Pseudo random numbers                .... off
   Inactive MOs                         .... canonical
   Orbital update algorithm             .... Taylor
   Preconditioner                       .... Diag
   Full preconditioner red. dimension   ....   250
 SOSCF                 CNVSOSCF           .... on
   Start iteration     SOSCFMaxIt         ....   150
   Startup grad/error  SOSCFStart         ....  0.003300
   Hessian update      SOSCFHessUp        .... L-BFGS
   Autom. constraints  SOSCFAutoConstrain .... off
 Level Shifting         CNVShift        .... on
   Level shift para.    LevelShift      ....    0.2500
   Turn off err/grad.   ShiftErr        ....    0.0010
 Zerner damping         CNVZerner       .... off
 Static damping         CNVDamp         .... on
   Fraction old density DampFac         ....    0.7000
   Max. Damping (<1)    DampMax         ....    0.9800
   Min. Damping (>=0)   DampMin         ....    0.0000
   Turn off err/grad.   DampErr         ....    0.1000

SCF Procedure:
 Maximum # iterations   MaxIter         ....   125
 SCF integral mode      SCFMode         .... Direct
   Integral package                     .... SHARK and LIBINT hybrid scheme
 Reset frequency        DirectResetFreq ....    20
 Integral Threshold     Thresh          ....  2.500e-11 Eh
 Primitive CutOff       TCut            ....  2.500e-12 Eh

Convergence Tolerance:
 Convergence Check Mode ConvCheckMode   .... Total+1el-Energy
 Convergence forced     ConvForced      .... 0
 Energy Change          TolE            ....  1.000e-08 Eh
 1-El. energy change                    ....  1.000e-05 Eh
 Orbital Gradient       TolG            ....  1.000e-05
 Orbital Rotation angle TolX            ....  1.000e-05
 DIIS Error             TolErr          ....  5.000e-07

------------------------------
INITIAL GUESS: MODEL POTENTIAL
------------------------------
Loading Hartree-Fock densities                     ... done
Calculating cut-offs                               ... done
Initializing the effective Hamiltonian             ... done
Setting up the integral package (SHARK)            ... done
Starting the Coulomb interaction                   ... done (   0.0 sec)
Making the grid                                    ... done (   0.0 sec)
Mapping shells                                     ... done
Starting the XC term evaluation                    ... done (   0.0 sec)
  promolecular density results
     # of electrons  =     18.999659774
     EX              =    -26.701291569
     EC              =     -0.722251267
     EX+EC           =    -27.423542836
Transforming the Hamiltonian                       ... done (   0.0 sec)
Diagonalizing the Hamiltonian                      ... done (   0.0 sec)
Back transforming the eigenvectors                 ... done (   0.0 sec)
Now organizing SCF variables                       ... done
                      ------------------
                      INITIAL GUESS DONE (   0.1 sec)
                      ------------------
             **** ENERGY FILE WAS UPDATED (/cluster/projects/nn14654k/ylvaos/basis_set_n_funcs/functionals/pw91/LiS/inp/LiS_pw91_pc2.en.tmp) ****
Finished Guess after   0.1 sec
Maximum memory used throughout the entire GUESS-calculation: 5.9 MB


           ************************************************************
           *        Program running with 8 parallel MPI-processes     *
           *              working on a common directory               *
           ************************************************************

-------------------------------------------------------------------------------------------
                                      ORCA LEAN-SCF
                              memory conserving SCF solver
-------------------------------------------------------------------------------------------

----------------------------------------D-I-I-S--------------------------------------------
Iteration    Energy (Eh)           Delta-E    RMSDP     MaxDP     DIISErr   Damp  Time(sec)
-------------------------------------------------------------------------------------------
               ***  Starting incremental Fock matrix formation  ***
    1    -405.6613319987735622     0.00e+00  5.74e-03  3.60e-02  6.17e-02  0.700   0.2
Warning: op=0 Small HOMO/LUMO gap (   0.054) - skipping pre-diagonalization
         Will do a full diagonalization
    2    -405.6789547611267608    -1.76e-02  4.91e-03  2.35e-02  3.55e-02  0.700   0.2
                               ***Turning on AO-DIIS***
    3    -405.6870528456761917    -8.10e-03  2.04e-03  1.22e-02  1.51e-02  0.700   0.2
    4    -405.6911895543735227    -4.14e-03  3.15e-03  1.88e-02  1.04e-02  0.000   0.1
    5    -405.7001820171252575    -8.99e-03  7.83e-04  4.23e-03  3.76e-03  0.000   0.2
                              *** Initializing SOSCF ***
---------------------------------------S-O-S-C-F--------------------------------------
Iteration    Energy (Eh)           Delta-E    RMSDP     MaxDP     MaxGrad    Time(sec)
--------------------------------------------------------------------------------------
    6    -405.7003755389418984    -1.94e-04  3.05e-04  1.53e-03  1.73e-03     0.2
               *** Restarting incremental Fock matrix formation ***
    7    -405.7004177453817988    -4.22e-05  3.10e-04  1.47e-03  8.59e-04     0.1
    8    -405.7004267638076271    -9.02e-06  1.74e-04  1.23e-03  6.38e-04     0.3
    9    -405.7004312643500725    -4.50e-06  4.05e-05  1.92e-04  1.51e-04     0.1
   10    -405.7004314043633144    -1.40e-07  1.07e-05  5.63e-05  3.78e-05     0.1
   11    -405.7004314190809282    -1.47e-08  3.73e-06  1.81e-05  1.49e-05     0.1
   12    -405.7004314208995766    -1.82e-09  7.16e-07  3.43e-06  7.58e-06     0.1
                 **** Energy Check signals convergence ****

               *****************************************************
               *                     SUCCESS                       *
               *           SCF CONVERGED AFTER  12 CYCLES          *
               *****************************************************

             **** ENERGY FILE WAS UPDATED (/cluster/projects/nn14654k/ylvaos/basis_set_n_funcs/functionals/pw91/LiS/inp/LiS_pw91_pc2.en.tmp) ****

----------------
TOTAL SCF ENERGY
----------------

Total Energy       :       -405.70043142100263 Eh          -11039.66998 eV

Components:
Nuclear Repulsion  :         11.81583755798484 Eh             321.52529 eV
Electronic Energy  :       -417.51626897898745 Eh          -11361.19527 eV
One Electron Energy:       -584.62541350087326 Eh          -15908.46627 eV
Two Electron Energy:        167.10914452188578 Eh            4547.27100 eV

Virial components:
Potential Energy   :       -810.90737944314151 Eh          -22065.91160 eV
Kinetic Energy     :        405.20694802213893 Eh           11026.24162 eV
Virial Ratio       :          2.00121785522502

DFT components:
N(Alpha)           :        9.999997011502 electrons
N(Beta)            :        8.999996171182 electrons
N(Total)           :       18.999993182683 electrons
E(X)               :      -26.822621436916 Eh       
E(C)               :       -0.730420906043 Eh       
E(XC)              :      -27.553042342960 Eh       

---------------
SCF CONVERGENCE
---------------

  Last Energy change         ...    1.8186e-09  Tolerance :   1.0000e-08
  Last MAX-Density change    ...    3.4317e-06  Tolerance :   1.0000e-07
  Last RMS-Density change    ...    7.1636e-07  Tolerance :   5.0000e-09
  Last DIIS Error            ...    1.7271e-03  Tolerance :   5.0000e-07
  Last Orbital Gradient      ...    7.5794e-06  Tolerance :   1.0000e-05
  Last Orbital Rotation      ...    6.6436e-06  Tolerance :   1.0000e-05


----------------------
UHF SPIN CONTAMINATION
----------------------

Warning: in a DFT calculation there is little theoretical justification to 
         calculate <S**2> as in Hartree-Fock theory. We will do it anyways
         but you should keep in mind that the values have only limited relevance

Expectation value of <S**2>     :     0.753136
Ideal value S*(S+1) for S=0.5   :     0.750000
Deviation                       :     0.003136

----------------
ORBITAL ENERGIES
----------------
                 SPIN UP ORBITALS
  NO   OCC          E(Eh)            E(eV) 
   0   1.0000     -88.014286     -2394.9905 
   1   1.0000      -7.614579      -207.2032 
   2   1.0000      -5.647982      -153.6894 
   3   1.0000      -5.631928      -153.2525 
   4   1.0000      -5.631255      -153.2342 
   5   1.0000      -1.903882       -51.8073 
   6   1.0000      -0.554806       -15.0970 
   7   1.0000      -0.218194        -5.9374 
   8   1.0000      -0.198813        -5.4100 
   9   1.0000      -0.176186        -4.7943 
  10   0.0000      -0.076319        -2.0767 
  11   0.0000       0.010429         0.2838 
  12   0.0000       0.016793         0.4570 
  13   0.0000       0.031951         0.8694 
  14   0.0000       0.104086         2.8323 
  15   0.0000       0.217664         5.9229 
  16   0.0000       0.236802         6.4437 
  17   0.0000       0.242537         6.5998 
  18   0.0000       0.426531        11.6065 
  19   0.0000       0.444905        12.1065 
  20   0.0000       0.449971        12.2443 

                 SPIN DOWN ORBITALS
  NO   OCC          E(Eh)            E(eV) 
   0   1.0000     -88.010037     -2394.8748 
   1   1.0000      -7.610000      -207.0786 
   2   1.0000      -5.635209      -153.3418 
   3   1.0000      -5.629258      -153.1799 
   4   1.0000      -5.628535      -153.1602 
   5   1.0000      -1.903902       -51.8078 
   6   1.0000      -0.520038       -14.1509 
   7   1.0000      -0.186974        -5.0878 
   8   1.0000      -0.164674        -4.4810 
   9   0.0000      -0.152198        -4.1415 
  10   0.0000      -0.075299        -2.0490 
  11   0.0000       0.017112         0.4656 
  12   0.0000       0.019608         0.5336 
  13   0.0000       0.034331         0.9342 
  14   0.0000       0.110325         3.0021 
  15   0.0000       0.242088         6.5875 
  16   0.0000       0.244078         6.6417 
  17   0.0000       0.248074         6.7504 
  18   0.0000       0.452405        12.3106 
  19   0.0000       0.454807        12.3759 
*Only the first 10 virtual orbitals were printed.

                    ********************************
                    * MULLIKEN POPULATION ANALYSIS *
                    ********************************

--------------------------------------------
MULLIKEN ATOMIC CHARGES AND SPIN POPULATIONS
--------------------------------------------
   0 Li:    0.546982    0.012545
   1 S :   -0.546982    0.987455
Sum of atomic charges         :    0.0000000
Sum of atomic spin populations:    1.0000000

-----------------------------------------------------
MULLIKEN REDUCED ORBITAL CHARGES AND SPIN POPULATIONS
-----------------------------------------------------
CHARGE
  0 Lis       :     2.164421  s :     2.164421
      pz      :     0.116304  p :     0.262453
      px      :     0.076580
      py      :     0.069569
      dz2     :     0.009035  d :     0.026145
      dxz     :     0.008858
      dyz     :     0.008240
      dx2y2   :     0.000000
      dxy     :     0.000012

  1 S s       :     5.945610  s :     5.945610
      pz      :     3.759910  p :    10.593956
      px      :     3.458439
      py      :     3.375607
      dz2     :     0.003541  d :     0.006900
      dxz     :     0.001240
      dyz     :     0.001168
      dx2y2   :     0.000008
      dxy     :     0.000943
      f0      :     0.000128  f :     0.000516
      f+1     :     0.000026
      f-1     :     0.000019
      f+2     :     0.000001
      f-2     :     0.000087
      f+3     :     0.000127
      f-3     :     0.000128


SPIN
  0 Lis       :    -0.011232  s :    -0.011232
      pz      :    -0.005813  p :     0.019691
      px      :     0.010796
      py      :     0.014708
      dz2     :    -0.000546  d :     0.004086
      dxz     :     0.002056
      dyz     :     0.002567
      dx2y2   :     0.000000
      dxy     :     0.000009

  1 S s       :     0.012364  s :     0.012364
      pz      :     0.004483  p :     0.973384
      px      :     0.441431
      py      :     0.527471
      dz2     :    -0.000050  d :     0.001536
      dxz     :     0.000357
      dyz     :     0.000431
      dx2y2   :     0.000007
      dxy     :     0.000791
      f0      :    -0.000094  f :     0.000171
      f+1     :    -0.000034
      f-1     :    -0.000030
      f+2     :     0.000001
      f-2     :     0.000081
      f+3     :     0.000124
      f-3     :     0.000123



                     *******************************
                     * LOEWDIN POPULATION ANALYSIS *
                     *******************************

-------------------------------------------
LOEWDIN ATOMIC CHARGES AND SPIN POPULATIONS
-------------------------------------------
   0 Li:    0.198947    0.038531
   1 S :   -0.198947    0.961469

----------------------------------------------------
LOEWDIN REDUCED ORBITAL CHARGES AND SPIN POPULATIONS
----------------------------------------------------
CHARGE
  0 Lis       :     2.254396  s :     2.254396
      pz      :     0.266002  p :     0.440199
      px      :     0.090998
      py      :     0.083198
      dz2     :     0.064484  d :     0.106458
      dxz     :     0.021644
      dyz     :     0.020317
      dx2y2   :     0.000000
      dxy     :     0.000013

  1 S s       :     5.688318  s :     5.688318
      pz      :     3.722063  p :    10.504139
      px      :     3.431721
      py      :     3.350354
      dz2     :     0.003379  d :     0.005787
      dxz     :     0.000753
      dyz     :     0.000706
      dx2y2   :     0.000008
      dxy     :     0.000942
      f0      :     0.000307  f :     0.000703
      f+1     :     0.000026
      f-1     :     0.000027
      f+2     :     0.000001
      f-2     :     0.000087
      f+3     :     0.000127
      f-3     :     0.000128


SPIN
  0 Lis       :    -0.008889  s :    -0.008889
      pz      :    -0.001926  p :     0.033857
      px      :     0.015526
      py      :     0.020257
      dz2     :     0.000196  d :     0.013563
      dxz     :     0.006048
      dyz     :     0.007309
      dx2y2   :     0.000000
      dxy     :     0.000009

  1 S s       :     0.005833  s :     0.005833
      pz      :     0.003299  p :     0.953457
      px      :     0.432830
      py      :     0.517329
      dz2     :     0.000616  d :     0.001853
      dxz     :     0.000198
      dyz     :     0.000243
      dx2y2   :     0.000007
      dxy     :     0.000790
      f0      :    -0.000017  f :     0.000326
      f+1     :     0.000005
      f-1     :     0.000009
      f+2     :     0.000001
      f-2     :     0.000081
      f+3     :     0.000124
      f-3     :     0.000123



                      *****************************
                      * MAYER POPULATION ANALYSIS *
                      *****************************

  NA   - Mulliken gross atomic population
  ZA   - Total nuclear charge
  QA   - Mulliken gross atomic charge
  VA   - Mayer's total valence
  BVA  - Mayer's bonded valence
  FA   - Mayer's free valence

  ATOM       NA         ZA         QA         VA         BVA        FA
  0 Li     2.4530     3.0000     0.5470     0.8069     0.8050     0.0019
  1 S     16.5470    16.0000    -0.5470     1.7328     0.8050     0.9278

  Mayer bond orders larger than 0.100000
B(  0-Li,  1-S ) :   0.8050 

-------
TIMINGS
-------

Total SCF time: 0 days 0 hours 0 min 2 sec 

Total time                  ....       2.048 sec
Sum of individual times     ....       1.940 sec  ( 94.7%)

SCF preparation             ....       0.211 sec  ( 10.3%)
Fock matrix formation       ....       1.143 sec  ( 55.8%)
  Startup                   ....       0.017 sec  (  1.5% of F)
  Coulomb formation         ....       0.303 sec  ( 26.5% of F)
  XC integration            ....       0.328 sec  ( 28.7% of F)
    Basis function eval.    ....       0.014 sec  (  4.1% of XC)
    Density eval.           ....       0.007 sec  (  2.0% of XC)
    XC-Functional eval.     ....       0.018 sec  (  5.5% of XC)
    XC-Potential eval.      ....       0.015 sec  (  4.5% of XC)
Diagonalization             ....       0.000 sec  (  0.0%)
Density matrix formation    ....       0.187 sec  (  9.1%)
Total Energy calculation    ....       0.026 sec  (  1.3%)
Population analysis         ....       0.011 sec  (  0.5%)
Orbital Transformation      ....       0.018 sec  (  0.9%)
Orbital Orthonormalization  ....       0.000 sec  (  0.0%)
DIIS solution               ....       0.224 sec  ( 10.9%)
SOSCF solution              ....       0.119 sec  (  5.8%)
Finished LeanSCF after   2.1 sec

Maximum memory used throughout the entire LEANSCF-calculation: 18.2 MB


           ************************************************************
           *        Program running with 8 parallel MPI-processes     *
           *              working on a common directory               *
           ************************************************************

------------------------------------------------------------------------------
                         ORCA PROPERTY INTEGRAL CALCULATIONS
------------------------------------------------------------------------------

GBWName                                   ... /cluster/projects/nn14654k/ylvaos/basis_set_n_funcs/functionals/pw91/LiS/inp/LiS_pw91_pc2.gbw
Number of atoms                           ...      2
Number of basis functions                 ...     49
Max core memory                           ...   4096 MB

Dipole integrals                          ... YES
Quadrupole integrals                      ... YES
Linear momentum integrals                 ...  NO
Angular momentum integrals                ...  NO
Higher moments length integrals           ...  NO
Higher moments velocity integrals         ...  NO
Kinetic energy integrals                  ...  NO
GIAO right hand sides                     ...  NO
GIAO dipole derivative integrals          ...  NO
SOC integrals                             ...  NO
EPR diamagnetic integrals (GIAO)          ...  NO
EPR gauge integrals                       ...  NO
Field gradient integrals                  ...  NO (   0 nuclei)
Spin-dipole/Fermi contact integrals       ...  NO (   0 nuclei)
Contact density integrals                 ...  NO (   0 nuclei)
Nucleus-orbit integrals                   ...  NO (   0 nuclei)
Geometric perturbations                   ...  NO (   2 nuclei)

Choice of electric origin   ... Center of mass
Position of electric origin ... (  0.0000,  0.0000,  1.3082) 
Choice of magnetic origin   ... GIAO
Position of magnetic origin ... (  0.0000,  0.0000,  0.0000) 

Calculating integrals                     ... Electric Dipole (Length)     done (  0.0 sec)
Calculating integrals                     ... Electric Quadrupole (Length) done (  0.0 sec)

Property integrals calculated in   0.0 sec

Maximum memory used throughout the entire PROPINT-calculation: 6.1 MB
------------------------------------------------------------------------------
                           ORCA ORBITAL LOCALIZATION
------------------------------------------------------------------------------

Input orbitals are from                  ... /cluster/projects/nn14654k/ylvaos/basis_set_n_funcs/functionals/pw91/LiS/inp/LiS_pw91_pc2.gbw
Output orbitals are to                   ... /cluster/projects/nn14654k/ylvaos/basis_set_n_funcs/functionals/pw91/LiS/inp/LiS_pw91_pc2.loc
Max. number of iterations                ... 128
Localizations seeded randomly            ... on
Convergence tolerance                    ... 1.000e-06
Threshold for strong local MOs           ... 9.500e-01
Threshold for bond MOs                   ... 8.500e-01
Operator                                 ... 0
Orbital range for localization           ... 5 to 9
Localization criterion                   ... NEW-BOYS
Doing the dipole integrals               ... o.k.
Initial value of the localization sum :    12.381491
ITERATION   0 : L=   15.5683454243 DL=  3.19e+00 (AVERGE_DL)=    0.5645222925 
ITERATION   1 : L=   15.7744958407 DL=  2.06e-01 (AVERGE_DL)=    0.1435793914 
ITERATION   2 : L=   15.8137642403 DL=  3.93e-02 (AVERGE_DL)=    0.0626645032 
ITERATION   3 : L=   15.8519760194 DL=  3.82e-02 (AVERGE_DL)=    0.0618156769 
ITERATION   4 : L=   15.8740899181 DL=  2.21e-02 (AVERGE_DL)=    0.0470254173 
ITERATION   5 : L=   15.8886781633 DL=  1.46e-02 (AVERGE_DL)=    0.0381945613 
ITERATION   6 : L=   15.8972222301 DL=  8.54e-03 (AVERGE_DL)=    0.0292302358 
ITERATION   7 : L=   15.9023140836 DL=  5.09e-03 (AVERGE_DL)=    0.0225651357 
ITERATION   8 : L=   15.9053635253 DL=  3.05e-03 (AVERGE_DL)=    0.0174626506 
ITERATION   9 : L=   15.9072505260 DL=  1.89e-03 (AVERGE_DL)=    0.0137368147 
ITERATION  10 : L=   15.9084667894 DL=  1.22e-03 (AVERGE_DL)=    0.0110284332 
ITERATION  11 : L=   15.9092924399 DL=  8.26e-04 (AVERGE_DL)=    0.0090865311 
ITERATION  12 : L=   15.9098874045 DL=  5.95e-04 (AVERGE_DL)=    0.0077133950 
ITERATION  13 : L=   15.9103447686 DL=  4.57e-04 (AVERGE_DL)=    0.0067628702 
ITERATION  14 : L=   15.9107196795 DL=  3.75e-04 (AVERGE_DL)=    0.0061229961 
ITERATION  15 : L=   15.9110453605 DL=  3.26e-04 (AVERGE_DL)=    0.0057068468 
ITERATION  16 : L=   15.9113420734 DL=  2.97e-04 (AVERGE_DL)=    0.0054471367 
ITERATION  17 : L=   15.9116222461 DL=  2.80e-04 (AVERGE_DL)=    0.0052931342 
ITERATION  18 : L=   15.9118934679 DL=  2.71e-04 (AVERGE_DL)=    0.0052078954 
ITERATION  19 : L=   15.9121602718 DL=  2.67e-04 (AVERGE_DL)=    0.0051653065 
ITERATION  20 : L=   15.9124252285 DL=  2.65e-04 (AVERGE_DL)=    0.0051473947 
ITERATION  21 : L=   15.9126896132 DL=  2.64e-04 (AVERGE_DL)=    0.0051418355 
ITERATION  22 : L=   15.9129538417 DL=  2.64e-04 (AVERGE_DL)=    0.0051403161 
ITERATION  23 : L=   15.9132177453 DL=  2.64e-04 (AVERGE_DL)=    0.0051371546 
ITERATION  24 : L=   15.9134807592 DL=  2.63e-04 (AVERGE_DL)=    0.0051284878 
ITERATION  25 : L=   15.9137420535 DL=  2.61e-04 (AVERGE_DL)=    0.0051116951 
ITERATION  26 : L=   15.9140006267 DL=  2.59e-04 (AVERGE_DL)=    0.0050850099 
ITERATION  27 : L=   15.9142553832 DL=  2.55e-04 (AVERGE_DL)=    0.0050473411 
ITERATION  28 : L=   15.9145051880 DL=  2.50e-04 (AVERGE_DL)=    0.0049980475 
ITERATION  29 : L=   15.9147489146 DL=  2.44e-04 (AVERGE_DL)=    0.0049368672 
ITERATION  30 : L=   15.9149854866 DL=  2.37e-04 (AVERGE_DL)=    0.0048638666 
ITERATION  31 : L=   15.9152139089 DL=  2.28e-04 (AVERGE_DL)=    0.0047793550 
ITERATION  32 : L=   15.9154332922 DL=  2.19e-04 (AVERGE_DL)=    0.0046838367 
ITERATION  33 : L=   15.9156428764 DL=  2.10e-04 (AVERGE_DL)=    0.0045780364 
ITERATION  34 : L=   15.9158420406 DL=  1.99e-04 (AVERGE_DL)=    0.0044627820 
ITERATION  35 : L=   15.9160303144 DL=  1.88e-04 (AVERGE_DL)=    0.0043390526 
ITERATION  36 : L=   15.9162073769 DL=  1.77e-04 (AVERGE_DL)=    0.0042078801 
ITERATION  37 : L=   15.9163730573 DL=  1.66e-04 (AVERGE_DL)=    0.0040703850 
ITERATION  38 : L=   15.9165273246 DL=  1.54e-04 (AVERGE_DL)=    0.0039276888 
ITERATION  39 : L=   15.9166702799 DL=  1.43e-04 (AVERGE_DL)=    0.0037809430 
ITERATION  40 : L=   15.9168021419 DL=  1.32e-04 (AVERGE_DL)=    0.0036312797 
ITERATION  41 : L=   15.9169232293 DL=  1.21e-04 (AVERGE_DL)=    0.0034797615 
ITERATION  42 : L=   15.9170339483 DL=  1.11e-04 (AVERGE_DL)=    0.0033274475 
ITERATION  43 : L=   15.9171347745 DL=  1.01e-04 (AVERGE_DL)=    0.0031753142 
ITERATION  44 : L=   15.9172262337 DL=  9.15e-05 (AVERGE_DL)=    0.0030242209 
ITERATION  45 : L=   15.9173088901 DL=  8.27e-05 (AVERGE_DL)=    0.0028750029 
ITERATION  46 : L=   15.9173833303 DL=  7.44e-05 (AVERGE_DL)=    0.0027283736 
ITERATION  47 : L=   15.9174501494 DL=  6.68e-05 (AVERGE_DL)=    0.0025849395 
ITERATION  48 : L=   15.9175099425 DL=  5.98e-05 (AVERGE_DL)=    0.0024452615 
ITERATION  49 : L=   15.9175632933 DL=  5.34e-05 (AVERGE_DL)=    0.0023097802 
ITERATION  50 : L=   15.9176107668 DL=  4.75e-05 (AVERGE_DL)=    0.0021788415 
ITERATION  51 : L=   15.9176529042 DL=  4.21e-05 (AVERGE_DL)=    0.0020527386 
ITERATION  52 : L=   15.9176902181 DL=  3.73e-05 (AVERGE_DL)=    0.0019316804 
ITERATION  53 : L=   15.9177231895 DL=  3.30e-05 (AVERGE_DL)=    0.0018158052 
ITERATION  54 : L=   15.9177522664 DL=  2.91e-05 (AVERGE_DL)=    0.0017051927 
ITERATION  55 : L=   15.9177778614 DL=  2.56e-05 (AVERGE_DL)=    0.0015998460 
ITERATION  56 : L=   15.9178003545 DL=  2.25e-05 (AVERGE_DL)=    0.0014997689 
ITERATION  57 : L=   15.9178200917 DL=  1.97e-05 (AVERGE_DL)=    0.0014048899 
ITERATION  58 : L=   15.9178373866 DL=  1.73e-05 (AVERGE_DL)=    0.0013151038 
ITERATION  59 : L=   15.9178525229 DL=  1.51e-05 (AVERGE_DL)=    0.0012302948 
ITERATION  60 : L=   15.9178657552 DL=  1.32e-05 (AVERGE_DL)=    0.0011503171 
ITERATION  61 : L=   15.9178773112 DL=  1.16e-05 (AVERGE_DL)=    0.0010749898 
ITERATION  62 : L=   15.9178873943 DL=  1.01e-05 (AVERGE_DL)=    0.0010041460 
ITERATION  63 : L=   15.9178961849 DL=  8.79e-06 (AVERGE_DL)=    0.0009375820 
ITERATION  64 : L=   15.9179038434 DL=  7.66e-06 (AVERGE_DL)=    0.0008751252 
ITERATION  65 : L=   15.9179105112 DL=  6.67e-06 (AVERGE_DL)=    0.0008165665 
ITERATION  66 : L=   15.9179163132 DL=  5.80e-06 (AVERGE_DL)=    0.0007617082 
ITERATION  67 : L=   15.9179213592 DL=  5.05e-06 (AVERGE_DL)=    0.0007103541 
ITERATION  68 : L=   15.9179257457 DL=  4.39e-06 (AVERGE_DL)=    0.0006623113 
ITERATION  69 : L=   15.9179295575 DL=  3.81e-06 (AVERGE_DL)=    0.0006173905 
ITERATION  70 : L=   15.9179328684 DL=  3.31e-06 (AVERGE_DL)=    0.0005754088 
ITERATION  71 : L=   15.9179357435 DL=  2.88e-06 (AVERGE_DL)=    0.0005361957 
ITERATION  72 : L=   15.9179382392 DL=  2.50e-06 (AVERGE_DL)=    0.0004995775 
ITERATION  73 : L=   15.9179404052 DL=  2.17e-06 (AVERGE_DL)=    0.0004653932 
ITERATION  74 : L=   15.9179422843 DL=  1.88e-06 (AVERGE_DL)=    0.0004334896 
ITERATION  75 : L=   15.9179439142 DL=  1.63e-06 (AVERGE_DL)=    0.0004037212 
ITERATION  76 : L=   15.9179453276 DL=  1.41e-06 (AVERGE_DL)=    0.0003759503 
ITERATION  77 : L=   15.9179465529 DL=  1.23e-06 (AVERGE_DL)=    0.0003500473 
ITERATION  78 : L=   15.9179476150 DL=  1.06e-06 (AVERGE_DL)=    0.0003258896 
ITERATION  79 : L=   15.9179485352 DL=  9.20e-07 (AVERGE_DL)=    0.0003033625 
LOCALIZATION SUM CONVERGED


--------------------------------------------------------------------------------
                    LOCALIZED MOLECULAR ORBITAL COMPOSITIONS
--------------------------------------------------------------------------------

The Mulliken populations for each LMO on each atom are computed
The LMO`s will be ordered according to atom index and type
  (A) Strongly localized MO`s have populations of >=0.950 on one atom
  (B) Two center bond orbitals have populations of >=0.850 on two atoms
  (C) Other MO`s are considered to be `delocalized`

FOUND  -   3 strongly local MO`s
       -   2 two center bond MO`s
       -   0 significantly delocalized MO`s

Rather strongly localized orbitals:
MO   7:   1S  -   0.959212
MO   6:   1S  -   0.978306
MO   5:   0Li -   1.002006
Bond-like localized orbitals:
MO   9:   1S  -   0.916198  and   0Li -   0.083802
MO   8:   1S  -   0.915984  and   0Li -   0.084016
Localized MO's were stored in: /cluster/projects/nn14654k/ylvaos/basis_set_n_funcs/functionals/pw91/LiS/inp/LiS_pw91_pc2.loc
------------------------------------------------------------------------------
                           ORCA ORBITAL LOCALIZATION
------------------------------------------------------------------------------

Input orbitals are from                  ... /cluster/projects/nn14654k/ylvaos/basis_set_n_funcs/functionals/pw91/LiS/inp/LiS_pw91_pc2.loc
Output orbitals are to                   ... /cluster/projects/nn14654k/ylvaos/basis_set_n_funcs/functionals/pw91/LiS/inp/LiS_pw91_pc2.loc
Max. number of iterations                ... 128
Localizations seeded randomly            ... on
Convergence tolerance                    ... 1.000e-06
Threshold for strong local MOs           ... 9.500e-01
Threshold for bond MOs                   ... 8.500e-01
Operator                                 ... 1
Orbital range for localization           ... 5 to 8
Localization criterion                   ... NEW-BOYS
Doing the dipole integrals               ... o.k.
Initial value of the localization sum :    12.032527
ITERATION   0 : L=   14.8759752971 DL=  2.84e+00 (AVERGE_DL)=    0.6884098240 
ITERATION   1 : L=   14.9297066461 DL=  5.37e-02 (AVERGE_DL)=    0.0946320497 
ITERATION   2 : L=   14.9464561520 DL=  1.67e-02 (AVERGE_DL)=    0.0528354458 
ITERATION   3 : L=   14.9813105436 DL=  3.49e-02 (AVERGE_DL)=    0.0762172242 
ITERATION   4 : L=   15.0579452901 DL=  7.66e-02 (AVERGE_DL)=    0.1130152987 
ITERATION   5 : L=   15.1694526434 DL=  1.12e-01 (AVERGE_DL)=    0.1363251953 
ITERATION   6 : L=   15.2664184572 DL=  9.70e-02 (AVERGE_DL)=    0.1271257998 
ITERATION   7 : L=   15.3219323771 DL=  5.55e-02 (AVERGE_DL)=    0.0961889806 
ITERATION   8 : L=   15.3473793095 DL=  2.54e-02 (AVERGE_DL)=    0.0651241537 
ITERATION   9 : L=   15.3580606115 DL=  1.07e-02 (AVERGE_DL)=    0.0421926179 
ITERATION  10 : L=   15.3624181443 DL=  4.36e-03 (AVERGE_DL)=    0.0269491273 
ITERATION  11 : L=   15.3641838008 DL=  1.77e-03 (AVERGE_DL)=    0.0171544772 
ITERATION  12 : L=   15.3648993086 DL=  7.16e-04 (AVERGE_DL)=    0.0109202244 
ITERATION  13 : L=   15.3651897765 DL=  2.90e-04 (AVERGE_DL)=    0.0069578239 
ITERATION  14 : L=   15.3653079098 DL=  1.18e-04 (AVERGE_DL)=    0.0044372153 
ITERATION  15 : L=   15.3653560234 DL=  4.81e-05 (AVERGE_DL)=    0.0028317732 
ITERATION  16 : L=   15.3653756393 DL=  1.96e-05 (AVERGE_DL)=    0.0018081255 
ITERATION  17 : L=   15.3653836423 DL=  8.00e-06 (AVERGE_DL)=    0.0011549151 
ITERATION  18 : L=   15.3653869089 DL=  3.27e-06 (AVERGE_DL)=    0.0007378570 
ITERATION  19 : L=   15.3653882424 DL=  1.33e-06 (AVERGE_DL)=    0.0004714440 
ITERATION  20 : L=   15.3653887873 DL=  5.45e-07 (AVERGE_DL)=    0.0003013371 
LOCALIZATION SUM CONVERGED


--------------------------------------------------------------------------------
                    LOCALIZED MOLECULAR ORBITAL COMPOSITIONS
--------------------------------------------------------------------------------

The Mulliken populations for each LMO on each atom are computed
The LMO`s will be ordered according to atom index and type
  (A) Strongly localized MO`s have populations of >=0.950 on one atom
  (B) Two center bond orbitals have populations of >=0.850 on two atoms
  (C) Other MO`s are considered to be `delocalized`

FOUND  -   2 strongly local MO`s
       -   2 two center bond MO`s
       -   0 significantly delocalized MO`s

Rather strongly localized orbitals:
MO   6:   1S  -   0.988253
MO   5:   0Li -   1.002037
Bond-like localized orbitals:
MO   8:   1S  -   0.897038  and   0Li -   0.102962
MO   7:   1S  -   0.896941  and   0Li -   0.103059
Localized MO's were stored in: /cluster/projects/nn14654k/ylvaos/basis_set_n_funcs/functionals/pw91/LiS/inp/LiS_pw91_pc2.loc

-------------------------   --------------------
FINAL SINGLE POINT ENERGY      -405.700431421003
-------------------------   --------------------



           ************************************************************
           *        Program running with 8 parallel MPI-processes     *
           *              working on a common directory               *
           ************************************************************

------------------------------------------------------------------------------
                              ORCA PROPERTY CALCULATIONS
------------------------------------------------------------------------------

GBWName                                 ... /cluster/projects/nn14654k/ylvaos/basis_set_n_funcs/functionals/pw91/LiS/inp/LiS_pw91_pc2.gbw
Number of atoms                         ...      2
Number of basis functions               ...     49
Max core memory                         ...   4096 MB

Electric properties:
Dipole moment                           ... YES
Quadrupole moment                       ... YES
Static polarizability (Dipole/Dipole)   ...  NO
Static polarizability (Dipole/Quad.)    ...  NO
Static polarizability (Quad./Quad.)     ...  NO
Static polarizability (Velocity)        ...  NO
Static hyperpolarizability              ...  NO

Atomic electric properties:
Dipole moment                           ...  NO
Quadrupole moment                       ...  NO
Static polarizability                   ...  NO

Choice of electric origin               ... Center of mass
Position of electric origin             ...     0.000000     0.000000     1.308198

General magnetic properties:
Magnetizability                         ...  NO

EPR properties:
g-Tensor (aka g-matrix)                 ...  NO
Zero-Field splitting spin-orbit         ...  NO
Zero-field splitting spin-spin          ...  NO
Hyperfine couplings                     ...  NO (   0 nuclei)
Quadrupole couplings                    ...  NO (   0 nuclei)
Contact density                         ...  NO (   0 nuclei)

NMR properties:
Chemical shifts                         ...  NO (   0 nuclei)
Spin-rotation constants                 ...  NO (   0 nuclei)
Spin-spin couplings                     ...  NO (   0 nuclei,    0 pairs)

Choice of magnetic origin               ... GIAO
Position of magnetic origin             ...     0.000000     0.000000     0.000000

Properties with geometric perturbations:
SCF Hessian                             ...  NO
IR spectrum                             ...  NO
VCD spectrum                            ...  NO
X-ray spectroscopy properties:
SCF XES/XAS/RIXS spectra                ...  NO

SCF SOC stabilization energy            ...  NO
Diagonal Born-Oppenheimer correction    ...  NO

-------------
DIPOLE MOMENT
-------------

Method             : SCF
Type of density    : Electron Density
Multiplicity       :   2
Irrep              :   0
Energy             :  -405.7004314210026337 Eh
Basis              : AO
                                X                 Y                 Z
Electronic contribution:      0.000000000       0.000000000      -4.266495762
Nuclear contribution   :      0.000000000       0.000000000       1.549484202
                        -----------------------------------------
Total Dipole Moment    :      0.000000000       0.000000000      -2.717011560
                        -----------------------------------------
Magnitude (a.u.)       :      2.717011560
Magnitude (Debye)      :      6.906094550



--------------------
Rotational spectrum 
--------------------
 
Rotational constants in cm-1:             0.000000             0.639339             0.639339 
Rotational constants in MHz :             0.000000         19166.891897         19166.891897 

Dipole components along the rotational axes: 
x,y,z [a.u.] :    -2.717012     0.000000     0.000000 
x,y,z [Debye]:    -6.906095     0.000000     0.000000 

 

Dipole moment calculation done in   0.0 sec 

-----------------
QUADRUPOLE MOMENT
-----------------

Method             : SCF
Type of density    : Electron Density
Multiplicity       :   2
Irrep              :   0
Energy             :  -405.7004314210026337 Eh
Basis              : AO

                XX              YY              ZZ              XY              XZ              YZ
  NUC        0.000000000     0.000000000    41.817245673     0.000000000     0.000000000     0.000000000
  EL       -13.036055160   -12.811351522   -45.279438522    -1.235793619    -0.000000000    -0.000000000
  TOT      -13.036055160   -12.811351522    -3.462192849    -1.235793619    -0.000000000    -0.000000000 (a.u.)
           -17.533940023   -17.231705946    -4.656767789    -1.662184682    -0.000000000    -0.000000000 (Buckingham)

diagonalized tensor:
           -14.164593667   -11.682813015    -3.462192849 (a.u.)
           -19.051862911   -15.713783057    -4.656767789 (Buckingham)
           -17.733174976    -7.718935414    25.452110390 (traceless form in Buckingham)

            -0.738424436    -0.674336231    -0.000000000
            -0.674336231     0.738424436    -0.000000000
            -0.000000000    -0.000000000     1.000000000
        
Isotropic quadrupole :    -9.769866510

Quadrupole moment calculation done in   0.0 sec (  0.0 sec for integrals)

Maximum memory used throughout the entire PROP-calculation: 2.6 MB

--------------------------------
SUGGESTED CITATIONS FOR THIS RUN
--------------------------------

Below you find a list of papers that are relevant to this ORCA run
We neither can nor want to force you to cite these papers, but we appreciate if you do
You receive ORCA, which is the product of decades of hard work by many enthusiastic individuals, for free
The only thing we kindly ask in return is that you cite our papers,
We deeply appreciate it, if you show your appreciation for ORCA by not just citing the generic ORCA reference.

Please note that relegating all ORCA citations to the supporting information does *not* help us.
SI sections are not indexed - citations you put there will not count into any citation statistics
But we need these citations in order to attract the funding resources that allow us to do what we are doing

Therefore, if you are a happy ORCA user, please consider citing a few of the papers listed below in the main body of your paper

In addition to the list printed below, the program has created the file /cluster/projects/nn14654k/ylvaos/basis_set_n_funcs/functionals/pw91/LiS/inp/LiS_pw91_pc2.bibtex that contains the list in bibtex format
You can import this file easily into all common literature databanks and citation aid programs

It goes without saying that in many instances, there are alternative algorithms to achieve similar
results as the ones you have gotten from ORCA. It is, of course, also the case that in some instances
ORCA just re-implements algorithms worked out by others. We are fully aware of that and we are also
fully appreciative of our colleagues work. Hence this citation list should not be read as indicating
that the listed papers, which are focused on our own work, are the only ones worth citing. It simply
meant to make it easier for users to cite ORCA specific papers. It is not a substitute for doing your
own literature research and citing the relevant literature in a scientifically appropriate manner.

List of essential papers. We consider these as the minimum necessary citations

  1. Neese, F.
     Software update: the ORCA program system, version 6.0
     WIRES Comput. Molec. Sci. 2025 15(1), e70019
     doi.org/10.1002/wcms.70019

List of papers to cite with high priority. The work reported in these papers was absolutely
necessary for this run to complete.
Our perspective: the developers of density functionals and basis sets usually get cited in chemistry papers
Good! But without the algorithms to do something with them, the functionals or basis sets would not do anything.
Hence, in our opinion, the algorithm design and method developments papers are equally worthy of getting cited

  1. Lehtola, S.; Steigemann, C.; Oliveira, M.; Marques, M.
     Recent developments in Libxc - A comprehensive library of functionals for density functional theory
     Software X 2018 7 , 
     doi.org/10.1016/j.softx.2017.11.002
  2. Neese, F.
     The SHARK Integral Generation and Digestion System
     J. Comp. Chem. 2022 44(3), 381
     doi.org/10.1002/jcc.26942

List of suggested additional citations. These are papers that are important in the 'surrounding' of 
of this run, or papers that preceded the highly important papers. If you like your results we are grateful for a citation.

  1. Neese, F.
     The ORCA program system
     WIRES Comput. Molec. Sci. 2012 2(1), 73-78
     doi.org/10.1002/wcms.81
  2. Neese, F.
     Software update: the ORCA program system, version 4.0
     WIRES Comput. Molec. Sci. 2018 8(1), 1-6
     doi.org/10.1002/wcms.1327
  3. Neese, F.; Wennmohs, F.; Becker, U.; Riplinger, C.
     The ORCA quantum chemistry program package
     J. Chem. Phys. 2020 152(22), 224108
     doi.org/10.1063/5.0004608
  4. Neese, F.
     Software update: The ORCA program system—Version 5.0
     WIRES Comput. Molec. Sci. 2022 12(1), e1606
     doi.org/10.1002/wcms.1606

List of optional additional citations

  1. Neese, F.
     Approximate second-order SCF convergence for spin unrestricted wavefunctions
     Chem. Phys. Lett. 2000 325(1-3), 93-98
     doi.org/10.1016/s0009-2614(00)00662-x

Timings for individual modules:

Sum of individual times          ...        3.436 sec (=   0.057 min)
Startup calculation              ...        0.391 sec (=   0.007 min)  11.4 %
SCF iterations                   ...        2.564 sec (=   0.043 min)  74.6 %
Property integrals               ...        0.225 sec (=   0.004 min)   6.5 %
Property calculations            ...        0.233 sec (=   0.004 min)   6.8 %
Orbital localization             ...        0.024 sec (=   0.000 min)   0.7 %
                             ****ORCA TERMINATED NORMALLY****
TOTAL RUN TIME: 0 days 0 hours 0 minutes 4 seconds 252 msec
