
                                 *****************
                                 * O   R   C   A *
                                 *****************

                                            #,                                       
                                            ###                                      
                                            ####                                     
                                            #####                                    
                                            ######                                   
                                           ########,                                 
                                     ,,################,,,,,                         
                               ,,#################################,,                 
                          ,,##########################################,,             
                       ,#########################################, ''#####,          
                    ,#############################################,,   '####,        
                  ,##################################################,,,,####,       
                ,###########''''           ''''###############################       
              ,#####''   ,,,,##########,,,,          '''####'''          '####       
            ,##' ,,,,###########################,,,                        '##       
           ' ,,###''''                  '''############,,,                           
         ,,##''                                '''############,,,,        ,,,,,,###''
      ,#''                                            '''#######################'''  
     '                                                          ''''####''''         
             ,#######,   #######,   ,#######,      ##                                
            ,#'     '#,  ##    ##  ,#'     '#,    #''#        ,####,    ,#,          
            ##       ##  ##   ,#'  ##            #'  '#       #'       ,# #          
            ##       ##  #######   ##           ,######,      #####,      #          
            '#,     ,#'  ##    ##  '#,     ,#' ,#      #,     #,   #      #          
             '#######'   ##     ##  '#######'  #'      '#     '####' #    #          



                #########################################################
                #                        -***-                          #
                #          Department of theory and spectroscopy        #
                #                                                       #
                #                      Frank Neese                      #
                #                                                       #
                #     Directorship, Architecture, Infrastructure        #
                #                    SHARK, DRIVERS                     #
                #        Core code/Algorithms in most modules           #
                #                                                       #
                #        Max Planck Institute fuer Kohlenforschung      #
                #                Kaiser Wilhelm Platz 1                 #
                #                 D-45470 Muelheim/Ruhr                 #
                #                      Germany                          #
                #                                                       #
                #                  All rights reserved                  #
                #                        -***-                          #
                #########################################################


                         Program Version 6.1.1  -  RELEASE   -
                                (GIT: $487d211c$)
                          ($2025-11-21 10:33:24 +0100$)


 With contributions from (in alphabetic order):
[Max-Planck-Institut fuer Kohlenforschung]                               
  Daniel Aravena         : Magnetic Suceptibility                        
  Michael Atanasov       : Ab Initio Ligand Field Theory (pilot matlab implementation)
  Alexander A. Auer      : GIAO ZORA, VPT2 properties, NMR spectrum      
  Ute Becker             : All parallelization in ORCA, NUMFREQ, NUMCALC 
  Giovanni Bistoni       : ED, misc. LED, open-shell LED, HFLD           
  Dmytro Bykov           : pre 5.0 version of the SCF Hessian            
  Marcos Casanova-Páez   : Triplet and SCS-CIS(D). UHF-(DLPNO)-IP/EA/STEOM-CCSD. UHF-CVS-IP/STEOM-CCSD   
  Vijay G. Chilkuri      : MRCI spin determinant printing, contributions to CSF-ICE 
  Pauline Colinet        : FMM embedding                                 
  Dipayan Datta          : RHF DLPNO-CCSD density                        
  Achintya Kumar Dutta   : EOM-CC, STEOM-CC                              
  Nicolas Foglia         : Exact transition moments, OPA infrastructure, MCD improvements    
  Dmitry Ganyushin       : Spin-Orbit,Spin-Spin,Magnetic field MRCI      
  Miquel Garcia-Rates    : C-PCM and meta-GGA Hessian, CCSD/C-PCM, Gaussian charge scheme 
  Tiago L. C. Gouveia    : GS-ROHF, GS-ROCIS                             
  Yang Guo               : DLPNO-NEVPT2, F12-NEVPT2, CIM, IAO-localization        
  Andreas Hansen         : Spin unrestricted coupled pair/coupled cluster methods 
  Ingolf Harden          : AUTO-CI MPn and infrastructure                
  Benjamin Helmich-Paris : MC-RPA, TRAH-(SCF,CASSCF), AVAS, COSX integrals, SCF dyn. polar., MC-PDFT, srDFT 
  Lee Huntington         : MR-EOM, pCC                                   
  Robert Izsak           : Overlap fitted RIJCOSX, COSX-SCS-MP3, EOM     
  Riya Kayal             : Wick's Theorem for AUTO-CI, AUTO-CI UHF-CCSDT 
  Emily Kempfer          : AUTO-CI RHF CISDT and CCSDT, approximate NEVPT4
  Christian Kollmar      : KDIIS, OOCD, Brueckner-CCSD(T), CCSD density, CASPT2, CASPT2-K, improved NEVPT2 
  Axel Koslowski         : Symmetry handling                             
  Simone Kossmann        : meta-GGA functionals, TD-DFT gradient, OOMP2, (MP2 Hessian; deprecated post 5.0) 
  Lucas Lang             : DCDCAS, Hyperfine gauge corrections, ICE-SOC+SSC
  Marvin Lechner         : AUTO-CI (C++ implementation), FIC-MRCC        
  Spencer Leger          : CASSCF response                               
  Dagmar Lenk            : GEPOL surface, SMD, ORCA-2-JSON               
  Dimitrios Liakos       : Extrapolation schemes; Compound Job, Property file
  Dimitrios Manganas     : Further ROCIS development; embedding schemes. LFT, Crystal Embedding 
  Dimitrios Pantazis     : SARC Basis sets                               
  Anastasios Papadopoulos: AUTO-CI, single reference methods and gradients 
  Taras Petrenko         : pre 6.0 DFT Hessian and TD-DFT gradient,  ECA, NRVS 
  Petra Pikulova         : Analytic Raman intensities                    
  Peter Pinski           : DLPNO-MP2, DLPNO-MP2 Gradient                 
  Shashank Vittal Rao    : ES-AILFT, MagRelax                            
  Christoph Reimann      : Effective Core Potentials                     
  Marius Retegan         : Local ZFS, SOC                                
  Christoph Riplinger    : Optimizer, TS searches, QM/MM, DLPNO-CCSD(T), (RO)-DLPNO pert. Triples 
  Michael Roemelt        : Original ROCIS implementation, recursive CI coupling coefficients
  Masaaki Saitow         : Open-shell DLPNO-CCSD energy and density      
  Barbara Sandhoefer     : DKH picture change effects                    
  Yorick L. A. Schmerwitz: GMF and freeze-and-release deltaSCF, NEB S-IDPP initial path                    
  Kantharuban Sivalingam : CASSCF convergence/infrastructure, NEVPT2, NEVPT3, NEVPT4(SD), FIC-MRCI and CEPA variants
  Bernardo de Souza      : ESD, SOC TD-DFT                               
  Georgi L. Stoychev     : AutoAux, RI-MP2 NMR, DLPNO-MP2 response, X2C  
  Van Anh Tran           : RI-MP2 g-tensors                              
  Willem Van den Heuvel  : Paramagnetic NMR                              
  Zikuan Wang            : NOTCH, Electric field optimization            
  Frank Wennmohs         : Technical directorship and infrastructure     
  Hang Xu                : AUTO-CI-Response properties                   
                                                                         
[FACCTs GmbH]                                                            
  Markus Bursch, Nicolas Foglia, Miquel Garcia-Rates, Ingolf Harden, Hagen Neugebauer, Anastasios Papadopoulos, 
  Christoph Riplinger, Bernardo de Souza, Georgi L. Stoychev                                                    
                                                                 
  APM, various basis sets, CI-OPT, improved COSX, DLPNO-Multilevel,           
  DOCKER, DRACO, updates on ESD, Fragmentator, GOAT, IRC, LR-CPCM, L-BFGS, MBIS, meta-GGA TD-DFT gradient, ML-optimized integration grids, 
  MM, NACMEs, nearIR, NEB, NEB-TS, NL-DFT gradient (VV10), 2- and 3-layer-ONIOM, interface openCOSMO-RS, QMMM,   
  Crystal-QMMM, RESP, rigid body optimization, SF, symmetry and pop. for TD-DFT, various functionals, SOLVATOR                                   
                                                                         
[Other institutions]                                                     
  V. Asgeirsson          : NEB                                           
  Christoph Bannwarth    : sTDA-DFT, sTD-DFT, PBEh-3c, B97-3c, D3        
  Giovanni Bistoni       : ETS/NOCV, ADLD/ADEX, COVALED                  
  Martin Brehm           : Molecular dynamics                            
  Ronald Cardenas        : ETS/NOCV                                      
  Martina Colucci        : COVALED                                       
  Sebastian Ehlert       : rSCAN, r2SCAN, r2SCAN-3c, D4, dhf basis sets  
  Marvin Friede          : D4 for Fr, Ra, Ac-Lr                          
  Lars Goerigk           : TD-DFT with DH, B97 family of functionals     
  Stefan Grimme          : VdW corrections, initial TS optimization, DFT functionals, gCP, sTDA/sTD-DF 
  Waldemar Hujo          : DFT-NL                                        
  H. Jonsson             : NEB                                           
  Holger Kruse           : gCP                                           
  Marcel Mueller         : wB97X-3c, vDZP basis set                      
  Hagen Neugebauer       : wr2SCAN, Native XTB                           
  Gianluca Regni         : ADLD/ADEX                                     
  Tobias Risthaus        : pre 6.0 range-separated hybrid DFT and stability analysis
  Lukas Wittmann         : regularized MP2, r2SCAN double-hybrids, wr2SCAN        
                                                                         
We gratefully acknowledge several colleagues who have allowed us to      
interface, adapt or use parts of their codes:                            
  Ed Valeev, F. Pavosevic, A. Kumar             : LibInt (2-el integral package), F12 methods 
  Garnet Chan, S. Sharma, J. Yang, R. Olivares  : DMRG                   
  Ulf Ekstrom                                   : XCFun DFT Library      
  Mihaly Kallay                                 : mrcc  (arbitrary order and MRCC methods)
  Frank Weinhold                                : gennbo (NPA and NBO analysis)           
  Simon Mueller                                 : openCOSMO-RS                            
  Christopher J. Cramer and Donald G. Truhlar   : smd solvation model                     
  S Lehtola, MJT Oliveira, MAL Marques          : LibXC Library                           
  Liviu Ungur et al                             : ANISO software                          


 Your calculation uses the libint2 library for the computation of 2-el integrals
 For citations please refer to: http://libint.valeyev.net

 Your ORCA version has been built with support for libXC version: 7.0.0
 For citations please refer to: https://libxc.gitlab.io

 This ORCA versions uses:
   CBLAS   interface :  Fast vector & matrix operations
   LAPACKE interface :  Fast linear algebra routines
   SCALAPACK package :  Parallel linear algebra routines
   Shared memory     :  Shared parallel matrices
   BLAS/LAPACK       :  OpenBLAS 0.3.29  USE64BITINT DYNAMIC_ARCH NO_AFFINITY Cooperlake SINGLE_THREADED
        Core in use  :  Cooperlake
   Copyright (c) 2011-2014, The OpenBLAS Project


  ***********************************
  * Starting time: Wed May 20 12:37:04 2026
  * Host name:     c1-40
  * Process ID:    668407
  * Working dir.:  /cluster/projects/nn14654k/ylvaos/basis_set_n_funcs/functionals/pw91/LiS/out
  ***********************************

Using LibXC functional ID 109 : Perdew & Wang 91
[ 1]  J. P. Perdew. In P. Ziesche and H. Eschrig, editors, Proceedings of the 75. WE-Heraeus-Seminar and 21st Annual International Symposium on Electronic Structure of Solids, 11. Berlin, 1991. Akademie Verlag.
[ 2]  J. P. Perdew, J. A. Chevary, S. H. Vosko, K. A. Jackson, M. R. Pederson, D. J. Singh, and C. Fiolhais.,  Phys. Rev. B 46, 6671 (1992)
[ 3]  J. P. Perdew, J. A. Chevary, S. H. Vosko, K. A. Jackson, M. R. Pederson, D. J. Singh, and C. Fiolhais.,  Phys. Rev. B 48, 4978 (1993)
Using LibXC functional ID 134 : Perdew & Wang 91
[ 1]  J. P. Perdew. In P. Ziesche and H. Eschrig, editors, Proceedings of the 75. WE-Heraeus-Seminar and 21st Annual International Symposium on Electronic Structure of Solids, 11. Berlin, 1991. Akademie Verlag.
[ 2]  J. P. Perdew, J. A. Chevary, S. H. Vosko, K. A. Jackson, M. R. Pederson, D. J. Singh, and C. Fiolhais.,  Phys. Rev. B 46, 6671 (1992)
[ 3]  J. P. Perdew, J. A. Chevary, S. H. Vosko, K. A. Jackson, M. R. Pederson, D. J. Singh, and C. Fiolhais.,  Phys. Rev. B 48, 4978 (1993)
Using LibXC functional ID 109 : Perdew & Wang 91
[ 1]  J. P. Perdew. In P. Ziesche and H. Eschrig, editors, Proceedings of the 75. WE-Heraeus-Seminar and 21st Annual International Symposium on Electronic Structure of Solids, 11. Berlin, 1991. Akademie Verlag.
[ 2]  J. P. Perdew, J. A. Chevary, S. H. Vosko, K. A. Jackson, M. R. Pederson, D. J. Singh, and C. Fiolhais.,  Phys. Rev. B 46, 6671 (1992)
[ 3]  J. P. Perdew, J. A. Chevary, S. H. Vosko, K. A. Jackson, M. R. Pederson, D. J. Singh, and C. Fiolhais.,  Phys. Rev. B 48, 4978 (1993)
Using LibXC functional ID 134 : Perdew & Wang 91
[ 1]  J. P. Perdew. In P. Ziesche and H. Eschrig, editors, Proceedings of the 75. WE-Heraeus-Seminar and 21st Annual International Symposium on Electronic Structure of Solids, 11. Berlin, 1991. Akademie Verlag.
[ 2]  J. P. Perdew, J. A. Chevary, S. H. Vosko, K. A. Jackson, M. R. Pederson, D. J. Singh, and C. Fiolhais.,  Phys. Rev. B 46, 6671 (1992)
[ 3]  J. P. Perdew, J. A. Chevary, S. H. Vosko, K. A. Jackson, M. R. Pederson, D. J. Singh, and C. Fiolhais.,  Phys. Rev. B 48, 4978 (1993)
Your calculation utilizes LibXC
by S. Lehtola, C. Steigemann, M. J. T. Oliveira & M. A. L. Marques
Please cite in your paper:
Lehtola, S.; Steigemann, C.; Oliveira, M.J.T.; Marques, M. A. L. Software X, 7, (2018), 1.
   

================================================================================

----- Orbital basis set information -----
Your calculation utilizes the basis: pcseg-4
   F. Jensen, J. Chem. Theory Comput. 10, 1074 (2014).

================================================================================
                                        WARNINGS
                       Please study these warnings very carefully!
================================================================================


WARNING: The basis set has functions with high angular momentum (Lmax>4).
         We might need to increase small grids for safety reasons and
         in general, DEFGRID3 is recommend for such cases.
  ===> : GRIDX1, TD-DFT and the CP-SCF AngGrids will be increased to at least 2


WARNING: your system is open-shell and RHF/RKS was chosen
  ===> : WILL SWITCH to UHF/UKS


================================================================================
                                       INPUT FILE
================================================================================
NAME = /cluster/projects/nn14654k/ylvaos/basis_set_n_funcs/functionals/pw91/LiS/inp/LiS_pw91_pcseg4.inp
|  1> ! dft pcseg-4 TightSCF
|  2> %pal nprocs 8 end
|  3> 
|  4> %loc
|  5>   LocMet NewBoys
|  6>   Occ true
|  7> end
|  8> 
|  9> %method
| 10>   exchange gga_x_pw91
| 11>   correlation gga_c_pw91
| 12> end
| 13> 
| 14> %elprop
| 15>   Dipole true
| 16>   Quadrupole true
| 17> end
| 18> 
| 19> * xyz 0 2
| 20> Li    0.000000000000   0.000000000000  -1.074850000000
| 21> S    0.000000000000   0.000000000000   1.074850000000
| 22> *
| 23> 
| 24> 
| 25>                          ****END OF INPUT****
================================================================================

                       ****************************
                       * Single Point Calculation *
                       ****************************

---------------------------------
CARTESIAN COORDINATES (ANGSTROEM)
---------------------------------
  Li     0.000000    0.000000   -1.074850
  S      0.000000    0.000000    1.074850

----------------------------
CARTESIAN COORDINATES (A.U.)
----------------------------
  NO LB      ZA    FRAG     MASS         X           Y           Z
   0 Li    3.0000    0     6.941    0.000000    0.000000   -2.031172
   1 S    16.0000    0    32.060    0.000000    0.000000    2.031172

--------------------------------
INTERNAL COORDINATES (ANGSTROEM)
--------------------------------
 Li     0   0   0     0.000000000000     0.00000000     0.00000000
 S      1   0   0     2.149700000000     0.00000000     0.00000000

---------------------------
INTERNAL COORDINATES (A.U.)
---------------------------
 Li     0   0   0     0.000000000000     0.00000000     0.00000000
 S      1   0   0     4.062344270091     0.00000000     0.00000000

---------------------
BASIS SET INFORMATION
---------------------
There are 2 groups of distinct atoms

 Group   1 Type Li  : 20s8p3d2f1g contracted to 6s4p3d2f1g pattern {1241111/5111/111/11/1}
 Group   2 Type S   : 25s17p6d3f2g1h contracted to 7s6p6d3f2g1h pattern {14521111/1121111/111111/111/11/1}

Atom   0Li   basis set group =>   1
Atom   1S    basis set group =>   2


           ************************************************************
           *        Program running with 8 parallel MPI-processes     *
           *              working on a common directory               *
           ************************************************************
------------------------------------------------------------------------------
                             ORCA STARTUP CALCULATIONS
------------------------------------------------------------------------------
------------------------------------------------------------------------------
                   ___                                                        
                  /   \      - P O W E R E D   B Y -                         
                 /     \                                                     
                 |  |  |   _    _      __       _____    __    __             
                 |  |  |  | |  | |    /  \     |  _  \  |  |  /  |          
                  \  \/   | |  | |   /    \    | | | |  |  | /  /          
                 / \  \   | |__| |  /  /\  \   | |_| |  |  |/  /          
                |  |  |   |  __  | /  /__\  \  |    /   |      \           
                |  |  |   | |  | | |   __   |  |    \   |  |\   \          
                \     /   | |  | | |  |  |  |  | |\  \  |  | \   \       
                 \___/    |_|  |_| |__|  |__|  |_| \__\ |__|  \__/        
                                                                              
                      - O R C A' S   B I G   F R I E N D -                    
                                      &                                       
                       - I N T E G R A L  F E E D E R -                       
                                                                              
 v1 FN, 2020, v2 2021, v3 2022-2024                                           
------------------------------------------------------------------------------


----------------------
SHARK INTEGRAL PACKAGE
----------------------

Number of atoms                             ...      2
Number of basis functions                   ...    161
Number of shells                            ...     41
Maximum angular momentum                    ...      5
Integral batch strategy                     ... SHARK/LIBINT Hybrid
RI-J (if used) integral strategy            ... SPLIT-RIJ (Revised 2003 algorithm where possible)
Printlevel                                  ...      1
Contraction scheme used                     ... SEGMENTED contraction
Prescreening option                         ... SCHWARTZ
   Thresh                                   ... 2.500e-11
   Tcut                                     ... 2.500e-12
   Tpresel                                  ... 2.500e-12 
Coulomb Range Separation                    ... NOT USED
Exchange Range Separation                   ... NOT USED
Multipole approximations                    ... NOT USED
Finite Nucleus Model                        ... NOT USED
CABS basis                                  ... NOT available
Auxiliary Coulomb fitting basis             ... NOT available
Auxiliary J/K fitting basis                 ... NOT available
Auxiliary Correlation fitting basis         ... NOT available
Auxiliary 'external' fitting basis          ... NOT available

Checking pre-screening integrals            ... done (  0.0 sec) Dimension = 41
   => SHARK Basis and OBASIS are compatible. Storing Pre-screening
Shell pair information
Shell pair cut-off parameter TPreSel        ...   2.5e-12
Total number of shell pairs                 ...       861
Shell pairs after pre-screening             ...       861
Total number of primitive shell pairs       ...      4156
Primitive shell pairs kept                  ...      3587
          la=0 lb=0:     91 shell pairs
          la=1 lb=0:    130 shell pairs
          la=1 lb=1:     55 shell pairs
          la=2 lb=0:    117 shell pairs
          la=2 lb=1:     90 shell pairs
          la=2 lb=2:     45 shell pairs
          la=3 lb=0:     65 shell pairs
          la=3 lb=1:     50 shell pairs
          la=3 lb=2:     45 shell pairs
          la=3 lb=3:     15 shell pairs
          la=4 lb=0:     39 shell pairs
          la=4 lb=1:     30 shell pairs
          la=4 lb=2:     27 shell pairs
          la=4 lb=3:     15 shell pairs
          la=4 lb=4:      6 shell pairs
          la=5 lb=0:     13 shell pairs
          la=5 lb=1:     10 shell pairs
          la=5 lb=2:      9 shell pairs
          la=5 lb=3:      5 shell pairs
          la=5 lb=4:      3 shell pairs
          la=5 lb=5:      1 shell pairs

Checking whether 4 symmetric matrices of dimension 161 fit in memory
:Max Core in MB      =   4096.00
 MB in use           =      7.18
 MB left             =   4088.82
 MB needed           =      0.40
 Data fit in memory  = YES
Calculating Nuclear repulsion               ... done (  0.0 sec) ENN=     11.815837557985 Eh

Diagonalization of the overlap matrix:
Smallest eigenvalue                        ... 1.686e-04
Time for diagonalization                   ...    0.002 sec
Threshold for overlap eigenvalues          ... 1.000e-07
Number of eigenvalues below threshold      ... 0
Time for construction of square roots      ...    0.002 sec
Total time needed                          ...    0.006 sec

-------------------
DFT GRID GENERATION
-------------------

General Integration Accuracy     IntAcc      ... 4.388
Radial Grid Type                 RadialGrid  ... OptM3 with GC (2021)
Angular Grid (max. ang.)         AngularGrid ... 4 (Lebedev-302)
Angular grid pruning method      GridPruning ... 4 (adaptive)
Weight generation scheme         WeightScheme... mBecke (2022)
Basis function cutoff            BFCut       ... 1.0000e-11
Integration weight cutoff        WCut        ... 1.0000e-14
Partially contracted basis set               ... off
Rotationally invariant grid construction     ... off
Angular grids for H and He will be reduced by one unit
Core-polarized basis detected: some atoms will have their core
                               angular grid increased.

Total number of grid points                  ...    15754
Total number of batches                      ...      248
Average number of points per batch           ...       63
Average number of grid points per atom       ...     7877
Grids setup in   0.1 sec
Initializing property integral containers    ... done (  0.0 sec)

SHARK setup successfully completed in   0.2 seconds

Maximum memory used throughout the entire STARTUP-calculation: 84.6 MB


           ************************************************************
           *        Program running with 8 parallel MPI-processes     *
           *              working on a common directory               *
           ************************************************************
-------------------------------------------------------------------------------
                                 ORCA GUESS
                   Start orbitals & Density for SCF / CASSCF
-------------------------------------------------------------------------------

------------
SCF SETTINGS
------------
Hamiltonian:
 Density Functional     Method          .... DFT(GTOs)
  Functional kind                       .... Exchange
  Functional name                       .... Perdew & Wang 91
  Functional family                     .... GGA
  Functional refs                              
    [ 0] J. P. Perdew. In P. Ziesche and H. Eschrig, editors, Proceedings of the 75. WE-Heraeus-Seminar and 21st Annual International Symposium on Electronic Structure of Solids, 11. Berlin, 1991. Akademie Verlag.
    [ 1] J. P. Perdew, J. A. Chevary, S. H. Vosko, K. A. Jackson, M. R. Pederson, D. J. Singh, and C. Fiolhais.,  Phys. Rev. B 46, 6671 (1992), doi: 10.1103/PhysRevB.46.6671
    [ 2] J. P. Perdew, J. A. Chevary, S. H. Vosko, K. A. Jackson, M. R. Pederson, D. J. Singh, and C. Fiolhais.,  Phys. Rev. B 48, 4978 (1993), doi: 10.1103/PhysRevB.48.4978.2
  Functional external parameters        .... 7
    Parameter  0 _a         =  1.964500e-01 : a parameter         
    Parameter  1 _b         =  7.795600e+00 : b parameter         
    Parameter  2 _c         =  2.743000e-01 : c parameter         
    Parameter  3 _d         = -1.508000e-01 : d parameter         
    Parameter  4 _f         =  4.000000e-03 : f parameter         
    Parameter  5 _alpha     =  1.000000e+02 : alpha parameter     
    Parameter  6 _expo      =  4.000000e+00 : exponent            
  Functional kind                       .... Correlation
  Functional name                       .... Perdew & Wang 91
  Functional family                     .... GGA
  Functional refs                              
    [ 0] J. P. Perdew. In P. Ziesche and H. Eschrig, editors, Proceedings of the 75. WE-Heraeus-Seminar and 21st Annual International Symposium on Electronic Structure of Solids, 11. Berlin, 1991. Akademie Verlag.
    [ 1] J. P. Perdew, J. A. Chevary, S. H. Vosko, K. A. Jackson, M. R. Pederson, D. J. Singh, and C. Fiolhais.,  Phys. Rev. B 46, 6671 (1992), doi: 10.1103/PhysRevB.46.6671
    [ 2] J. P. Perdew, J. A. Chevary, S. H. Vosko, K. A. Jackson, M. R. Pederson, D. J. Singh, and C. Fiolhais.,  Phys. Rev. B 48, 4978 (1993), doi: 10.1103/PhysRevB.48.4978.2
  Functional external parameters        .... 0
 Gradients option       PostSCFGGA      .... off


General Settings:
 Integral files         IntName         .... /cluster/projects/nn14654k/ylvaos/basis_set_n_funcs/functionals/pw91/LiS/inp/LiS_pw91_pcseg4
 Hartree-Fock type      HFTyp           .... UHF
 Total Charge           Charge          ....    0
 Multiplicity           Mult            ....    2
 Number of Electrons    NEL             ....   19
 Basis Dimension        Dim             ....  161
 Nuclear Repulsion      ENuc            ....     11.8158375580 Eh

Convergence Acceleration:
 AO-DIIS                CNVDIIS         .... on
   Start iteration      DIISMaxIt       ....    12
   Startup error        DIISStart       ....  0.200000
   # of expansion vecs  DIISMaxEq       ....     5
   Bias factor          DIISBfac        ....   1.050
   Max. coefficient     DIISMaxC        ....  10.000
 MO-DIIS                CNVKDIIS        .... off
 Trust-Rad. Augm. Hess. CNVTRAH         .... auto
   Auto Start mean grad. ratio tolernc. ....  1.125000
   Auto Start start iteration           ....    50
   Auto Start num. interpolation iter.  ....    10
   Max. Number of Micro iterations      ....    24
   Max. Number of Macro iterations      .... Maxiter - #DIIS iter
   Number of Davidson start vectors     ....     2
   Converg. threshold    (grad. norm)   ....   1.000e-05
   Grad. Scal. Fac. for Micro threshold ....   0.100
   Minimum threshold for Micro iter.    ....   1.000e-02
   NR start threshold (gradient norm)   ....   1.000e-04
   Initial trust radius                 ....   0.400
   Minimum AH scaling param. (alpha)    ....   1.000
   Maximum AH scaling param. (alpha)    .... 1000.000
   Quad. conv. algorithm                .... NR
   White noise on init. David. guess    .... on
   Maximum white noise                  ....   0.010
   Pseudo random numbers                .... off
   Inactive MOs                         .... canonical
   Orbital update algorithm             .... Taylor
   Preconditioner                       .... Diag
   Full preconditioner red. dimension   ....   250
 SOSCF                 CNVSOSCF           .... on
   Start iteration     SOSCFMaxIt         ....   150
   Startup grad/error  SOSCFStart         ....  0.003300
   Hessian update      SOSCFHessUp        .... L-BFGS
   Autom. constraints  SOSCFAutoConstrain .... off
 Level Shifting         CNVShift        .... on
   Level shift para.    LevelShift      ....    0.2500
   Turn off err/grad.   ShiftErr        ....    0.0010
 Zerner damping         CNVZerner       .... off
 Static damping         CNVDamp         .... on
   Fraction old density DampFac         ....    0.7000
   Max. Damping (<1)    DampMax         ....    0.9800
   Min. Damping (>=0)   DampMin         ....    0.0000
   Turn off err/grad.   DampErr         ....    0.1000

SCF Procedure:
 Maximum # iterations   MaxIter         ....   125
 SCF integral mode      SCFMode         .... Direct
   Integral package                     .... SHARK and LIBINT hybrid scheme
 Reset frequency        DirectResetFreq ....    20
 Integral Threshold     Thresh          ....  2.500e-11 Eh
 Primitive CutOff       TCut            ....  2.500e-12 Eh

Convergence Tolerance:
 Convergence Check Mode ConvCheckMode   .... Total+1el-Energy
 Convergence forced     ConvForced      .... 0
 Energy Change          TolE            ....  1.000e-08 Eh
 1-El. energy change                    ....  1.000e-05 Eh
 Orbital Gradient       TolG            ....  1.000e-05
 Orbital Rotation angle TolX            ....  1.000e-05
 DIIS Error             TolErr          ....  5.000e-07

------------------------------
INITIAL GUESS: MODEL POTENTIAL
------------------------------
Loading Hartree-Fock densities                     ... done
Calculating cut-offs                               ... done
Initializing the effective Hamiltonian             ... done
Setting up the integral package (SHARK)            ... done
Starting the Coulomb interaction                   ... done (   0.0 sec)
Making the grid                                    ... done (   0.0 sec)
Mapping shells                                     ... done
Starting the XC term evaluation                    ... done (   0.0 sec)
  promolecular density results
     # of electrons  =     18.999659776
     EX              =    -26.701291574
     EC              =     -0.722251267
     EX+EC           =    -27.423542841
Transforming the Hamiltonian                       ... done (   0.0 sec)
Diagonalizing the Hamiltonian                      ... done (   0.0 sec)
Back transforming the eigenvectors                 ... done (   0.0 sec)
Now organizing SCF variables                       ... done
                      ------------------
                      INITIAL GUESS DONE (   0.1 sec)
                      ------------------
             **** ENERGY FILE WAS UPDATED (/cluster/projects/nn14654k/ylvaos/basis_set_n_funcs/functionals/pw91/LiS/inp/LiS_pw91_pcseg4.en.tmp) ****
Finished Guess after   0.1 sec
Maximum memory used throughout the entire GUESS-calculation: 16.3 MB


           ************************************************************
           *        Program running with 8 parallel MPI-processes     *
           *              working on a common directory               *
           ************************************************************

-------------------------------------------------------------------------------------------
                                      ORCA LEAN-SCF
                              memory conserving SCF solver
-------------------------------------------------------------------------------------------

----------------------------------------D-I-I-S--------------------------------------------
Iteration    Energy (Eh)           Delta-E    RMSDP     MaxDP     DIISErr   Damp  Time(sec)
-------------------------------------------------------------------------------------------
               ***  Starting incremental Fock matrix formation  ***
    1    -405.6672032941633006     0.00e+00  1.35e-03  2.42e-02  5.90e-02  0.700   0.7
Warning: op=0 Small HOMO/LUMO gap (   0.058) - skipping pre-diagonalization
         Will do a full diagonalization
    2    -405.6849617898000133    -1.78e-02  1.11e-03  1.38e-02  3.40e-02  0.700   0.7
                               ***Turning on AO-DIIS***
    3    -405.6932162774683661    -8.25e-03  5.07e-04  5.88e-03  1.19e-02  0.700   0.8
    4    -405.6974055796330845    -4.19e-03  8.66e-04  1.00e-02  7.65e-03  0.000   0.7
    5    -405.7065430070688876    -9.14e-03  2.59e-04  2.78e-03  4.31e-03  0.000   0.6
                              *** Initializing SOSCF ***
---------------------------------------S-O-S-C-F--------------------------------------
Iteration    Energy (Eh)           Delta-E    RMSDP     MaxDP     MaxGrad    Time(sec)
--------------------------------------------------------------------------------------
    6    -405.7067628851904146    -2.20e-04  9.62e-05  9.97e-04  1.86e-03     0.7
               *** Restarting incremental Fock matrix formation ***
    7    -405.7068136899619049    -5.08e-05  8.11e-05  1.07e-03  8.24e-04     0.7
    8    -405.7068243622360342    -1.07e-05  4.71e-05  8.34e-04  5.57e-04     0.6
    9    -405.7068285072716094    -4.15e-06  1.81e-05  1.84e-04  1.83e-04     0.6
   10    -405.7068287221430296    -2.15e-07  6.16e-06  6.48e-05  5.73e-05     0.7
   11    -405.7068287599326482    -3.78e-08  2.40e-06  2.94e-05  2.55e-05     0.6
   12    -405.7068287644785869    -4.55e-09  6.17e-07  7.90e-06  1.19e-05     0.5
                 **** Energy Check signals convergence ****

               *****************************************************
               *                     SUCCESS                       *
               *           SCF CONVERGED AFTER  12 CYCLES          *
               *****************************************************

             **** ENERGY FILE WAS UPDATED (/cluster/projects/nn14654k/ylvaos/basis_set_n_funcs/functionals/pw91/LiS/inp/LiS_pw91_pcseg4.en.tmp) ****

----------------
TOTAL SCF ENERGY
----------------

Total Energy       :       -405.70682876485108 Eh          -11039.84407 eV

Components:
Nuclear Repulsion  :         11.81583755798484 Eh             321.52529 eV
Electronic Energy  :       -417.52266632283590 Eh          -11361.36935 eV
One Electron Energy:       -584.61481885445050 Eh          -15908.17798 eV
Two Electron Energy:        167.09215253161463 Eh            4546.80863 eV

Virial components:
Potential Energy   :       -810.93369725476691 Eh          -22066.62775 eV
Kinetic Energy     :        405.22686848991577 Eh           11026.78368 eV
Virial Ratio       :          2.00118442362108

DFT components:
N(Alpha)           :        9.999995135960 electrons
N(Beta)            :        8.999995283264 electrons
N(Total)           :       18.999990419224 electrons
E(X)               :      -26.822160057798 Eh       
E(C)               :       -0.730238081374 Eh       
E(XC)              :      -27.552398139171 Eh       

---------------
SCF CONVERGENCE
---------------

  Last Energy change         ...    4.5459e-09  Tolerance :   1.0000e-08
  Last MAX-Density change    ...    7.8991e-06  Tolerance :   1.0000e-07
  Last RMS-Density change    ...    6.1656e-07  Tolerance :   5.0000e-09
  Last DIIS Error            ...    1.8552e-03  Tolerance :   5.0000e-07
  Last Orbital Gradient      ...    1.1897e-05  Tolerance :   1.0000e-05
  Last Orbital Rotation      ...    2.0197e-05  Tolerance :   1.0000e-05


----------------------
UHF SPIN CONTAMINATION
----------------------

Warning: in a DFT calculation there is little theoretical justification to 
         calculate <S**2> as in Hartree-Fock theory. We will do it anyways
         but you should keep in mind that the values have only limited relevance

Expectation value of <S**2>     :     0.754093
Ideal value S*(S+1) for S=0.5   :     0.750000
Deviation                       :     0.004093

----------------
ORBITAL ENERGIES
----------------
                 SPIN UP ORBITALS
  NO   OCC          E(Eh)            E(eV) 
   0   1.0000     -88.015283     -2395.0176 
   1   1.0000      -7.616563      -207.2572 
   2   1.0000      -5.649555      -153.7322 
   3   1.0000      -5.633825      -153.3042 
   4   1.0000      -5.633254      -153.2886 
   5   1.0000      -1.900391       -51.7123 
   6   1.0000      -0.556531       -15.1440 
   7   1.0000      -0.220205        -5.9921 
   8   1.0000      -0.200608        -5.4588 
   9   1.0000      -0.178311        -4.8521 
  10   0.0000      -0.078197        -2.1279 
  11   0.0000      -0.017794        -0.4842 
  12   0.0000      -0.013427        -0.3654 
  13   0.0000       0.006384         0.1737 
  14   0.0000       0.025804         0.7022 
  15   0.0000       0.038774         1.0551 
  16   0.0000       0.041098         1.1183 
  17   0.0000       0.084554         2.3008 
  18   0.0000       0.098336         2.6759 
  19   0.0000       0.100548         2.7360 
  20   0.0000       0.109448         2.9782 

                 SPIN DOWN ORBITALS
  NO   OCC          E(Eh)            E(eV) 
   0   1.0000     -88.011044     -2394.9023 
   1   1.0000      -7.612031      -207.1339 
   2   1.0000      -5.636797      -153.3850 
   3   1.0000      -5.631200      -153.2327 
   4   1.0000      -5.630554      -153.2152 
   5   1.0000      -1.900467       -51.7143 
   6   1.0000      -0.521567       -14.1926 
   7   1.0000      -0.189040        -5.1440 
   8   1.0000      -0.167100        -4.5470 
   9   0.0000      -0.153466        -4.1760 
  10   0.0000      -0.078089        -2.1249 
  11   0.0000      -0.013340        -0.3630 
  12   0.0000      -0.010140        -0.2759 
  13   0.0000       0.011211         0.3051 
  14   0.0000       0.025765         0.7011 
  15   0.0000       0.040957         1.1145 
  16   0.0000       0.043587         1.1861 
  17   0.0000       0.086892         2.3645 
  18   0.0000       0.101432         2.7601 
  19   0.0000       0.111583         3.0363 
*Only the first 10 virtual orbitals were printed.

                    ********************************
                    * MULLIKEN POPULATION ANALYSIS *
                    ********************************

--------------------------------------------
MULLIKEN ATOMIC CHARGES AND SPIN POPULATIONS
--------------------------------------------
   0 Li:    0.568366    0.010780
   1 S :   -0.568366    0.989220
Sum of atomic charges         :    0.0000000
Sum of atomic spin populations:    1.0000000

-----------------------------------------------------
MULLIKEN REDUCED ORBITAL CHARGES AND SPIN POPULATIONS
-----------------------------------------------------
CHARGE
  0 Lis       :     2.130656  s :     2.130656
      pz      :     0.118701  p :     0.252715
      px      :     0.041618
      py      :     0.092395
      dz2     :     0.009322  d :     0.040696
      dxz     :     0.010806
      dyz     :     0.020543
      dx2y2   :     0.000012
      dxy     :     0.000014
      f0      :     0.000942  f :     0.007371
      f+1     :     0.002295
      f-1     :     0.004111
      f+2     :     0.000008
      f-2     :     0.000009
      f+3     :     0.000004
      f-3     :     0.000003
      g0      :     0.000031  g :     0.000196
      g+1     :     0.000065
      g-1     :     0.000098
      g+2     :     0.000001
      g-2     :     0.000001
      g+3     :     0.000000
      g-3     :     0.000000
      g+4     :     0.000000
      g-4     :     0.000000

  1 S s       :     5.963861  s :     5.963861
      pz      :     3.767437  p :    10.588852
      px      :     3.102865
      py      :     3.718551
      dz2     :     0.006634  d :     0.013786
      dxz     :     0.002412
      dyz     :     0.003601
      dx2y2   :     0.000526
      dxy     :     0.000613
      f0      :     0.000952  f :     0.001736
      f+1     :    -0.000003
      f-1     :     0.000147
      f+2     :     0.000078
      f-2     :     0.000091
      f+3     :     0.000245
      f-3     :     0.000226
      g0      :     0.000103  g :     0.000125
      g+1     :     0.000005
      g-1     :     0.000013
      g+2     :     0.000001
      g-2     :     0.000001
      g+3     :     0.000001
      g-3     :     0.000001
      g+4     :     0.000000
      g-4     :     0.000002
      h0      :     0.000005  h :     0.000006
      h+1     :     0.000000
      h-1     :     0.000000
      h+2     :     0.000000
      h-2     :     0.000000
      h+3     :     0.000000
      h-3     :     0.000000
      h+4     :     0.000000
      h-4     :     0.000000
      h+5     :     0.000000
      h-5     :     0.000000


SPIN
  0 Lis       :    -0.012875  s :    -0.012875
      pz      :    -0.005000  p :     0.014861
      px      :     0.023321
      py      :    -0.003460
      dz2     :     0.000173  d :     0.007023
      dxz     :     0.006874
      dyz     :    -0.000043
      dx2y2   :     0.000008
      dxy     :     0.000010
      f0      :     0.000076  f :     0.001695
      f+1     :     0.001525
      f-1     :     0.000077
      f+2     :     0.000005
      f-2     :     0.000006
      f+3     :     0.000003
      f-3     :     0.000003
      g0      :     0.000015  g :     0.000077
      g+1     :     0.000048
      g-1     :     0.000012
      g+2     :     0.000001
      g-2     :     0.000001
      g+3     :     0.000000
      g-3     :     0.000000
      g+4     :    -0.000000
      g-4     :    -0.000000

  1 S s       :     0.002253  s :     0.002253
      pz      :     0.014154  p :     0.983222
      px      :     0.805949
      py      :     0.163119
      dz2     :     0.000224  d :     0.003424
      dxz     :     0.001814
      dyz     :     0.000470
      dx2y2   :     0.000423
      dxy     :     0.000493
      f0      :    -0.000114  f :     0.000326
      f+1     :    -0.000053
      f-1     :    -0.000111
      f+2     :     0.000071
      f-2     :     0.000083
      f+3     :     0.000227
      f-3     :     0.000223
      g0      :    -0.000003  g :    -0.000004
      g+1     :     0.000002
      g-1     :    -0.000002
      g+2     :    -0.000000
      g-2     :    -0.000000
      g+3     :     0.000001
      g-3     :     0.000001
      g+4     :    -0.000000
      g-4     :    -0.000002
      h0      :     0.000000  h :    -0.000000
      h+1     :     0.000000
      h-1     :     0.000000
      h+2     :    -0.000000
      h-2     :    -0.000000
      h+3     :    -0.000000
      h-3     :    -0.000000
      h+4     :    -0.000000
      h-4     :    -0.000000
      h+5     :    -0.000000
      h-5     :    -0.000000



                     *******************************
                     * LOEWDIN POPULATION ANALYSIS *
                     *******************************

-------------------------------------------
LOEWDIN ATOMIC CHARGES AND SPIN POPULATIONS
-------------------------------------------
   0 Li:   -0.156197    0.111686
   1 S :    0.156197    0.888314

----------------------------------------------------
LOEWDIN REDUCED ORBITAL CHARGES AND SPIN POPULATIONS
----------------------------------------------------
CHARGE
  0 Lis       :     2.206660  s :     2.206660
      pz      :     0.318569  p :     0.531848
      px      :     0.071642
      py      :     0.141637
      dz2     :     0.144408  d :     0.280095
      dxz     :     0.052250
      dyz     :     0.083407
      dx2y2   :     0.000014
      dxy     :     0.000016
      f0      :     0.054320  f :     0.128817
      f+1     :     0.029860
      f-1     :     0.044600
      f+2     :     0.000013
      f-2     :     0.000015
      f+3     :     0.000004
      f-3     :     0.000003
      g0      :     0.004268  g :     0.008778
      g+1     :     0.001823
      g-1     :     0.002682
      g+2     :     0.000002
      g-2     :     0.000002
      g+3     :     0.000000
      g-3     :     0.000000
      g+4     :     0.000000
      g-4     :     0.000000

  1 S s       :     5.539236  s :     5.539236
      pz      :     3.712308  p :    10.283004
      px      :     3.004012
      py      :     3.566684
      dz2     :     0.015703  d :     0.017280
      dxz     :     0.000161
      dyz     :     0.000289
      dx2y2   :     0.000520
      dxy     :     0.000606
      f0      :     0.002745  f :     0.003809
      f+1     :     0.000291
      f-1     :     0.000138
      f+2     :     0.000076
      f-2     :     0.000089
      f+3     :     0.000245
      f-3     :     0.000225
      g0      :     0.000390  g :     0.000432
      g+1     :     0.000019
      g-1     :     0.000018
      g+2     :     0.000001
      g-2     :     0.000001
      g+3     :     0.000001
      g-3     :     0.000001
      g+4     :     0.000000
      g-4     :     0.000002
      h0      :     0.000035  h :     0.000042
      h+1     :     0.000003
      h-1     :     0.000003
      h+2     :     0.000000
      h-2     :     0.000000
      h+3     :     0.000000
      h-3     :     0.000000
      h+4     :     0.000000
      h-4     :     0.000000
      h+5     :     0.000000
      h-5     :     0.000000


SPIN
  0 Lis       :    -0.006988  s :    -0.006988
      pz      :    -0.002102  p :     0.043753
      px      :     0.044799
      py      :     0.001057
      dz2     :     0.000926  d :     0.045753
      dxz     :     0.037655
      dyz     :     0.007151
      dx2y2   :     0.000010
      dxy     :     0.000012
      f0      :     0.000478  f :     0.027550
      f+1     :     0.022168
      f-1     :     0.004877
      f+2     :     0.000009
      f-2     :     0.000011
      f+3     :     0.000003
      f-3     :     0.000003
      g0      :    -0.000055  g :     0.001617
      g+1     :     0.001368
      g-1     :     0.000300
      g+2     :     0.000002
      g-2     :     0.000002
      g+3     :     0.000000
      g-3     :     0.000000
      g+4     :    -0.000000
      g-4     :    -0.000000

  1 S s       :     0.003199  s :     0.003199
      pz      :     0.002711  p :     0.882359
      px      :     0.733081
      py      :     0.146567
      dz2     :     0.000573  d :     0.001578
      dxz     :     0.000105
      dyz     :    -0.000004
      dx2y2   :     0.000417
      dxy     :     0.000487
      f0      :     0.000162  f :     0.001154
      f+1     :     0.000285
      f-1     :     0.000109
      f+2     :     0.000069
      f-2     :     0.000080
      f+3     :     0.000226
      f-3     :     0.000223
      g0      :     0.000001  g :     0.000023
      g+1     :     0.000017
      g-1     :     0.000006
      g+2     :    -0.000000
      g-2     :    -0.000000
      g+3     :     0.000000
      g-3     :     0.000000
      g+4     :    -0.000000
      g-4     :    -0.000002
      h0      :    -0.000001  h :     0.000001
      h+1     :     0.000002
      h-1     :     0.000001
      h+2     :    -0.000000
      h-2     :    -0.000000
      h+3     :    -0.000000
      h-3     :    -0.000000
      h+4     :    -0.000000
      h-4     :    -0.000000
      h+5     :    -0.000000
      h-5     :    -0.000000



                      *****************************
                      * MAYER POPULATION ANALYSIS *
                      *****************************

  NA   - Mulliken gross atomic population
  ZA   - Total nuclear charge
  QA   - Mulliken gross atomic charge
  VA   - Mayer's total valence
  BVA  - Mayer's bonded valence
  FA   - Mayer's free valence

  ATOM       NA         ZA         QA         VA         BVA        FA
  0 Li     2.4316     3.0000     0.5684     0.7899     0.7878     0.0021
  1 S     16.5684    16.0000    -0.5684     1.7162     0.7878     0.9285

  Mayer bond orders larger than 0.100000
B(  0-Li,  1-S ) :   0.7878 

-------
TIMINGS
-------

Total SCF time: 0 days 0 hours 0 min 8 sec 

Total time                  ....       8.839 sec
Sum of individual times     ....       8.198 sec  ( 92.7%)

SCF preparation             ....       0.093 sec  (  1.1%)
Fock matrix formation       ....       7.410 sec  ( 83.8%)
  Startup                   ....       0.019 sec  (  0.3% of F)
  Coulomb formation         ....       6.890 sec  ( 93.0% of F)
  XC integration            ....       0.619 sec  (  8.3% of F)
    XC Preparation          ....       0.000 sec  (  0.0% of XC)
    Basis function eval.    ....       0.039 sec  (  6.2% of XC)
    Density eval.           ....       0.057 sec  (  9.1% of XC)
    XC-Functional eval.     ....       0.022 sec  (  3.6% of XC)
    XC-Potential eval.      ....       0.160 sec  ( 25.8% of XC)
Diagonalization             ....       0.000 sec  (  0.0%)
Density matrix formation    ....       0.152 sec  (  1.7%)
Total Energy calculation    ....       0.032 sec  (  0.4%)
Population analysis         ....       0.025 sec  (  0.3%)
Orbital Transformation      ....       0.139 sec  (  1.6%)
Orbital Orthonormalization  ....       0.000 sec  (  0.0%)
DIIS solution               ....       0.225 sec  (  2.5%)
SOSCF solution              ....       0.122 sec  (  1.4%)
Finished LeanSCF after   8.9 sec

Maximum memory used throughout the entire LEANSCF-calculation: 82.7 MB


           ************************************************************
           *        Program running with 8 parallel MPI-processes     *
           *              working on a common directory               *
           ************************************************************

------------------------------------------------------------------------------
                         ORCA PROPERTY INTEGRAL CALCULATIONS
------------------------------------------------------------------------------

GBWName                                   ... /cluster/projects/nn14654k/ylvaos/basis_set_n_funcs/functionals/pw91/LiS/inp/LiS_pw91_pcseg4.gbw
Number of atoms                           ...      2
Number of basis functions                 ...    161
Max core memory                           ...   4096 MB

Dipole integrals                          ... YES
Quadrupole integrals                      ... YES
Linear momentum integrals                 ...  NO
Angular momentum integrals                ...  NO
Higher moments length integrals           ...  NO
Higher moments velocity integrals         ...  NO
Kinetic energy integrals                  ...  NO
GIAO right hand sides                     ...  NO
GIAO dipole derivative integrals          ...  NO
SOC integrals                             ...  NO
EPR diamagnetic integrals (GIAO)          ...  NO
EPR gauge integrals                       ...  NO
Field gradient integrals                  ...  NO (   0 nuclei)
Spin-dipole/Fermi contact integrals       ...  NO (   0 nuclei)
Contact density integrals                 ...  NO (   0 nuclei)
Nucleus-orbit integrals                   ...  NO (   0 nuclei)
Geometric perturbations                   ...  NO (   2 nuclei)

Choice of electric origin   ... Center of mass
Position of electric origin ... (  0.0000,  0.0000,  1.3082) 
Choice of magnetic origin   ... GIAO
Position of magnetic origin ... (  0.0000,  0.0000,  0.0000) 

Calculating integrals                     ... Electric Dipole (Length)     done (  0.0 sec)
Calculating integrals                     ... Electric Quadrupole (Length) done (  0.0 sec)

Property integrals calculated in   0.0 sec

Maximum memory used throughout the entire PROPINT-calculation: 17.1 MB
------------------------------------------------------------------------------
                           ORCA ORBITAL LOCALIZATION
------------------------------------------------------------------------------

Input orbitals are from                  ... /cluster/projects/nn14654k/ylvaos/basis_set_n_funcs/functionals/pw91/LiS/inp/LiS_pw91_pcseg4.gbw
Output orbitals are to                   ... /cluster/projects/nn14654k/ylvaos/basis_set_n_funcs/functionals/pw91/LiS/inp/LiS_pw91_pcseg4.loc
Max. number of iterations                ... 128
Localizations seeded randomly            ... on
Convergence tolerance                    ... 1.000e-06
Threshold for strong local MOs           ... 9.500e-01
Threshold for bond MOs                   ... 8.500e-01
Operator                                 ... 0
Orbital range for localization           ... 5 to 9
Localization criterion                   ... NEW-BOYS
Doing the dipole integrals               ... o.k.
Initial value of the localization sum :    12.438255
ITERATION   0 : L=   15.5533551816 DL=  3.12e+00 (AVERGE_DL)=    0.5581308237 
ITERATION   1 : L=   15.7431185152 DL=  1.90e-01 (AVERGE_DL)=    0.1377546129 
ITERATION   2 : L=   15.7832085868 DL=  4.01e-02 (AVERGE_DL)=    0.0633167210 
ITERATION   3 : L=   15.8183018317 DL=  3.51e-02 (AVERGE_DL)=    0.0592395517 
ITERATION   4 : L=   15.8368445769 DL=  1.85e-02 (AVERGE_DL)=    0.0430612880 
ITERATION   5 : L=   15.8476059322 DL=  1.08e-02 (AVERGE_DL)=    0.0328045047 
ITERATION   6 : L=   15.8531652670 DL=  5.56e-03 (AVERGE_DL)=    0.0235782417 
ITERATION   7 : L=   15.8561345379 DL=  2.97e-03 (AVERGE_DL)=    0.0172315724 
ITERATION   8 : L=   15.8577922062 DL=  1.66e-03 (AVERGE_DL)=    0.0128750468 
ITERATION   9 : L=   15.8588073725 DL=  1.02e-03 (AVERGE_DL)=    0.0100755460 
ITERATION  10 : L=   15.8594960071 DL=  6.89e-04 (AVERGE_DL)=    0.0082984014 
ITERATION  11 : L=   15.8600076072 DL=  5.12e-04 (AVERGE_DL)=    0.0071526225 
ITERATION  12 : L=   15.8604128187 DL=  4.05e-04 (AVERGE_DL)=    0.0063656223 
ITERATION  13 : L=   15.8607463777 DL=  3.34e-04 (AVERGE_DL)=    0.0057754570 
ITERATION  14 : L=   15.8610267106 DL=  2.80e-04 (AVERGE_DL)=    0.0052946474 
ITERATION  15 : L=   15.8612647782 DL=  2.38e-04 (AVERGE_DL)=    0.0048792170 
ITERATION  16 : L=   15.8614679744 DL=  2.03e-04 (AVERGE_DL)=    0.0045077285 
ITERATION  17 : L=   15.8616418386 DL=  1.74e-04 (AVERGE_DL)=    0.0041697031 
ITERATION  18 : L=   15.8617908084 DL=  1.49e-04 (AVERGE_DL)=    0.0038596601 
ITERATION  19 : L=   15.8619185678 DL=  1.28e-04 (AVERGE_DL)=    0.0035743447 
ITERATION  20 : L=   15.8620282247 DL=  1.10e-04 (AVERGE_DL)=    0.0033114486 
ITERATION  21 : L=   15.8621224191 DL=  9.42e-05 (AVERGE_DL)=    0.0030691106 
ITERATION  22 : L=   15.8622033962 DL=  8.10e-05 (AVERGE_DL)=    0.0028456473 
ITERATION  23 : L=   15.8622730673 DL=  6.97e-05 (AVERGE_DL)=    0.0026395294 
ITERATION  24 : L=   15.8623330603 DL=  6.00e-05 (AVERGE_DL)=    0.0024493452 
ITERATION  25 : L=   15.8623847599 DL=  5.17e-05 (AVERGE_DL)=    0.0022737552 
ITERATION  26 : L=   15.8624293468 DL=  4.46e-05 (AVERGE_DL)=    0.0021115626 
ITERATION  27 : L=   15.8624678278 DL=  3.85e-05 (AVERGE_DL)=    0.0019616573 
ITERATION  28 : L=   15.8625010618 DL=  3.32e-05 (AVERGE_DL)=    0.0018230192 
ITERATION  29 : L=   15.8625297827 DL=  2.87e-05 (AVERGE_DL)=    0.0016947244 
ITERATION  30 : L=   15.8625546187 DL=  2.48e-05 (AVERGE_DL)=    0.0015759435 
ITERATION  31 : L=   15.8625761073 DL=  2.15e-05 (AVERGE_DL)=    0.0014658983 
ITERATION  32 : L=   15.8625947096 DL=  1.86e-05 (AVERGE_DL)=    0.0013639036 
ITERATION  33 : L=   15.8626108214 DL=  1.61e-05 (AVERGE_DL)=    0.0012693222 
ITERATION  34 : L=   15.8626247829 DL=  1.40e-05 (AVERGE_DL)=    0.0011815872 
ITERATION  35 : L=   15.8626368862 DL=  1.21e-05 (AVERGE_DL)=    0.0011001498 
ITERATION  36 : L=   15.8626473831 DL=  1.05e-05 (AVERGE_DL)=    0.0010245423 
ITERATION  37 : L=   15.8626564902 DL=  9.11e-06 (AVERGE_DL)=    0.0009543140 
ITERATION  38 : L=   15.8626643945 DL=  7.90e-06 (AVERGE_DL)=    0.0008890636 
ITERATION  39 : L=   15.8626712573 DL=  6.86e-06 (AVERGE_DL)=    0.0008284152 
ITERATION  40 : L=   15.8626772175 DL=  5.96e-06 (AVERGE_DL)=    0.0007720258 
ITERATION  41 : L=   15.8626823956 DL=  5.18e-06 (AVERGE_DL)=    0.0007195914 
ITERATION  42 : L=   15.8626868952 DL=  4.50e-06 (AVERGE_DL)=    0.0006707923 
ITERATION  43 : L=   15.8626908063 DL=  3.91e-06 (AVERGE_DL)=    0.0006253852 
ITERATION  44 : L=   15.8626942065 DL=  3.40e-06 (AVERGE_DL)=    0.0005831155 
ITERATION  45 : L=   15.8626971633 DL=  2.96e-06 (AVERGE_DL)=    0.0005437563 
ITERATION  46 : L=   15.8626997348 DL=  2.57e-06 (AVERGE_DL)=    0.0005071082 
ITERATION  47 : L=   15.8627019719 DL=  2.24e-06 (AVERGE_DL)=    0.0004729717 
ITERATION  48 : L=   15.8627039178 DL=  1.95e-06 (AVERGE_DL)=    0.0004411283 
ITERATION  49 : L=   15.8627056109 DL=  1.69e-06 (AVERGE_DL)=    0.0004114660 
ITERATION  50 : L=   15.8627070840 DL=  1.47e-06 (AVERGE_DL)=    0.0003838125 
ITERATION  51 : L=   15.8627083658 DL=  1.28e-06 (AVERGE_DL)=    0.0003580270 
ITERATION  52 : L=   15.8627094812 DL=  1.12e-06 (AVERGE_DL)=    0.0003339790 
ITERATION  53 : L=   15.8627104519 DL=  9.71e-07 (AVERGE_DL)=    0.0003115616 
LOCALIZATION SUM CONVERGED


--------------------------------------------------------------------------------
                    LOCALIZED MOLECULAR ORBITAL COMPOSITIONS
--------------------------------------------------------------------------------

The Mulliken populations for each LMO on each atom are computed
The LMO`s will be ordered according to atom index and type
  (A) Strongly localized MO`s have populations of >=0.950 on one atom
  (B) Two center bond orbitals have populations of >=0.850 on two atoms
  (C) Other MO`s are considered to be `delocalized`

FOUND  -   3 strongly local MO`s
       -   2 two center bond MO`s
       -   0 significantly delocalized MO`s

Rather strongly localized orbitals:
MO   7:   1S  -   0.960942
MO   6:   1S  -   0.977302
MO   5:   0Li -   0.999752
Bond-like localized orbitals:
MO   9:   1S  -   0.920245  and   0Li -   0.079755
MO   8:   1S  -   0.920052  and   0Li -   0.079948
Localized MO's were stored in: /cluster/projects/nn14654k/ylvaos/basis_set_n_funcs/functionals/pw91/LiS/inp/LiS_pw91_pcseg4.loc
------------------------------------------------------------------------------
                           ORCA ORBITAL LOCALIZATION
------------------------------------------------------------------------------

Input orbitals are from                  ... /cluster/projects/nn14654k/ylvaos/basis_set_n_funcs/functionals/pw91/LiS/inp/LiS_pw91_pcseg4.loc
Output orbitals are to                   ... /cluster/projects/nn14654k/ylvaos/basis_set_n_funcs/functionals/pw91/LiS/inp/LiS_pw91_pcseg4.loc
Max. number of iterations                ... 128
Localizations seeded randomly            ... on
Convergence tolerance                    ... 1.000e-06
Threshold for strong local MOs           ... 9.500e-01
Threshold for bond MOs                   ... 8.500e-01
Operator                                 ... 1
Orbital range for localization           ... 5 to 8
Localization criterion                   ... NEW-BOYS
Doing the dipole integrals               ... o.k.
Initial value of the localization sum :    12.054636
ITERATION   0 : L=   14.8994414890 DL=  2.84e+00 (AVERGE_DL)=    0.6885740984 
ITERATION   1 : L=   14.9516525870 DL=  5.22e-02 (AVERGE_DL)=    0.0932837053 
ITERATION   2 : L=   14.9636278945 DL=  1.20e-02 (AVERGE_DL)=    0.0446753242 
ITERATION   3 : L=   14.9852556892 DL=  2.16e-02 (AVERGE_DL)=    0.0600385914 
ITERATION   4 : L=   15.0328963169 DL=  4.76e-02 (AVERGE_DL)=    0.0891072646 
ITERATION   5 : L=   15.1129783543 DL=  8.01e-02 (AVERGE_DL)=    0.1155292441 
ITERATION   6 : L=   15.2043565759 DL=  9.14e-02 (AVERGE_DL)=    0.1234086852 
ITERATION   7 : L=   15.2736128268 DL=  6.93e-02 (AVERGE_DL)=    0.1074369978 
ITERATION   8 : L=   15.3128024516 DL=  3.92e-02 (AVERGE_DL)=    0.0808183403 
ITERATION   9 : L=   15.3318406118 DL=  1.90e-02 (AVERGE_DL)=    0.0563296254 
ITERATION  10 : L=   15.3405091599 DL=  8.67e-03 (AVERGE_DL)=    0.0380099726 
ITERATION  11 : L=   15.3443634280 DL=  3.85e-03 (AVERGE_DL)=    0.0253451774 
ITERATION  12 : L=   15.3460649377 DL=  1.70e-03 (AVERGE_DL)=    0.0168399807 
ITERATION  13 : L=   15.3468153155 DL=  7.50e-04 (AVERGE_DL)=    0.0111831557 
ITERATION  14 : L=   15.3471465367 DL=  3.31e-04 (AVERGE_DL)=    0.0074299083 
ITERATION  15 : L=   15.3472929284 DL=  1.46e-04 (AVERGE_DL)=    0.0049394955 
ITERATION  16 : L=   15.3473577045 DL=  6.48e-05 (AVERGE_DL)=    0.0032857282 
ITERATION  17 : L=   15.3473863926 DL=  2.87e-05 (AVERGE_DL)=    0.0021866312 
ITERATION  18 : L=   15.3473991064 DL=  1.27e-05 (AVERGE_DL)=    0.0014556650 
ITERATION  19 : L=   15.3474047434 DL=  5.64e-06 (AVERGE_DL)=    0.0009692758 
ITERATION  20 : L=   15.3474072435 DL=  2.50e-06 (AVERGE_DL)=    0.0006455090 
ITERATION  21 : L=   15.3474083524 DL=  1.11e-06 (AVERGE_DL)=    0.0004299079 
ITERATION  22 : L=   15.3474088446 DL=  4.92e-07 (AVERGE_DL)=    0.0002864122 
LOCALIZATION SUM CONVERGED


--------------------------------------------------------------------------------
                    LOCALIZED MOLECULAR ORBITAL COMPOSITIONS
--------------------------------------------------------------------------------

The Mulliken populations for each LMO on each atom are computed
The LMO`s will be ordered according to atom index and type
  (A) Strongly localized MO`s have populations of >=0.950 on one atom
  (B) Two center bond orbitals have populations of >=0.850 on two atoms
  (C) Other MO`s are considered to be `delocalized`

FOUND  -   2 strongly local MO`s
       -   2 two center bond MO`s
       -   0 significantly delocalized MO`s

Rather strongly localized orbitals:
MO   6:   1S  -   0.985517
MO   5:   0Li -   0.999770
Bond-like localized orbitals:
MO   8:   1S  -   0.901970  and   0Li -   0.098030
MO   7:   1S  -   0.901871  and   0Li -   0.098129
Localized MO's were stored in: /cluster/projects/nn14654k/ylvaos/basis_set_n_funcs/functionals/pw91/LiS/inp/LiS_pw91_pcseg4.loc

-------------------------   --------------------
FINAL SINGLE POINT ENERGY      -405.706828764851
-------------------------   --------------------



           ************************************************************
           *        Program running with 8 parallel MPI-processes     *
           *              working on a common directory               *
           ************************************************************

------------------------------------------------------------------------------
                              ORCA PROPERTY CALCULATIONS
------------------------------------------------------------------------------

GBWName                                 ... /cluster/projects/nn14654k/ylvaos/basis_set_n_funcs/functionals/pw91/LiS/inp/LiS_pw91_pcseg4.gbw
Number of atoms                         ...      2
Number of basis functions               ...    161
Max core memory                         ...   4096 MB

Electric properties:
Dipole moment                           ... YES
Quadrupole moment                       ... YES
Static polarizability (Dipole/Dipole)   ...  NO
Static polarizability (Dipole/Quad.)    ...  NO
Static polarizability (Quad./Quad.)     ...  NO
Static polarizability (Velocity)        ...  NO
Static hyperpolarizability              ...  NO

Atomic electric properties:
Dipole moment                           ...  NO
Quadrupole moment                       ...  NO
Static polarizability                   ...  NO

Choice of electric origin               ... Center of mass
Position of electric origin             ...     0.000000     0.000000     1.308198

General magnetic properties:
Magnetizability                         ...  NO

EPR properties:
g-Tensor (aka g-matrix)                 ...  NO
Zero-Field splitting spin-orbit         ...  NO
Zero-field splitting spin-spin          ...  NO
Hyperfine couplings                     ...  NO (   0 nuclei)
Quadrupole couplings                    ...  NO (   0 nuclei)
Contact density                         ...  NO (   0 nuclei)

NMR properties:
Chemical shifts                         ...  NO (   0 nuclei)
Spin-rotation constants                 ...  NO (   0 nuclei)
Spin-spin couplings                     ...  NO (   0 nuclei,    0 pairs)

Choice of magnetic origin               ... GIAO
Position of magnetic origin             ...     0.000000     0.000000     0.000000

Properties with geometric perturbations:
SCF Hessian                             ...  NO
IR spectrum                             ...  NO
VCD spectrum                            ...  NO
X-ray spectroscopy properties:
SCF XES/XAS/RIXS spectra                ...  NO

SCF SOC stabilization energy            ...  NO
Diagonal Born-Oppenheimer correction    ...  NO

-------------
DIPOLE MOMENT
-------------

Method             : SCF
Type of density    : Electron Density
Multiplicity       :   2
Irrep              :   0
Energy             :  -405.7068287648510818 Eh
Basis              : AO
                                X                 Y                 Z
Electronic contribution:      0.000000001      -0.000000001      -4.216183177
Nuclear contribution   :      0.000000000       0.000000000       1.549484202
                        -----------------------------------------
Total Dipole Moment    :      0.000000001      -0.000000001      -2.666698975
                        -----------------------------------------
Magnitude (a.u.)       :      2.666698975
Magnitude (Debye)      :      6.778210122



--------------------
Rotational spectrum 
--------------------
 
Rotational constants in cm-1:             0.000000             0.639339             0.639339 
Rotational constants in MHz :             0.000000         19166.891897         19166.891897 

Dipole components along the rotational axes: 
x,y,z [a.u.] :    -2.666699    -0.000000     0.000000 
x,y,z [Debye]:    -6.778210    -0.000000     0.000000 

 

Dipole moment calculation done in   0.0 sec 

-----------------
QUADRUPOLE MOMENT
-----------------

Method             : SCF
Type of density    : Electron Density
Multiplicity       :   2
Irrep              :   0
Energy             :  -405.7068287648510818 Eh
Basis              : AO

                XX              YY              ZZ              XY              XZ              YZ
  NUC        0.000000000     0.000000000    41.817245673     0.000000000     0.000000000     0.000000000
  EL       -12.273276062   -13.982276620   -45.219678883     0.922850520    -0.000000001     0.000000002
  TOT      -12.273276062   -13.982276620    -3.402433209     0.922850520    -0.000000001     0.000000002 (a.u.)
           -16.507976050   -18.806640247    -4.576389030     1.241265511    -0.000000001     0.000000002 (Buckingham)

diagonalized tensor:
           -14.385482113   -11.870070569    -3.402433209 (a.u.)
           -19.348965425   -15.965650872    -4.576389030 (Buckingham)
           -18.155890948    -8.005947288    26.161838237 (traceless form in Buckingham)

             0.400367389    -0.916354710    -0.000000000
            -0.916354710    -0.400367389     0.000000000
             0.000000000    -0.000000000     1.000000000
        
Isotropic quadrupole :    -9.885995297

Quadrupole moment calculation done in   0.0 sec (  0.0 sec for integrals)

Maximum memory used throughout the entire PROP-calculation: 9.6 MB

--------------------------------
SUGGESTED CITATIONS FOR THIS RUN
--------------------------------

Below you find a list of papers that are relevant to this ORCA run
We neither can nor want to force you to cite these papers, but we appreciate if you do
You receive ORCA, which is the product of decades of hard work by many enthusiastic individuals, for free
The only thing we kindly ask in return is that you cite our papers,
We deeply appreciate it, if you show your appreciation for ORCA by not just citing the generic ORCA reference.

Please note that relegating all ORCA citations to the supporting information does *not* help us.
SI sections are not indexed - citations you put there will not count into any citation statistics
But we need these citations in order to attract the funding resources that allow us to do what we are doing

Therefore, if you are a happy ORCA user, please consider citing a few of the papers listed below in the main body of your paper

In addition to the list printed below, the program has created the file /cluster/projects/nn14654k/ylvaos/basis_set_n_funcs/functionals/pw91/LiS/inp/LiS_pw91_pcseg4.bibtex that contains the list in bibtex format
You can import this file easily into all common literature databanks and citation aid programs

It goes without saying that in many instances, there are alternative algorithms to achieve similar
results as the ones you have gotten from ORCA. It is, of course, also the case that in some instances
ORCA just re-implements algorithms worked out by others. We are fully aware of that and we are also
fully appreciative of our colleagues work. Hence this citation list should not be read as indicating
that the listed papers, which are focused on our own work, are the only ones worth citing. It simply
meant to make it easier for users to cite ORCA specific papers. It is not a substitute for doing your
own literature research and citing the relevant literature in a scientifically appropriate manner.

List of essential papers. We consider these as the minimum necessary citations

  1. Neese, F.
     Software update: the ORCA program system, version 6.0
     WIRES Comput. Molec. Sci. 2025 15(1), e70019
     doi.org/10.1002/wcms.70019

List of papers to cite with high priority. The work reported in these papers was absolutely
necessary for this run to complete.
Our perspective: the developers of density functionals and basis sets usually get cited in chemistry papers
Good! But without the algorithms to do something with them, the functionals or basis sets would not do anything.
Hence, in our opinion, the algorithm design and method developments papers are equally worthy of getting cited

  1. Lehtola, S.; Steigemann, C.; Oliveira, M.; Marques, M.
     Recent developments in Libxc - A comprehensive library of functionals for density functional theory
     Software X 2018 7 , 
     doi.org/10.1016/j.softx.2017.11.002
  2. Neese, F.
     The SHARK Integral Generation and Digestion System
     J. Comp. Chem. 2022 44(3), 381
     doi.org/10.1002/jcc.26942

List of suggested additional citations. These are papers that are important in the 'surrounding' of 
of this run, or papers that preceded the highly important papers. If you like your results we are grateful for a citation.

  1. Neese, F.
     The ORCA program system
     WIRES Comput. Molec. Sci. 2012 2(1), 73-78
     doi.org/10.1002/wcms.81
  2. Neese, F.
     Software update: the ORCA program system, version 4.0
     WIRES Comput. Molec. Sci. 2018 8(1), 1-6
     doi.org/10.1002/wcms.1327
  3. Neese, F.; Wennmohs, F.; Becker, U.; Riplinger, C.
     The ORCA quantum chemistry program package
     J. Chem. Phys. 2020 152(22), 224108
     doi.org/10.1063/5.0004608
  4. Neese, F.
     Software update: The ORCA program system—Version 5.0
     WIRES Comput. Molec. Sci. 2022 12(1), e1606
     doi.org/10.1002/wcms.1606

List of optional additional citations

  1. Neese, F.
     Approximate second-order SCF convergence for spin unrestricted wavefunctions
     Chem. Phys. Lett. 2000 325(1-3), 93-98
     doi.org/10.1016/s0009-2614(00)00662-x

Timings for individual modules:

Sum of individual times          ...       10.640 sec (=   0.177 min)
Startup calculation              ...        0.490 sec (=   0.008 min)   4.6 %
SCF iterations                   ...        9.579 sec (=   0.160 min)  90.0 %
Property integrals               ...        0.289 sec (=   0.005 min)   2.7 %
Property calculations            ...        0.272 sec (=   0.005 min)   2.6 %
Orbital localization             ...        0.010 sec (=   0.000 min)   0.1 %
                             ****ORCA TERMINATED NORMALLY****
TOTAL RUN TIME: 0 days 0 hours 0 minutes 11 seconds 405 msec
