
                                 *****************
                                 * O   R   C   A *
                                 *****************

                                            #,                                       
                                            ###                                      
                                            ####                                     
                                            #####                                    
                                            ######                                   
                                           ########,                                 
                                     ,,################,,,,,                         
                               ,,#################################,,                 
                          ,,##########################################,,             
                       ,#########################################, ''#####,          
                    ,#############################################,,   '####,        
                  ,##################################################,,,,####,       
                ,###########''''           ''''###############################       
              ,#####''   ,,,,##########,,,,          '''####'''          '####       
            ,##' ,,,,###########################,,,                        '##       
           ' ,,###''''                  '''############,,,                           
         ,,##''                                '''############,,,,        ,,,,,,###''
      ,#''                                            '''#######################'''  
     '                                                          ''''####''''         
             ,#######,   #######,   ,#######,      ##                                
            ,#'     '#,  ##    ##  ,#'     '#,    #''#        ,####,    ,#,          
            ##       ##  ##   ,#'  ##            #'  '#       #'       ,# #          
            ##       ##  #######   ##           ,######,      #####,      #          
            '#,     ,#'  ##    ##  '#,     ,#' ,#      #,     #,   #      #          
             '#######'   ##     ##  '#######'  #'      '#     '####' #    #          



                #########################################################
                #                        -***-                          #
                #          Department of theory and spectroscopy        #
                #                                                       #
                #                      Frank Neese                      #
                #                                                       #
                #     Directorship, Architecture, Infrastructure        #
                #                    SHARK, DRIVERS                     #
                #        Core code/Algorithms in most modules           #
                #                                                       #
                #        Max Planck Institute fuer Kohlenforschung      #
                #                Kaiser Wilhelm Platz 1                 #
                #                 D-45470 Muelheim/Ruhr                 #
                #                      Germany                          #
                #                                                       #
                #                  All rights reserved                  #
                #                        -***-                          #
                #########################################################


                         Program Version 6.1.1  -  RELEASE   -
                                (GIT: $487d211c$)
                          ($2025-11-21 10:33:24 +0100$)


 With contributions from (in alphabetic order):
[Max-Planck-Institut fuer Kohlenforschung]                               
  Daniel Aravena         : Magnetic Suceptibility                        
  Michael Atanasov       : Ab Initio Ligand Field Theory (pilot matlab implementation)
  Alexander A. Auer      : GIAO ZORA, VPT2 properties, NMR spectrum      
  Ute Becker             : All parallelization in ORCA, NUMFREQ, NUMCALC 
  Giovanni Bistoni       : ED, misc. LED, open-shell LED, HFLD           
  Dmytro Bykov           : pre 5.0 version of the SCF Hessian            
  Marcos Casanova-Páez   : Triplet and SCS-CIS(D). UHF-(DLPNO)-IP/EA/STEOM-CCSD. UHF-CVS-IP/STEOM-CCSD   
  Vijay G. Chilkuri      : MRCI spin determinant printing, contributions to CSF-ICE 
  Pauline Colinet        : FMM embedding                                 
  Dipayan Datta          : RHF DLPNO-CCSD density                        
  Achintya Kumar Dutta   : EOM-CC, STEOM-CC                              
  Nicolas Foglia         : Exact transition moments, OPA infrastructure, MCD improvements    
  Dmitry Ganyushin       : Spin-Orbit,Spin-Spin,Magnetic field MRCI      
  Miquel Garcia-Rates    : C-PCM and meta-GGA Hessian, CCSD/C-PCM, Gaussian charge scheme 
  Tiago L. C. Gouveia    : GS-ROHF, GS-ROCIS                             
  Yang Guo               : DLPNO-NEVPT2, F12-NEVPT2, CIM, IAO-localization        
  Andreas Hansen         : Spin unrestricted coupled pair/coupled cluster methods 
  Ingolf Harden          : AUTO-CI MPn and infrastructure                
  Benjamin Helmich-Paris : MC-RPA, TRAH-(SCF,CASSCF), AVAS, COSX integrals, SCF dyn. polar., MC-PDFT, srDFT 
  Lee Huntington         : MR-EOM, pCC                                   
  Robert Izsak           : Overlap fitted RIJCOSX, COSX-SCS-MP3, EOM     
  Riya Kayal             : Wick's Theorem for AUTO-CI, AUTO-CI UHF-CCSDT 
  Emily Kempfer          : AUTO-CI RHF CISDT and CCSDT, approximate NEVPT4
  Christian Kollmar      : KDIIS, OOCD, Brueckner-CCSD(T), CCSD density, CASPT2, CASPT2-K, improved NEVPT2 
  Axel Koslowski         : Symmetry handling                             
  Simone Kossmann        : meta-GGA functionals, TD-DFT gradient, OOMP2, (MP2 Hessian; deprecated post 5.0) 
  Lucas Lang             : DCDCAS, Hyperfine gauge corrections, ICE-SOC+SSC
  Marvin Lechner         : AUTO-CI (C++ implementation), FIC-MRCC        
  Spencer Leger          : CASSCF response                               
  Dagmar Lenk            : GEPOL surface, SMD, ORCA-2-JSON               
  Dimitrios Liakos       : Extrapolation schemes; Compound Job, Property file
  Dimitrios Manganas     : Further ROCIS development; embedding schemes. LFT, Crystal Embedding 
  Dimitrios Pantazis     : SARC Basis sets                               
  Anastasios Papadopoulos: AUTO-CI, single reference methods and gradients 
  Taras Petrenko         : pre 6.0 DFT Hessian and TD-DFT gradient,  ECA, NRVS 
  Petra Pikulova         : Analytic Raman intensities                    
  Peter Pinski           : DLPNO-MP2, DLPNO-MP2 Gradient                 
  Shashank Vittal Rao    : ES-AILFT, MagRelax                            
  Christoph Reimann      : Effective Core Potentials                     
  Marius Retegan         : Local ZFS, SOC                                
  Christoph Riplinger    : Optimizer, TS searches, QM/MM, DLPNO-CCSD(T), (RO)-DLPNO pert. Triples 
  Michael Roemelt        : Original ROCIS implementation, recursive CI coupling coefficients
  Masaaki Saitow         : Open-shell DLPNO-CCSD energy and density      
  Barbara Sandhoefer     : DKH picture change effects                    
  Yorick L. A. Schmerwitz: GMF and freeze-and-release deltaSCF, NEB S-IDPP initial path                    
  Kantharuban Sivalingam : CASSCF convergence/infrastructure, NEVPT2, NEVPT3, NEVPT4(SD), FIC-MRCI and CEPA variants
  Bernardo de Souza      : ESD, SOC TD-DFT                               
  Georgi L. Stoychev     : AutoAux, RI-MP2 NMR, DLPNO-MP2 response, X2C  
  Van Anh Tran           : RI-MP2 g-tensors                              
  Willem Van den Heuvel  : Paramagnetic NMR                              
  Zikuan Wang            : NOTCH, Electric field optimization            
  Frank Wennmohs         : Technical directorship and infrastructure     
  Hang Xu                : AUTO-CI-Response properties                   
                                                                         
[FACCTs GmbH]                                                            
  Markus Bursch, Nicolas Foglia, Miquel Garcia-Rates, Ingolf Harden, Hagen Neugebauer, Anastasios Papadopoulos, 
  Christoph Riplinger, Bernardo de Souza, Georgi L. Stoychev                                                    
                                                                 
  APM, various basis sets, CI-OPT, improved COSX, DLPNO-Multilevel,           
  DOCKER, DRACO, updates on ESD, Fragmentator, GOAT, IRC, LR-CPCM, L-BFGS, MBIS, meta-GGA TD-DFT gradient, ML-optimized integration grids, 
  MM, NACMEs, nearIR, NEB, NEB-TS, NL-DFT gradient (VV10), 2- and 3-layer-ONIOM, interface openCOSMO-RS, QMMM,   
  Crystal-QMMM, RESP, rigid body optimization, SF, symmetry and pop. for TD-DFT, various functionals, SOLVATOR                                   
                                                                         
[Other institutions]                                                     
  V. Asgeirsson          : NEB                                           
  Christoph Bannwarth    : sTDA-DFT, sTD-DFT, PBEh-3c, B97-3c, D3        
  Giovanni Bistoni       : ETS/NOCV, ADLD/ADEX, COVALED                  
  Martin Brehm           : Molecular dynamics                            
  Ronald Cardenas        : ETS/NOCV                                      
  Martina Colucci        : COVALED                                       
  Sebastian Ehlert       : rSCAN, r2SCAN, r2SCAN-3c, D4, dhf basis sets  
  Marvin Friede          : D4 for Fr, Ra, Ac-Lr                          
  Lars Goerigk           : TD-DFT with DH, B97 family of functionals     
  Stefan Grimme          : VdW corrections, initial TS optimization, DFT functionals, gCP, sTDA/sTD-DF 
  Waldemar Hujo          : DFT-NL                                        
  H. Jonsson             : NEB                                           
  Holger Kruse           : gCP                                           
  Marcel Mueller         : wB97X-3c, vDZP basis set                      
  Hagen Neugebauer       : wr2SCAN, Native XTB                           
  Gianluca Regni         : ADLD/ADEX                                     
  Tobias Risthaus        : pre 6.0 range-separated hybrid DFT and stability analysis
  Lukas Wittmann         : regularized MP2, r2SCAN double-hybrids, wr2SCAN        
                                                                         
We gratefully acknowledge several colleagues who have allowed us to      
interface, adapt or use parts of their codes:                            
  Ed Valeev, F. Pavosevic, A. Kumar             : LibInt (2-el integral package), F12 methods 
  Garnet Chan, S. Sharma, J. Yang, R. Olivares  : DMRG                   
  Ulf Ekstrom                                   : XCFun DFT Library      
  Mihaly Kallay                                 : mrcc  (arbitrary order and MRCC methods)
  Frank Weinhold                                : gennbo (NPA and NBO analysis)           
  Simon Mueller                                 : openCOSMO-RS                            
  Christopher J. Cramer and Donald G. Truhlar   : smd solvation model                     
  S Lehtola, MJT Oliveira, MAL Marques          : LibXC Library                           
  Liviu Ungur et al                             : ANISO software                          


 Your calculation uses the libint2 library for the computation of 2-el integrals
 For citations please refer to: http://libint.valeyev.net

 Your ORCA version has been built with support for libXC version: 7.0.0
 For citations please refer to: https://libxc.gitlab.io

 This ORCA versions uses:
   CBLAS   interface :  Fast vector & matrix operations
   LAPACKE interface :  Fast linear algebra routines
   SCALAPACK package :  Parallel linear algebra routines
   Shared memory     :  Shared parallel matrices
   BLAS/LAPACK       :  OpenBLAS 0.3.29  USE64BITINT DYNAMIC_ARCH NO_AFFINITY Cooperlake SINGLE_THREADED
        Core in use  :  Cooperlake
   Copyright (c) 2011-2014, The OpenBLAS Project


  ***********************************
  * Starting time: Wed May 20 12:38:04 2026
  * Host name:     c1-38
  * Process ID:    3732647
  * Working dir.:  /cluster/projects/nn14654k/ylvaos/basis_set_n_funcs/functionals/N12/PCl/out
  ***********************************

Using LibXC functional ID  82 : Minnesota N12 exchange functional
[ 1]  R. Peverati and D. G. Truhlar.,  J. Chem. Theory Comput. 8, 2310 (2012)
Using LibXC functional ID  80 : Minnesota N12 correlation functional
[ 1]  R. Peverati and D. G. Truhlar.,  J. Chem. Theory Comput. 8, 2310 (2012)
Using LibXC functional ID  82 : Minnesota N12 exchange functional
[ 1]  R. Peverati and D. G. Truhlar.,  J. Chem. Theory Comput. 8, 2310 (2012)
Using LibXC functional ID  80 : Minnesota N12 correlation functional
[ 1]  R. Peverati and D. G. Truhlar.,  J. Chem. Theory Comput. 8, 2310 (2012)
Your calculation utilizes LibXC
by S. Lehtola, C. Steigemann, M. J. T. Oliveira & M. A. L. Marques
Please cite in your paper:
Lehtola, S.; Steigemann, C.; Oliveira, M.J.T.; Marques, M. A. L. Software X, 7, (2018), 1.
   

================================================================================

----- Orbital basis set information -----
Your calculation utilizes the basis: aug-cc-pVTZ 
    H, B-Ne : Obtained from the ccRepo (grant-hill.group.shef.ac.uk/ccrepo) Feb. 2017
              R. A. Kendall, T. H. Dunning, Jr., R. J. Harrison, J. Chem. Phys. 96, 6796 (1992)
         He : Obtained from the ccRepo (grant-hill.group.shef.ac.uk/ccrepo) Feb. 2017
              D. E. Woon, T. H. Dunning, Jr., J. Chem. Phys. 100, 2975 (1994)
  Li-Be, Na : Obtained from the ccRepo (grant-hill.group.shef.ac.uk/ccrepo) Feb. 2017
              B. P. Prascher, D. E. Woon, K. A. Peterson, T. H. Dunning, Jr., A. K. Wilson, Theor. Chem. Acc. 128, 69 (2011)
         Mg : Obtained from the Peterson Research Group Website (tyr0.chem.wsu.edu/~kipeters) Feb. 2017
              B. P. Prascher, D. E. Woon, K. A. Peterson, T. H. Dunning, Jr., A. K. Wilson, Theor. Chem. Acc. 128, 69 (2011)
      Al-Ar : Obtained from the ccRepo (grant-hill.group.shef.ac.uk/ccrepo) Feb. 2017
              D. E. Woon, T. H. Dunning, Jr., J. Chem. Phys. 98, 1358 (1993)
      Sc-Zn : Obtained from the ccRepo (grant-hill.group.shef.ac.uk/ccrepo) Feb. 2017
              N. B. Balabanov, K. A. Peterson, J. Chem. Phys. 123, 064107 (2005)
              N. B. Balabanov, K. A. Peterson, J. Chem. Phys. 125, 074110 (2006)
      Ga-Kr : Obtained from the ccRepo (grant-hill.group.shef.ac.uk/ccrepo) Feb. 2017
              A. K. Wilson, D. E. Woon, K. A. Peterson, T. H. Dunning, Jr., J. Chem. Phys. 110, 7667 (1999)
     Ag, Au : Obtained from the Peterson Research Group Website (tyr0.chem.wsu.edu/~kipeters) Feb. 2017
              K. A. Peterson, C. Puzzarini, Theor. Chem. Acc. 114, 283 (2005)

================================================================================
                                        WARNINGS
                       Please study these warnings very carefully!
================================================================================


WARNING: your system is open-shell and RHF/RKS was chosen
  ===> : WILL SWITCH to UHF/UKS


================================================================================
                                       INPUT FILE
================================================================================
NAME = /cluster/projects/nn14654k/ylvaos/basis_set_n_funcs/functionals/N12/PCl/inp/PCl_N12_augccpvtz.inp
|  1> ! dft aug-cc-pVTZ TightSCF
|  2> %pal nprocs 8 end
|  3> 
|  4> %loc
|  5>   LocMet NewBoys
|  6>   Occ true
|  7> end
|  8> 
|  9> %method
| 10>   exchange gga_x_N12
| 11>   correlation gga_c_N12
| 12> end
| 13> 
| 14> %elprop
| 15>   Dipole true
| 16>   Quadrupole true
| 17> end
| 18> 
| 19> * xyz 0 3
| 20> P    0.000000000000   0.000000000000  -1.008800000000
| 21> Cl    0.000000000000   0.000000000000   1.008800000000
| 22> *
| 23> 
| 24> 
| 25>                          ****END OF INPUT****
================================================================================

                       ****************************
                       * Single Point Calculation *
                       ****************************

---------------------------------
CARTESIAN COORDINATES (ANGSTROEM)
---------------------------------
  P      0.000000    0.000000   -1.008800
  Cl     0.000000    0.000000    1.008800

----------------------------
CARTESIAN COORDINATES (A.U.)
----------------------------
  NO LB      ZA    FRAG     MASS         X           Y           Z
   0 P    15.0000    0    30.974    0.000000    0.000000   -1.906356
   1 Cl   17.0000    0    35.453    0.000000    0.000000    1.906356

--------------------------------
INTERNAL COORDINATES (ANGSTROEM)
--------------------------------
 P      0   0   0     0.000000000000     0.00000000     0.00000000
 Cl     1   0   0     2.017600000000     0.00000000     0.00000000

---------------------------
INTERNAL COORDINATES (A.U.)
---------------------------
 P      0   0   0     0.000000000000     0.00000000     0.00000000
 Cl     1   0   0     3.812711447800     0.00000000     0.00000000

---------------------
BASIS SET INFORMATION
---------------------
There are 2 groups of distinct atoms

 Group   1 Type P   : 42s17p3d2f contracted to 6s5p3d2f pattern {131313111/77111/111/11}
 Group   2 Type Cl  : 42s17p3d2f contracted to 6s5p3d2f pattern {131313111/77111/111/11}

Atom   0P    basis set group =>   1
Atom   1Cl   basis set group =>   2


           ************************************************************
           *        Program running with 8 parallel MPI-processes     *
           *              working on a common directory               *
           ************************************************************
------------------------------------------------------------------------------
                             ORCA STARTUP CALCULATIONS
------------------------------------------------------------------------------
------------------------------------------------------------------------------
                   ___                                                        
                  /   \      - P O W E R E D   B Y -                         
                 /     \                                                     
                 |  |  |   _    _      __       _____    __    __             
                 |  |  |  | |  | |    /  \     |  _  \  |  |  /  |          
                  \  \/   | |  | |   /    \    | | | |  |  | /  /          
                 / \  \   | |__| |  /  /\  \   | |_| |  |  |/  /          
                |  |  |   |  __  | /  /__\  \  |    /   |      \           
                |  |  |   | |  | | |   __   |  |    \   |  |\   \          
                \     /   | |  | | |  |  |  |  | |\  \  |  | \   \       
                 \___/    |_|  |_| |__|  |__|  |_| \__\ |__|  \__/        
                                                                              
                      - O R C A' S   B I G   F R I E N D -                    
                                      &                                       
                       - I N T E G R A L  F E E D E R -                       
                                                                              
 v1 FN, 2020, v2 2021, v3 2022-2024                                           
------------------------------------------------------------------------------


----------------------
SHARK INTEGRAL PACKAGE
----------------------

Number of atoms                             ...      2
Number of basis functions                   ...    150
Number of shells                            ...     62
Maximum angular momentum                    ...      3
Integral batch strategy                     ... SHARK/LIBINT Hybrid
RI-J (if used) integral strategy            ... SPLIT-RIJ (Revised 2003 algorithm where possible)
Printlevel                                  ...      1
Contraction scheme used                     ... PARTIAL GENERAL contraction
Prescreening option                         ... SCHWARTZ
   Thresh                                   ... 2.500e-11
   Tcut                                     ... 2.500e-12
   Tpresel                                  ... 2.500e-12 
Coulomb Range Separation                    ... NOT USED
Exchange Range Separation                   ... NOT USED
Multipole approximations                    ... NOT USED
Finite Nucleus Model                        ... NOT USED
CABS basis                                  ... NOT available
Auxiliary Coulomb fitting basis             ... NOT available
Auxiliary J/K fitting basis                 ... NOT available
Auxiliary Correlation fitting basis         ... NOT available
Auxiliary 'external' fitting basis          ... NOT available

Checking pre-screening integrals            ... done (  0.0 sec) Dimension = 62
Save PGC pre-screening integrals            ... done (  0.0 sec) Dimension = 62
Calculate PGC overlap integrals             ... done (  0.1 sec) Dimension = 32
Calculating pre-screening integrals (ORCA)  ... done (  0.1 sec) Dimension = 32
Shell pair information
Shell pair cut-off parameter TPreSel        ...   2.5e-12
Total number of shell pairs                 ...      1953
Shell pairs after pre-screening             ...      1644
Total number of primitive shell pairs       ...      1953
Primitive shell pairs kept                  ...      1644
          la=0 lb=0:    390 shell pairs
          la=1 lb=0:    505 shell pairs
          la=1 lb=1:    178 shell pairs
          la=2 lb=0:    192 shell pairs
          la=2 lb=1:    120 shell pairs
          la=2 lb=2:     21 shell pairs
          la=3 lb=0:    124 shell pairs
          la=3 lb=1:     80 shell pairs
          la=3 lb=2:     24 shell pairs
          la=3 lb=3:     10 shell pairs

Checking whether 4 symmetric matrices of dimension 150 fit in memory
:Max Core in MB      =   4096.00
 MB in use           =      3.65
 MB left             =   4092.35
 MB needed           =      0.35
 Data fit in memory  = YES
Calculating Nuclear repulsion               ... done (  0.0 sec) ENN=     66.881536536727 Eh

Diagonalization of the overlap matrix:
Smallest eigenvalue                        ... 4.047e-04
Time for diagonalization                   ...    0.001 sec
Threshold for overlap eigenvalues          ... 1.000e-07
Number of eigenvalues below threshold      ... 0
Time for construction of square roots      ...    0.003 sec
Total time needed                          ...    0.006 sec

-------------------
DFT GRID GENERATION
-------------------

General Integration Accuracy     IntAcc      ... 4.388
Radial Grid Type                 RadialGrid  ... OptM3 with GC (2021)
Angular Grid (max. ang.)         AngularGrid ... 4 (Lebedev-302)
Angular grid pruning method      GridPruning ... 4 (adaptive)
Weight generation scheme         WeightScheme... mBecke (2022)
Basis function cutoff            BFCut       ... 1.0000e-11
Integration weight cutoff        WCut        ... 1.0000e-14
Partially contracted basis set               ... off
Rotationally invariant grid construction     ... off
Angular grids for H and He will be reduced by one unit
Diffuse basis detected: some atoms will have their outermost
                        angular grid increased by 1.

Total number of grid points                  ...    15370
Total number of batches                      ...      241
Average number of points per batch           ...       63
Average number of grid points per atom       ...     7685

---------------------
SHARK GRID GENERATION
---------------------

General Integration Accuracy     IntAcc      ... 4.388
Radial Grid Type                 RadialGrid  ... OptM3 with GC (2021)
Angular Grid (max. ang.)         AngularGrid ... 4 (Lebedev-302)
Angular grid pruning method      GridPruning ... 4 (adaptive)
Weight generation scheme         WeightScheme... mBecke (2022)
Basis function cutoff            BFCut       ... 1.0000e-11
Integration weight cutoff        WCut        ... 1.0000e-14
Partially contracted basis set               ... off
Rotationally invariant grid construction     ... off
Angular grids for H and He will be reduced by one unit
Diffuse basis detected: some atoms will have their outermost
                        angular grid increased by 1.
Core-polarized basis detected: some atoms will have their core
                               angular grid increased.
Steep s-basis detected: some atoms will have their radial
                        grid points doubled.

Total number of grid points                  ...    40192
Total number of batches                      ...      629
Average number of points per batch           ...       63
Average number of grid points per atom       ...    20096
Grids setup in   0.5 sec
Initializing property integral containers    ... done (  0.0 sec)

SHARK setup successfully completed in   0.7 seconds

Maximum memory used throughout the entire STARTUP-calculation: 48.5 MB


           ************************************************************
           *        Program running with 8 parallel MPI-processes     *
           *              working on a common directory               *
           ************************************************************
-------------------------------------------------------------------------------
                                 ORCA GUESS
                   Start orbitals & Density for SCF / CASSCF
-------------------------------------------------------------------------------

------------
SCF SETTINGS
------------
Hamiltonian:
 Density Functional     Method          .... DFT(GTOs)
  Functional kind                       .... Exchange
  Functional name                       .... Minnesota N12 exchange functional
  Functional family                     .... GGA
  Functional refs                              
    [ 0] R. Peverati and D. G. Truhlar.,  J. Chem. Theory Comput. 8, 2310 (2012), doi: 10.1021/ct3002656
  Functional external parameters        .... 16
    Parameter  0 _CC00      =  1.000000e+00 : _CC00               
    Parameter  1 _CC01      =  5.078800e-01 : _CC01               
    Parameter  2 _CC02      =  1.682330e-01 : _CC02               
    Parameter  3 _CC03      =  1.288870e-01 : _CC03               
    Parameter  4 _CC10      =  8.602110e-02 : _CC10               
    Parameter  5 _CC11      = -1.710080e+01 : _CC11               
    Parameter  6 _CC12      =  6.508140e+01 : _CC12               
    Parameter  7 _CC13      = -7.017260e+01 : _CC13               
    Parameter  8 _CC20      = -3.907550e-01 : _CC20               
    Parameter  9 _CC21      =  5.133920e+01 : _CC21               
    Parameter 10 _CC22      = -1.662200e+02 : _CC22               
    Parameter 11 _CC23      =  1.427380e+02 : _CC23               
    Parameter 12 _CC30      =  4.036110e-01 : _CC30               
    Parameter 13 _CC31      = -3.446310e+01 : _CC31               
    Parameter 14 _CC32      =  7.616610e+01 : _CC32               
    Parameter 15 _CC33      = -2.418340e+00 : _CC33               
  Functional kind                       .... Correlation
  Functional name                       .... Minnesota N12 correlation functional
  Functional family                     .... GGA
  Functional refs                              
    [ 0] R. Peverati and D. G. Truhlar.,  J. Chem. Theory Comput. 8, 2310 (2012), doi: 10.1021/ct3002656
  Functional external parameters        .... 10
    Parameter  0 _css0      =  1.000000e+00 : u^0 coefficient for same-spin correlation
    Parameter  1 _css1      = -5.531700e+00 : u^1 coefficient for same-spin correlation
    Parameter  2 _css2      =  3.079580e+01 : u^2 coefficient for same-spin correlation
    Parameter  3 _css3      = -5.641960e+01 : u^3 coefficient for same-spin correlation
    Parameter  4 _css4      =  3.212500e+01 : u^4 coefficient for same-spin correlation
    Parameter  5 _cos0      =  1.000000e+00 : u^0 coefficient for opposite-spin correlation
    Parameter  6 _cos1      =  3.245110e+00 : u^1 coefficient for opposite-spin correlation
    Parameter  7 _cos2      = -2.528930e+01 : u^2 coefficient for opposite-spin correlation
    Parameter  8 _cos3      =  1.444070e+01 : u^3 coefficient for opposite-spin correlation
    Parameter  9 _cos4      =  1.968700e+01 : u^4 coefficient for opposite-spin correlation
 Gradients option       PostSCFGGA      .... off


General Settings:
 Integral files         IntName         .... /cluster/projects/nn14654k/ylvaos/basis_set_n_funcs/functionals/N12/PCl/inp/PCl_N12_augccpvtz
 Hartree-Fock type      HFTyp           .... UHF
 Total Charge           Charge          ....    0
 Multiplicity           Mult            ....    3
 Number of Electrons    NEL             ....   32
 Basis Dimension        Dim             ....  100
 Nuclear Repulsion      ENuc            ....     66.8815365367 Eh

Convergence Acceleration:
 AO-DIIS                CNVDIIS         .... on
   Start iteration      DIISMaxIt       ....    12
   Startup error        DIISStart       ....  0.200000
   # of expansion vecs  DIISMaxEq       ....     5
   Bias factor          DIISBfac        ....   1.050
   Max. coefficient     DIISMaxC        ....  10.000
 MO-DIIS                CNVKDIIS        .... off
 Trust-Rad. Augm. Hess. CNVTRAH         .... auto
   Auto Start mean grad. ratio tolernc. ....  1.125000
   Auto Start start iteration           ....    50
   Auto Start num. interpolation iter.  ....    10
   Max. Number of Micro iterations      ....    24
   Max. Number of Macro iterations      .... Maxiter - #DIIS iter
   Number of Davidson start vectors     ....     2
   Converg. threshold    (grad. norm)   ....   1.000e-05
   Grad. Scal. Fac. for Micro threshold ....   0.100
   Minimum threshold for Micro iter.    ....   1.000e-02
   NR start threshold (gradient norm)   ....   1.000e-04
   Initial trust radius                 ....   0.400
   Minimum AH scaling param. (alpha)    ....   1.000
   Maximum AH scaling param. (alpha)    .... 1000.000
   Quad. conv. algorithm                .... NR
   White noise on init. David. guess    .... on
   Maximum white noise                  ....   0.010
   Pseudo random numbers                .... off
   Inactive MOs                         .... canonical
   Orbital update algorithm             .... Taylor
   Preconditioner                       .... Diag
   Full preconditioner red. dimension   ....   250
 SOSCF                 CNVSOSCF           .... on
   Start iteration     SOSCFMaxIt         ....   150
   Startup grad/error  SOSCFStart         ....  0.003300
   Hessian update      SOSCFHessUp        .... L-BFGS
   Autom. constraints  SOSCFAutoConstrain .... off
 Level Shifting         CNVShift        .... on
   Level shift para.    LevelShift      ....    0.2500
   Turn off err/grad.   ShiftErr        ....    0.0010
 Zerner damping         CNVZerner       .... off
 Static damping         CNVDamp         .... on
   Fraction old density DampFac         ....    0.7000
   Max. Damping (<1)    DampMax         ....    0.9800
   Min. Damping (>=0)   DampMin         ....    0.0000
   Turn off err/grad.   DampErr         ....    0.1000

SCF Procedure:
 Maximum # iterations   MaxIter         ....   125
 SCF integral mode      SCFMode         .... Direct
   Integral package                     .... SHARK and LIBINT hybrid scheme
 Reset frequency        DirectResetFreq ....    20
 Integral Threshold     Thresh          ....  2.500e-11 Eh
 Primitive CutOff       TCut            ....  2.500e-12 Eh

Convergence Tolerance:
 Convergence Check Mode ConvCheckMode   .... Total+1el-Energy
 Convergence forced     ConvForced      .... 0
 Energy Change          TolE            ....  1.000e-08 Eh
 1-El. energy change                    ....  1.000e-05 Eh
 Orbital Gradient       TolG            ....  1.000e-05
 Orbital Rotation angle TolX            ....  1.000e-05
 DIIS Error             TolErr          ....  5.000e-07

------------------------------
INITIAL GUESS: MODEL POTENTIAL
------------------------------
Loading Hartree-Fock densities                     ... done
Calculating cut-offs                               ... done
Initializing the effective Hamiltonian             ... done
Setting up the integral package (SHARK)            ... done
Starting the Coulomb interaction                   ... done (   0.1 sec)
Making the grid                                    ... done (   0.1 sec)
Mapping shells                                     ... done
Starting the XC term evaluation                    ... done (   0.0 sec)
  promolecular density results
     # of electrons  =     31.999900561
     EX              =    -49.282115182
     EC              =     -2.085939440
     EX+EC           =    -51.368054622
Transforming the Hamiltonian                       ... done (   0.0 sec)
Diagonalizing the Hamiltonian                      ... done (   0.0 sec)
Back transforming the eigenvectors                 ... done (   0.0 sec)
Now organizing SCF variables                       ... done
                      ------------------
                      INITIAL GUESS DONE (   0.4 sec)
                      ------------------
             **** ENERGY FILE WAS UPDATED (/cluster/projects/nn14654k/ylvaos/basis_set_n_funcs/functionals/N12/PCl/inp/PCl_N12_augccpvtz.en.tmp) ****
Finished Guess after   0.6 sec
Maximum memory used throughout the entire GUESS-calculation: 7.6 MB


           ************************************************************
           *        Program running with 8 parallel MPI-processes     *
           *              working on a common directory               *
           ************************************************************

-------------------------------------------------------------------------------------------
                                      ORCA LEAN-SCF
                              memory conserving SCF solver
-------------------------------------------------------------------------------------------

----------------------------------------D-I-I-S--------------------------------------------
Iteration    Energy (Eh)           Delta-E    RMSDP     MaxDP     DIISErr   Damp  Time(sec)
-------------------------------------------------------------------------------------------
               ***  Starting incremental Fock matrix formation  ***
    1    -801.5021971844131485     0.00e+00  2.07e-03  2.46e-02  3.64e-02  0.700   0.5
    2    -801.5083843663331891    -6.19e-03  1.56e-03  2.26e-02  1.68e-02  0.700   0.3
                               ***Turning on AO-DIIS***
    3    -801.5104059679428019    -2.02e-03  9.52e-04  1.75e-02  9.70e-03  0.700   0.4
    4    -801.5116961900896513    -1.29e-03  2.01e-03  3.63e-02  7.31e-03  0.000   0.5
                              *** Initializing SOSCF ***
---------------------------------------S-O-S-C-F--------------------------------------
Iteration    Energy (Eh)           Delta-E    RMSDP     MaxDP     MaxGrad    Time(sec)
--------------------------------------------------------------------------------------
    5    -801.5149378304575976    -3.24e-03  4.00e-04  8.28e-03  2.25e-03     0.4
               *** Restarting incremental Fock matrix formation ***
    6    -801.5149904794612894    -5.26e-05  2.35e-04  2.16e-03  1.36e-03     0.6
    7    -801.5149716753511484     1.88e-05  1.59e-04  2.07e-03  2.01e-03     0.5
    8    -801.5150093344637980    -3.77e-05  5.97e-05  9.78e-04  1.28e-04     0.5
    9    -801.5150096137846276    -2.79e-07  1.57e-05  2.62e-04  8.70e-05     0.4
   10    -801.5150097585028561    -1.45e-07  7.64e-06  5.20e-05  3.46e-05     0.5
   11    -801.5150097771663695    -1.87e-08  3.49e-06  6.19e-05  1.38e-05     0.4
   12    -801.5150097800793674    -2.91e-09  7.82e-07  1.36e-05  2.28e-06     0.3
                 **** Energy Check signals convergence ****

               *****************************************************
               *                     SUCCESS                       *
               *           SCF CONVERGED AFTER  12 CYCLES          *
               *****************************************************

             **** ENERGY FILE WAS UPDATED (/cluster/projects/nn14654k/ylvaos/basis_set_n_funcs/functionals/N12/PCl/inp/PCl_N12_augccpvtz.en.tmp) ****

----------------
TOTAL SCF ENERGY
----------------

Total Energy       :       -801.51500978014076 Eh          -21810.33223 eV

Components:
Nuclear Repulsion  :         66.88153653672681 Eh            1819.93913 eV
Electronic Energy  :       -868.39654631686756 Eh          -23630.27137 eV
One Electron Energy:      -1241.45055319816493 Eh          -33781.58698 eV
Two Electron Energy:        373.05400688129737 Eh           10151.31561 eV

Virial components:
Potential Energy   :      -1602.34248724237591 Eh          -43601.95576 eV
Kinetic Energy     :        800.82747746223515 Eh           21791.62353 eV
Virial Ratio       :          2.00085852738231

DFT components:
N(Alpha)           :       16.999992992655 electrons
N(Beta)            :       15.000002909080 electrons
N(Total)           :       31.999995901735 electrons
E(X)               :      -49.448839746841 Eh       
E(C)               :       -2.079554206923 Eh       
E(XC)              :      -51.528393953764 Eh       

---------------
SCF CONVERGENCE
---------------

  Last Energy change         ...    2.9130e-09  Tolerance :   1.0000e-08
  Last MAX-Density change    ...    1.3565e-05  Tolerance :   1.0000e-07
  Last RMS-Density change    ...    7.8168e-07  Tolerance :   5.0000e-09
  Last DIIS Error            ...    2.2531e-03  Tolerance :   5.0000e-07
  Last Orbital Gradient      ...    2.2840e-06  Tolerance :   1.0000e-05
  Last Orbital Rotation      ...    5.2816e-06  Tolerance :   1.0000e-05


----------------------
UHF SPIN CONTAMINATION
----------------------

Warning: in a DFT calculation there is little theoretical justification to 
         calculate <S**2> as in Hartree-Fock theory. We will do it anyways
         but you should keep in mind that the values have only limited relevance

Expectation value of <S**2>     :     2.003917
Ideal value S*(S+1) for S=1.0   :     2.000000
Deviation                       :     0.003917

----------------
ORBITAL ENERGIES
----------------
                 SPIN UP ORBITALS
  NO   OCC          E(Eh)            E(eV) 
   0   1.0000    -100.570980     -2736.6755 
   1   1.0000     -76.269314     -2075.3936 
   2   1.0000      -9.229353      -251.1435 
   3   1.0000      -7.180295      -195.3857 
   4   1.0000      -7.174136      -195.2182 
   5   1.0000      -7.174136      -195.2182 
   6   1.0000      -6.381742      -173.6560 
   7   1.0000      -4.701189      -127.9259 
   8   1.0000      -4.700416      -127.9048 
   9   1.0000      -4.700416      -127.9048 
  10   1.0000      -0.786288       -21.3960 
  11   1.0000      -0.537192       -14.6177 
  12   1.0000      -0.356129        -9.6908 
  13   1.0000      -0.337437        -9.1821 
  14   1.0000      -0.337437        -9.1821 
  15   1.0000      -0.202603        -5.5131 
  16   1.0000      -0.202603        -5.5131 
  17   0.0000      -0.071729        -1.9518 
  18   0.0000      -0.020011        -0.5445 
  19   0.0000       0.006925         0.1884 
  20   0.0000       0.006925         0.1884 
  21   0.0000       0.014937         0.4065 
  22   0.0000       0.032980         0.8974 
  23   0.0000       0.055630         1.5138 
  24   0.0000       0.055630         1.5138 
  25   0.0000       0.075645         2.0584 
  26   0.0000       0.075645         2.0584 
  27   0.0000       0.123236         3.3534 

                 SPIN DOWN ORBITALS
  NO   OCC          E(Eh)            E(eV) 
   0   1.0000    -100.568878     -2736.6183 
   1   1.0000     -76.258903     -2075.1103 
   2   1.0000      -9.227621      -251.0963 
   3   1.0000      -7.179621      -195.3674 
   4   1.0000      -7.171370      -195.1429 
   5   1.0000      -7.171370      -195.1429 
   6   1.0000      -6.376046      -173.5010 
   7   1.0000      -4.697111      -127.8149 
   8   1.0000      -4.689974      -127.6207 
   9   1.0000      -4.689974      -127.6207 
  10   1.0000      -0.776266       -21.1233 
  11   1.0000      -0.494511       -13.4563 
  12   1.0000      -0.328976        -8.9519 
  13   1.0000      -0.322358        -8.7718 
  14   1.0000      -0.322358        -8.7718 
  15   0.0000      -0.141040        -3.8379 
  16   0.0000      -0.141040        -3.8379 
  17   0.0000      -0.066044        -1.7971 
  18   0.0000      -0.066043        -1.7971 
  19   0.0000      -0.054653        -1.4872 
  20   0.0000      -0.018564        -0.5052 
  21   0.0000      -0.009360        -0.2547 
  22   0.0000       0.043024         1.1707 
  23   0.0000       0.044697         1.2163 
  24   0.0000       0.044697         1.2163 
  25   0.0000       0.128428         3.4947 
*Only the first 10 virtual orbitals were printed.

                    ********************************
                    * MULLIKEN POPULATION ANALYSIS *
                    ********************************

--------------------------------------------
MULLIKEN ATOMIC CHARGES AND SPIN POPULATIONS
--------------------------------------------
   0 P :    0.166732    1.877652
   1 Cl:   -0.166732    0.122348
Sum of atomic charges         :    0.0000000
Sum of atomic spin populations:    2.0000000

-----------------------------------------------------
MULLIKEN REDUCED ORBITAL CHARGES AND SPIN POPULATIONS
-----------------------------------------------------
CHARGE
  0 P s       :     6.016263  s :     6.016263
      pz      :     2.588633  p :     8.722646
      px      :     3.067007
      py      :     3.067007
      dz2     :     0.025130  d :     0.081413
      dxz     :     0.028142
      dyz     :     0.028142
      dx2y2   :     0.000000
      dxy     :     0.000000
      f0      :     0.002876  f :     0.012946
      f+1     :     0.005035
      f-1     :     0.005035
      f+2     :     0.000000
      f-2     :     0.000000
      f+3     :     0.000000
      f-3     :     0.000000

  1 Cls       :     5.981569  s :     5.981569
      pz      :     3.364800  p :    11.104752
      px      :     3.869976
      py      :     3.869976
      dz2     :     0.018492  d :     0.072610
      dxz     :     0.027059
      dyz     :     0.027059
      dx2y2   :     0.000000
      dxy     :    -0.000000
      f0      :     0.002239  f :     0.007802
      f+1     :     0.002782
      f-1     :     0.002782
      f+2     :    -0.000000
      f-2     :    -0.000000
      f+3     :     0.000000
      f-3     :     0.000000


SPIN
  0 P s       :    -0.028480  s :    -0.028480
      pz      :     0.064689  p :     1.874329
      px      :     0.904820
      py      :     0.904820
      dz2     :     0.006522  d :     0.028483
      dxz     :     0.010980
      dyz     :     0.010980
      dx2y2   :     0.000000
      dxy     :     0.000000
      f0      :    -0.000853  f :     0.003320
      f+1     :     0.002087
      f-1     :     0.002087
      f+2     :    -0.000000
      f-2     :    -0.000000
      f+3     :     0.000000
      f-3     :     0.000000

  1 Cls       :     0.011898  s :     0.011898
      pz      :    -0.053981  p :     0.084119
      px      :     0.069050
      py      :     0.069050
      dz2     :     0.000660  d :     0.025772
      dxz     :     0.012556
      dyz     :     0.012556
      dx2y2   :     0.000000
      dxy     :    -0.000000
      f0      :    -0.000456  f :     0.000560
      f+1     :     0.000508
      f-1     :     0.000508
      f+2     :     0.000000
      f-2     :    -0.000000
      f+3     :     0.000000
      f-3     :     0.000000



                     *******************************
                     * LOEWDIN POPULATION ANALYSIS *
                     *******************************

-------------------------------------------
LOEWDIN ATOMIC CHARGES AND SPIN POPULATIONS
-------------------------------------------
   0 P :   -0.139156    1.631449
   1 Cl:    0.139156    0.368551

----------------------------------------------------
LOEWDIN REDUCED ORBITAL CHARGES AND SPIN POPULATIONS
----------------------------------------------------
CHARGE
  0 P s       :     5.566724  s :     5.566724
      pz      :     2.850572  p :     8.797098
      px      :     2.973263
      py      :     2.973263
      dz2     :     0.209840  d :     0.491808
      dxz     :     0.140984
      dyz     :     0.140984
      dx2y2   :     0.000000
      dxy     :     0.000000
      f0      :     0.095026  f :     0.283526
      f+1     :     0.094250
      f-1     :     0.094250
      f+2     :     0.000000
      f-2     :     0.000000
      f+3     :     0.000000
      f-3     :     0.000000

  1 Cls       :     5.596423  s :     5.596423
      pz      :     3.500205  p :    10.848124
      px      :     3.673959
      py      :     3.673959
      dz2     :     0.150984  d :     0.339397
      dxz     :     0.094206
      dyz     :     0.094206
      dx2y2   :     0.000000
      dxy     :     0.000000
      f0      :     0.030225  f :     0.076900
      f+1     :     0.023337
      f-1     :     0.023337
      f+2     :     0.000000
      f-2     :     0.000000
      f+3     :     0.000000
      f-3     :     0.000000


SPIN
  0 P s       :     0.007636  s :     0.007636
      pz      :     0.010744  p :     1.537777
      px      :     0.763516
      py      :     0.763516
      dz2     :     0.002395  d :     0.065409
      dxz     :     0.031507
      dyz     :     0.031507
      dx2y2   :     0.000000
      dxy     :     0.000000
      f0      :    -0.002128  f :     0.020627
      f+1     :     0.011378
      f-1     :     0.011378
      f+2     :    -0.000000
      f-2     :    -0.000000
      f+3     :     0.000000
      f-3     :     0.000000

  1 Cls       :     0.000398  s :     0.000398
      pz      :    -0.021309  p :     0.154719
      px      :     0.088014
      py      :     0.088014
      dz2     :     0.001502  d :     0.174271
      dxz     :     0.086385
      dyz     :     0.086385
      dx2y2   :     0.000000
      dxy     :    -0.000000
      f0      :     0.000762  f :     0.039162
      f+1     :     0.019200
      f-1     :     0.019200
      f+2     :     0.000000
      f-2     :     0.000000
      f+3     :     0.000000
      f-3     :     0.000000



                      *****************************
                      * MAYER POPULATION ANALYSIS *
                      *****************************

  NA   - Mulliken gross atomic population
  ZA   - Total nuclear charge
  QA   - Mulliken gross atomic charge
  VA   - Mayer's total valence
  BVA  - Mayer's bonded valence
  FA   - Mayer's free valence

  ATOM       NA         ZA         QA         VA         BVA        FA
  0 P     14.8333    15.0000     0.1667     2.6390     0.9887     1.6503
  1 Cl    17.1667    17.0000    -0.1667     1.0368     0.9887     0.0481

  Mayer bond orders larger than 0.100000
B(  0-P ,  1-Cl) :   0.9887 

-------
TIMINGS
-------

Total SCF time: 0 days 0 hours 0 min 5 sec 

Total time                  ....       5.805 sec
Sum of individual times     ....       5.243 sec  ( 90.3%)

SCF preparation             ....       0.120 sec  (  2.1%)
Fock matrix formation       ....       3.908 sec  ( 67.3%)
  Startup                   ....       0.043 sec  (  1.1% of F)
  Coulomb formation         ....       0.750 sec  ( 19.2% of F)
  XC integration            ....       1.212 sec  ( 31.0% of F)
    XC Preparation          ....       0.000 sec  (  0.0% of XC)
    Basis function eval.    ....       0.035 sec  (  2.9% of XC)
    Density eval.           ....       0.029 sec  (  2.4% of XC)
    XC-Functional eval.     ....       0.024 sec  (  2.0% of XC)
    XC-Potential eval.      ....       0.074 sec  (  6.1% of XC)
Diagonalization             ....       0.000 sec  (  0.0%)
Density matrix formation    ....       0.556 sec  (  9.6%)
Total Energy calculation    ....       0.046 sec  (  0.8%)
Population analysis         ....       0.018 sec  (  0.3%)
Orbital Transformation      ....       0.063 sec  (  1.1%)
Orbital Orthonormalization  ....       0.000 sec  (  0.0%)
DIIS solution               ....       0.156 sec  (  2.7%)
SOSCF solution              ....       0.376 sec  (  6.5%)
Finished LeanSCF after   5.9 sec

Maximum memory used throughout the entire LEANSCF-calculation: 11.9 MB


           ************************************************************
           *        Program running with 8 parallel MPI-processes     *
           *              working on a common directory               *
           ************************************************************

------------------------------------------------------------------------------
                         ORCA PROPERTY INTEGRAL CALCULATIONS
------------------------------------------------------------------------------

GBWName                                   ... /cluster/projects/nn14654k/ylvaos/basis_set_n_funcs/functionals/N12/PCl/inp/PCl_N12_augccpvtz.gbw
Number of atoms                           ...      2
Number of basis functions                 ...    150
Max core memory                           ...   4096 MB

Dipole integrals                          ... YES
Quadrupole integrals                      ... YES
Linear momentum integrals                 ...  NO
Angular momentum integrals                ...  NO
Higher moments length integrals           ...  NO
Higher moments velocity integrals         ...  NO
Kinetic energy integrals                  ...  NO
GIAO right hand sides                     ...  NO
GIAO dipole derivative integrals          ...  NO
SOC integrals                             ...  NO
EPR diamagnetic integrals (GIAO)          ...  NO
EPR gauge integrals                       ...  NO
Field gradient integrals                  ...  NO (   0 nuclei)
Spin-dipole/Fermi contact integrals       ...  NO (   0 nuclei)
Contact density integrals                 ...  NO (   0 nuclei)
Nucleus-orbit integrals                   ...  NO (   0 nuclei)
Geometric perturbations                   ...  NO (   2 nuclei)

Choice of electric origin   ... Center of mass
Position of electric origin ... (  0.0000,  0.0000,  0.1285) 
Choice of magnetic origin   ... GIAO
Position of magnetic origin ... (  0.0000,  0.0000,  0.0000) 

Calculating integrals                     ... Electric Dipole (Length)     done (  0.0 sec)
Calculating integrals                     ... Electric Quadrupole (Length) done (  0.0 sec)

Property integrals calculated in   0.0 sec

Maximum memory used throughout the entire PROPINT-calculation: 8.1 MB
------------------------------------------------------------------------------
                           ORCA ORBITAL LOCALIZATION
------------------------------------------------------------------------------

Input orbitals are from                  ... /cluster/projects/nn14654k/ylvaos/basis_set_n_funcs/functionals/N12/PCl/inp/PCl_N12_augccpvtz.gbw
Output orbitals are to                   ... /cluster/projects/nn14654k/ylvaos/basis_set_n_funcs/functionals/N12/PCl/inp/PCl_N12_augccpvtz.loc
Max. number of iterations                ... 128
Localizations seeded randomly            ... on
Convergence tolerance                    ... 1.000e-06
Threshold for strong local MOs           ... 9.500e-01
Threshold for bond MOs                   ... 8.500e-01
Operator                                 ... 0
Orbital range for localization           ... 7 to 16
Localization criterion                   ... NEW-BOYS
Doing the dipole integrals               ... o.k.
Initial value of the localization sum :    36.094833
ITERATION   0 : L=   42.3346316111 DL=  6.24e+00 (AVERGE_DL)=    0.3723737355 
ITERATION   1 : L=   43.5747426670 DL=  1.24e+00 (AVERGE_DL)=    0.1660060947 
ITERATION   2 : L=   43.6893816197 DL=  1.15e-01 (AVERGE_DL)=    0.0504730847 
ITERATION   3 : L=   43.6907987801 DL=  1.42e-03 (AVERGE_DL)=    0.0056118137 
ITERATION   4 : L=   43.6908246969 DL=  2.59e-05 (AVERGE_DL)=    0.0007589000 
ITERATION   5 : L=   43.6908256331 DL=  9.36e-07 (AVERGE_DL)=    0.0001442363 
LOCALIZATION SUM CONVERGED


--------------------------------------------------------------------------------
                    LOCALIZED MOLECULAR ORBITAL COMPOSITIONS
--------------------------------------------------------------------------------

The Mulliken populations for each LMO on each atom are computed
The LMO`s will be ordered according to atom index and type
  (A) Strongly localized MO`s have populations of >=0.950 on one atom
  (B) Two center bond orbitals have populations of >=0.850 on two atoms
  (C) Other MO`s are considered to be `delocalized`

FOUND  -   9 strongly local MO`s
       -   1 two center bond MO`s
       -   0 significantly delocalized MO`s

Rather strongly localized orbitals:
MO  15:   1Cl -   1.006558
MO  14:   1Cl -   1.006558
MO  13:   1Cl -   1.006559
MO  12:   0P  -   1.001874
MO  11:   0P  -   1.014920
MO  10:   0P  -   1.014919
MO   9:   0P  -   1.001874
MO   8:   0P  -   1.001874
MO   7:   0P  -   1.014917
Bond-like localized orbitals:
MO  16:   1Cl -   0.670836  and   0P  -   0.329164
Localized MO's were stored in: /cluster/projects/nn14654k/ylvaos/basis_set_n_funcs/functionals/N12/PCl/inp/PCl_N12_augccpvtz.loc
------------------------------------------------------------------------------
                           ORCA ORBITAL LOCALIZATION
------------------------------------------------------------------------------

Input orbitals are from                  ... /cluster/projects/nn14654k/ylvaos/basis_set_n_funcs/functionals/N12/PCl/inp/PCl_N12_augccpvtz.loc
Output orbitals are to                   ... /cluster/projects/nn14654k/ylvaos/basis_set_n_funcs/functionals/N12/PCl/inp/PCl_N12_augccpvtz.loc
Max. number of iterations                ... 128
Localizations seeded randomly            ... on
Convergence tolerance                    ... 1.000e-06
Threshold for strong local MOs           ... 9.500e-01
Threshold for bond MOs                   ... 8.500e-01
Operator                                 ... 1
Orbital range for localization           ... 7 to 14
Localization criterion                   ... NEW-BOYS
Doing the dipole integrals               ... o.k.
Initial value of the localization sum :    25.808769
ITERATION   0 : L=   29.5861899357 DL=  3.78e+00 (AVERGE_DL)=    0.3672980960 
ITERATION   1 : L=   29.7948048600 DL=  2.09e-01 (AVERGE_DL)=    0.0863164701 
ITERATION   2 : L=   29.8054548760 DL=  1.07e-02 (AVERGE_DL)=    0.0195027617 
ITERATION   3 : L=   29.8074899024 DL=  2.04e-03 (AVERGE_DL)=    0.0085252280 
ITERATION   4 : L=   29.8085754190 DL=  1.09e-03 (AVERGE_DL)=    0.0062264315 
ITERATION   5 : L=   29.8090457142 DL=  4.70e-04 (AVERGE_DL)=    0.0040983238 
ITERATION   6 : L=   29.8092691337 DL=  2.23e-04 (AVERGE_DL)=    0.0028247599 
ITERATION   7 : L=   29.8093747113 DL=  1.06e-04 (AVERGE_DL)=    0.0019418101 
ITERATION   8 : L=   29.8094258639 DL=  5.12e-05 (AVERGE_DL)=    0.0013516207 
ITERATION   9 : L=   29.8094511324 DL=  2.53e-05 (AVERGE_DL)=    0.0009499721 
ITERATION  10 : L=   29.8094638850 DL=  1.28e-05 (AVERGE_DL)=    0.0006748703 
ITERATION  11 : L=   29.8094704483 DL=  6.56e-06 (AVERGE_DL)=    0.0004841523 
ITERATION  12 : L=   29.8094738833 DL=  3.44e-06 (AVERGE_DL)=    0.0003502569 
ITERATION  13 : L=   29.8094757042 DL=  1.82e-06 (AVERGE_DL)=    0.0002550147 
ITERATION  14 : L=   29.8094766787 DL=  9.74e-07 (AVERGE_DL)=    0.0001865525 
LOCALIZATION SUM CONVERGED


--------------------------------------------------------------------------------
                    LOCALIZED MOLECULAR ORBITAL COMPOSITIONS
--------------------------------------------------------------------------------

The Mulliken populations for each LMO on each atom are computed
The LMO`s will be ordered according to atom index and type
  (A) Strongly localized MO`s have populations of >=0.950 on one atom
  (B) Two center bond orbitals have populations of >=0.850 on two atoms
  (C) Other MO`s are considered to be `delocalized`

FOUND  -   4 strongly local MO`s
       -   4 two center bond MO`s
       -   0 significantly delocalized MO`s

Rather strongly localized orbitals:
MO  10:   0P  -   1.057258
MO   9:   0P  -   1.003895
MO   8:   0P  -   1.003894
MO   7:   0P  -   1.003894
Bond-like localized orbitals:
MO  14:   1Cl -   0.752867  and   0P  -   0.247133
MO  13:   1Cl -   0.944609  and   0P  -   0.055391
MO  12:   1Cl -   0.944711  and   0P  -   0.055289
MO  11:   1Cl -   0.944607  and   0P  -   0.055393
Localized MO's were stored in: /cluster/projects/nn14654k/ylvaos/basis_set_n_funcs/functionals/N12/PCl/inp/PCl_N12_augccpvtz.loc

-------------------------   --------------------
FINAL SINGLE POINT ENERGY      -801.515009780141
-------------------------   --------------------



           ************************************************************
           *        Program running with 8 parallel MPI-processes     *
           *              working on a common directory               *
           ************************************************************

------------------------------------------------------------------------------
                              ORCA PROPERTY CALCULATIONS
------------------------------------------------------------------------------

GBWName                                 ... /cluster/projects/nn14654k/ylvaos/basis_set_n_funcs/functionals/N12/PCl/inp/PCl_N12_augccpvtz.gbw
Number of atoms                         ...      2
Number of basis functions               ...    150
Max core memory                         ...   4096 MB

Electric properties:
Dipole moment                           ... YES
Quadrupole moment                       ... YES
Static polarizability (Dipole/Dipole)   ...  NO
Static polarizability (Dipole/Quad.)    ...  NO
Static polarizability (Quad./Quad.)     ...  NO
Static polarizability (Velocity)        ...  NO
Static hyperpolarizability              ...  NO

Atomic electric properties:
Dipole moment                           ...  NO
Quadrupole moment                       ...  NO
Static polarizability                   ...  NO

Choice of electric origin               ... Center of mass
Position of electric origin             ...     0.000000     0.000000     0.128541

General magnetic properties:
Magnetizability                         ...  NO

EPR properties:
g-Tensor (aka g-matrix)                 ...  NO
Zero-Field splitting spin-orbit         ...  NO
Zero-field splitting spin-spin          ...  NO
Hyperfine couplings                     ...  NO (   0 nuclei)
Quadrupole couplings                    ...  NO (   0 nuclei)
Contact density                         ...  NO (   0 nuclei)

NMR properties:
Chemical shifts                         ...  NO (   0 nuclei)
Spin-rotation constants                 ...  NO (   0 nuclei)
Spin-spin couplings                     ...  NO (   0 nuclei,    0 pairs)

Choice of magnetic origin               ... GIAO
Position of magnetic origin             ...     0.000000     0.000000     0.000000

Properties with geometric perturbations:
SCF Hessian                             ...  NO
IR spectrum                             ...  NO
VCD spectrum                            ...  NO
X-ray spectroscopy properties:
SCF XES/XAS/RIXS spectra                ...  NO

SCF SOC stabilization energy            ...  NO
Diagonal Born-Oppenheimer correction    ...  NO

-------------
DIPOLE MOMENT
-------------

Method             : SCF
Type of density    : Electron Density
Multiplicity       :   3
Irrep              :   0
Energy             :  -801.5150097801407583 Eh
Basis              : AO
                                X                 Y                 Z
Electronic contribution:      0.000000000       0.000000000       0.161398715
Nuclear contribution   :      0.000000000       0.000000000      -0.300588162
                        -----------------------------------------
Total Dipole Moment    :      0.000000000       0.000000000      -0.139189447
                        -----------------------------------------
Magnitude (a.u.)       :      0.139189447
Magnitude (Debye)      :      0.353791458



--------------------
Rotational spectrum 
--------------------
 
Rotational constants in cm-1:             0.000000             0.250508             0.250508 
Rotational constants in MHz :             0.000000          7510.026026          7510.026026 

Dipole components along the rotational axes: 
x,y,z [a.u.] :    -0.139189     0.000000     0.000000 
x,y,z [Debye]:    -0.353791     0.000000     0.000000 

 

Dipole moment calculation done in   0.0 sec 

-----------------
QUADRUPOLE MOMENT
-----------------

Method             : SCF
Type of density    : Electron Density
Multiplicity       :   3
Irrep              :   0
Energy             :  -801.5150097801407583 Eh
Basis              : AO

                XX              YY              ZZ              XY              XZ              YZ
  NUC        0.000000000     0.000000000   115.842698194     0.000000000     0.000000000     0.000000000
  EL       -19.044889000   -19.044889001  -133.907667505    -0.000000000    -0.000000001    -0.000000001
  TOT      -19.044889000   -19.044889001   -18.064969311    -0.000000000    -0.000000001    -0.000000001 (a.u.)
           -25.616027040   -25.616027041   -24.298001545    -0.000000001    -0.000000001    -0.000000002 (Buckingham)

diagonalized tensor:
           -19.044889001   -19.044889000   -18.064969311 (a.u.)
           -25.616027042   -25.616027040   -24.298001545 (Buckingham)
            -1.318025498    -1.318025493     2.636050991 (traceless form in Buckingham)

            -0.367211782    -0.930137359    -0.000000001
            -0.930137359     0.367211782    -0.000000001
            -0.000000001    -0.000000000     1.000000000
        
Isotropic quadrupole :   -18.718249104

Quadrupole moment calculation done in   0.0 sec (  0.0 sec for integrals)

Maximum memory used throughout the entire PROP-calculation: 4.3 MB

--------------------------------
SUGGESTED CITATIONS FOR THIS RUN
--------------------------------

Below you find a list of papers that are relevant to this ORCA run
We neither can nor want to force you to cite these papers, but we appreciate if you do
You receive ORCA, which is the product of decades of hard work by many enthusiastic individuals, for free
The only thing we kindly ask in return is that you cite our papers,
We deeply appreciate it, if you show your appreciation for ORCA by not just citing the generic ORCA reference.

Please note that relegating all ORCA citations to the supporting information does *not* help us.
SI sections are not indexed - citations you put there will not count into any citation statistics
But we need these citations in order to attract the funding resources that allow us to do what we are doing

Therefore, if you are a happy ORCA user, please consider citing a few of the papers listed below in the main body of your paper

In addition to the list printed below, the program has created the file /cluster/projects/nn14654k/ylvaos/basis_set_n_funcs/functionals/N12/PCl/inp/PCl_N12_augccpvtz.bibtex that contains the list in bibtex format
You can import this file easily into all common literature databanks and citation aid programs

It goes without saying that in many instances, there are alternative algorithms to achieve similar
results as the ones you have gotten from ORCA. It is, of course, also the case that in some instances
ORCA just re-implements algorithms worked out by others. We are fully aware of that and we are also
fully appreciative of our colleagues work. Hence this citation list should not be read as indicating
that the listed papers, which are focused on our own work, are the only ones worth citing. It simply
meant to make it easier for users to cite ORCA specific papers. It is not a substitute for doing your
own literature research and citing the relevant literature in a scientifically appropriate manner.

List of essential papers. We consider these as the minimum necessary citations

  1. Neese, F.
     Software update: the ORCA program system, version 6.0
     WIRES Comput. Molec. Sci. 2025 15(1), e70019
     doi.org/10.1002/wcms.70019

List of papers to cite with high priority. The work reported in these papers was absolutely
necessary for this run to complete.
Our perspective: the developers of density functionals and basis sets usually get cited in chemistry papers
Good! But without the algorithms to do something with them, the functionals or basis sets would not do anything.
Hence, in our opinion, the algorithm design and method developments papers are equally worthy of getting cited

  1. Lehtola, S.; Steigemann, C.; Oliveira, M.; Marques, M.
     Recent developments in Libxc - A comprehensive library of functionals for density functional theory
     Software X 2018 7 , 
     doi.org/10.1016/j.softx.2017.11.002
  2. Neese, F.
     The SHARK Integral Generation and Digestion System
     J. Comp. Chem. 2022 44(3), 381
     doi.org/10.1002/jcc.26942

List of suggested additional citations. These are papers that are important in the 'surrounding' of 
of this run, or papers that preceded the highly important papers. If you like your results we are grateful for a citation.

  1. Neese, F.
     The ORCA program system
     WIRES Comput. Molec. Sci. 2012 2(1), 73-78
     doi.org/10.1002/wcms.81
  2. Neese, F.
     Software update: the ORCA program system, version 4.0
     WIRES Comput. Molec. Sci. 2018 8(1), 1-6
     doi.org/10.1002/wcms.1327
  3. Neese, F.; Wennmohs, F.; Becker, U.; Riplinger, C.
     The ORCA quantum chemistry program package
     J. Chem. Phys. 2020 152(22), 224108
     doi.org/10.1063/5.0004608
  4. Neese, F.
     Software update: The ORCA program system—Version 5.0
     WIRES Comput. Molec. Sci. 2022 12(1), e1606
     doi.org/10.1002/wcms.1606

List of optional additional citations

  1. Neese, F.
     Approximate second-order SCF convergence for spin unrestricted wavefunctions
     Chem. Phys. Lett. 2000 325(1-3), 93-98
     doi.org/10.1016/s0009-2614(00)00662-x

Timings for individual modules:

Sum of individual times          ...        8.637 sec (=   0.144 min)
Startup calculation              ...        1.002 sec (=   0.017 min)  11.6 %
SCF iterations                   ...        6.976 sec (=   0.116 min)  80.8 %
Property integrals               ...        0.270 sec (=   0.004 min)   3.1 %
Property calculations            ...        0.363 sec (=   0.006 min)   4.2 %
Orbital localization             ...        0.026 sec (=   0.000 min)   0.3 %
                             ****ORCA TERMINATED NORMALLY****
TOTAL RUN TIME: 0 days 0 hours 0 minutes 11 seconds 373 msec
