
                                 *****************
                                 * O   R   C   A *
                                 *****************

                                            #,                                       
                                            ###                                      
                                            ####                                     
                                            #####                                    
                                            ######                                   
                                           ########,                                 
                                     ,,################,,,,,                         
                               ,,#################################,,                 
                          ,,##########################################,,             
                       ,#########################################, ''#####,          
                    ,#############################################,,   '####,        
                  ,##################################################,,,,####,       
                ,###########''''           ''''###############################       
              ,#####''   ,,,,##########,,,,          '''####'''          '####       
            ,##' ,,,,###########################,,,                        '##       
           ' ,,###''''                  '''############,,,                           
         ,,##''                                '''############,,,,        ,,,,,,###''
      ,#''                                            '''#######################'''  
     '                                                          ''''####''''         
             ,#######,   #######,   ,#######,      ##                                
            ,#'     '#,  ##    ##  ,#'     '#,    #''#        ,####,    ,#,          
            ##       ##  ##   ,#'  ##            #'  '#       #'       ,# #          
            ##       ##  #######   ##           ,######,      #####,      #          
            '#,     ,#'  ##    ##  '#,     ,#' ,#      #,     #,   #      #          
             '#######'   ##     ##  '#######'  #'      '#     '####' #    #          



                #########################################################
                #                        -***-                          #
                #          Department of theory and spectroscopy        #
                #                                                       #
                #                      Frank Neese                      #
                #                                                       #
                #     Directorship, Architecture, Infrastructure        #
                #                    SHARK, DRIVERS                     #
                #        Core code/Algorithms in most modules           #
                #                                                       #
                #        Max Planck Institute fuer Kohlenforschung      #
                #                Kaiser Wilhelm Platz 1                 #
                #                 D-45470 Muelheim/Ruhr                 #
                #                      Germany                          #
                #                                                       #
                #                  All rights reserved                  #
                #                        -***-                          #
                #########################################################


                         Program Version 6.1.1  -  RELEASE   -
                                (GIT: $487d211c$)
                          ($2025-11-21 10:33:24 +0100$)


 With contributions from (in alphabetic order):
[Max-Planck-Institut fuer Kohlenforschung]                               
  Daniel Aravena         : Magnetic Suceptibility                        
  Michael Atanasov       : Ab Initio Ligand Field Theory (pilot matlab implementation)
  Alexander A. Auer      : GIAO ZORA, VPT2 properties, NMR spectrum      
  Ute Becker             : All parallelization in ORCA, NUMFREQ, NUMCALC 
  Giovanni Bistoni       : ED, misc. LED, open-shell LED, HFLD           
  Dmytro Bykov           : pre 5.0 version of the SCF Hessian            
  Marcos Casanova-Páez   : Triplet and SCS-CIS(D). UHF-(DLPNO)-IP/EA/STEOM-CCSD. UHF-CVS-IP/STEOM-CCSD   
  Vijay G. Chilkuri      : MRCI spin determinant printing, contributions to CSF-ICE 
  Pauline Colinet        : FMM embedding                                 
  Dipayan Datta          : RHF DLPNO-CCSD density                        
  Achintya Kumar Dutta   : EOM-CC, STEOM-CC                              
  Nicolas Foglia         : Exact transition moments, OPA infrastructure, MCD improvements    
  Dmitry Ganyushin       : Spin-Orbit,Spin-Spin,Magnetic field MRCI      
  Miquel Garcia-Rates    : C-PCM and meta-GGA Hessian, CCSD/C-PCM, Gaussian charge scheme 
  Tiago L. C. Gouveia    : GS-ROHF, GS-ROCIS                             
  Yang Guo               : DLPNO-NEVPT2, F12-NEVPT2, CIM, IAO-localization        
  Andreas Hansen         : Spin unrestricted coupled pair/coupled cluster methods 
  Ingolf Harden          : AUTO-CI MPn and infrastructure                
  Benjamin Helmich-Paris : MC-RPA, TRAH-(SCF,CASSCF), AVAS, COSX integrals, SCF dyn. polar., MC-PDFT, srDFT 
  Lee Huntington         : MR-EOM, pCC                                   
  Robert Izsak           : Overlap fitted RIJCOSX, COSX-SCS-MP3, EOM     
  Riya Kayal             : Wick's Theorem for AUTO-CI, AUTO-CI UHF-CCSDT 
  Emily Kempfer          : AUTO-CI RHF CISDT and CCSDT, approximate NEVPT4
  Christian Kollmar      : KDIIS, OOCD, Brueckner-CCSD(T), CCSD density, CASPT2, CASPT2-K, improved NEVPT2 
  Axel Koslowski         : Symmetry handling                             
  Simone Kossmann        : meta-GGA functionals, TD-DFT gradient, OOMP2, (MP2 Hessian; deprecated post 5.0) 
  Lucas Lang             : DCDCAS, Hyperfine gauge corrections, ICE-SOC+SSC
  Marvin Lechner         : AUTO-CI (C++ implementation), FIC-MRCC        
  Spencer Leger          : CASSCF response                               
  Dagmar Lenk            : GEPOL surface, SMD, ORCA-2-JSON               
  Dimitrios Liakos       : Extrapolation schemes; Compound Job, Property file
  Dimitrios Manganas     : Further ROCIS development; embedding schemes. LFT, Crystal Embedding 
  Dimitrios Pantazis     : SARC Basis sets                               
  Anastasios Papadopoulos: AUTO-CI, single reference methods and gradients 
  Taras Petrenko         : pre 6.0 DFT Hessian and TD-DFT gradient,  ECA, NRVS 
  Petra Pikulova         : Analytic Raman intensities                    
  Peter Pinski           : DLPNO-MP2, DLPNO-MP2 Gradient                 
  Shashank Vittal Rao    : ES-AILFT, MagRelax                            
  Christoph Reimann      : Effective Core Potentials                     
  Marius Retegan         : Local ZFS, SOC                                
  Christoph Riplinger    : Optimizer, TS searches, QM/MM, DLPNO-CCSD(T), (RO)-DLPNO pert. Triples 
  Michael Roemelt        : Original ROCIS implementation, recursive CI coupling coefficients
  Masaaki Saitow         : Open-shell DLPNO-CCSD energy and density      
  Barbara Sandhoefer     : DKH picture change effects                    
  Yorick L. A. Schmerwitz: GMF and freeze-and-release deltaSCF, NEB S-IDPP initial path                    
  Kantharuban Sivalingam : CASSCF convergence/infrastructure, NEVPT2, NEVPT3, NEVPT4(SD), FIC-MRCI and CEPA variants
  Bernardo de Souza      : ESD, SOC TD-DFT                               
  Georgi L. Stoychev     : AutoAux, RI-MP2 NMR, DLPNO-MP2 response, X2C  
  Van Anh Tran           : RI-MP2 g-tensors                              
  Willem Van den Heuvel  : Paramagnetic NMR                              
  Zikuan Wang            : NOTCH, Electric field optimization            
  Frank Wennmohs         : Technical directorship and infrastructure     
  Hang Xu                : AUTO-CI-Response properties                   
                                                                         
[FACCTs GmbH]                                                            
  Markus Bursch, Nicolas Foglia, Miquel Garcia-Rates, Ingolf Harden, Hagen Neugebauer, Anastasios Papadopoulos, 
  Christoph Riplinger, Bernardo de Souza, Georgi L. Stoychev                                                    
                                                                 
  APM, various basis sets, CI-OPT, improved COSX, DLPNO-Multilevel,           
  DOCKER, DRACO, updates on ESD, Fragmentator, GOAT, IRC, LR-CPCM, L-BFGS, MBIS, meta-GGA TD-DFT gradient, ML-optimized integration grids, 
  MM, NACMEs, nearIR, NEB, NEB-TS, NL-DFT gradient (VV10), 2- and 3-layer-ONIOM, interface openCOSMO-RS, QMMM,   
  Crystal-QMMM, RESP, rigid body optimization, SF, symmetry and pop. for TD-DFT, various functionals, SOLVATOR                                   
                                                                         
[Other institutions]                                                     
  V. Asgeirsson          : NEB                                           
  Christoph Bannwarth    : sTDA-DFT, sTD-DFT, PBEh-3c, B97-3c, D3        
  Giovanni Bistoni       : ETS/NOCV, ADLD/ADEX, COVALED                  
  Martin Brehm           : Molecular dynamics                            
  Ronald Cardenas        : ETS/NOCV                                      
  Martina Colucci        : COVALED                                       
  Sebastian Ehlert       : rSCAN, r2SCAN, r2SCAN-3c, D4, dhf basis sets  
  Marvin Friede          : D4 for Fr, Ra, Ac-Lr                          
  Lars Goerigk           : TD-DFT with DH, B97 family of functionals     
  Stefan Grimme          : VdW corrections, initial TS optimization, DFT functionals, gCP, sTDA/sTD-DF 
  Waldemar Hujo          : DFT-NL                                        
  H. Jonsson             : NEB                                           
  Holger Kruse           : gCP                                           
  Marcel Mueller         : wB97X-3c, vDZP basis set                      
  Hagen Neugebauer       : wr2SCAN, Native XTB                           
  Gianluca Regni         : ADLD/ADEX                                     
  Tobias Risthaus        : pre 6.0 range-separated hybrid DFT and stability analysis
  Lukas Wittmann         : regularized MP2, r2SCAN double-hybrids, wr2SCAN        
                                                                         
We gratefully acknowledge several colleagues who have allowed us to      
interface, adapt or use parts of their codes:                            
  Ed Valeev, F. Pavosevic, A. Kumar             : LibInt (2-el integral package), F12 methods 
  Garnet Chan, S. Sharma, J. Yang, R. Olivares  : DMRG                   
  Ulf Ekstrom                                   : XCFun DFT Library      
  Mihaly Kallay                                 : mrcc  (arbitrary order and MRCC methods)
  Frank Weinhold                                : gennbo (NPA and NBO analysis)           
  Simon Mueller                                 : openCOSMO-RS                            
  Christopher J. Cramer and Donald G. Truhlar   : smd solvation model                     
  S Lehtola, MJT Oliveira, MAL Marques          : LibXC Library                           
  Liviu Ungur et al                             : ANISO software                          


 Your calculation uses the libint2 library for the computation of 2-el integrals
 For citations please refer to: http://libint.valeyev.net

 Your ORCA version has been built with support for libXC version: 7.0.0
 For citations please refer to: https://libxc.gitlab.io

 This ORCA versions uses:
   CBLAS   interface :  Fast vector & matrix operations
   LAPACKE interface :  Fast linear algebra routines
   SCALAPACK package :  Parallel linear algebra routines
   Shared memory     :  Shared parallel matrices
   BLAS/LAPACK       :  OpenBLAS 0.3.29  USE64BITINT DYNAMIC_ARCH NO_AFFINITY Cooperlake SINGLE_THREADED
        Core in use  :  Cooperlake
   Copyright (c) 2011-2014, The OpenBLAS Project


  ***********************************
  * Starting time: Wed May 20 12:41:04 2026
  * Host name:     c1-38
  * Process ID:    3794581
  * Working dir.:  /cluster/projects/nn14654k/ylvaos/basis_set_n_funcs/functionals/gga_x_pbe/SiH2/out
  ***********************************

Using LibXC functional ID 101 : Perdew, Burke & Ernzerhof
[ 1]  J. P. Perdew, K. Burke, and M. Ernzerhof.,  Phys. Rev. Lett. 77, 3865 (1996)
[ 2]  J. P. Perdew, K. Burke, and M. Ernzerhof.,  Phys. Rev. Lett. 78, 1396 (1997)
Using LibXC functional ID 101 : Perdew, Burke & Ernzerhof
[ 1]  J. P. Perdew, K. Burke, and M. Ernzerhof.,  Phys. Rev. Lett. 77, 3865 (1996)
[ 2]  J. P. Perdew, K. Burke, and M. Ernzerhof.,  Phys. Rev. Lett. 78, 1396 (1997)
Your calculation utilizes LibXC
by S. Lehtola, C. Steigemann, M. J. T. Oliveira & M. A. L. Marques
Please cite in your paper:
Lehtola, S.; Steigemann, C.; Oliveira, M.J.T.; Marques, M. A. L. Software X, 7, (2018), 1.
   

================================================================================

----- Orbital basis set information -----
Your calculation utilizes the basis: def2-QZVP
   F. Weigend and R. Ahlrichs, Phys. Chem. Chem. Phys. 7, 3297 (2005).

================================================================================
                                        WARNINGS
                       Please study these warnings very carefully!
================================================================================


================================================================================
                                       INPUT FILE
================================================================================
NAME = /cluster/projects/nn14654k/ylvaos/basis_set_n_funcs/functionals/gga_x_pbe/SiH2/inp/SiH2_gga_x_pbe_def2qzvp.inp
|  1> ! dft def2-QZVP TightSCF
|  2> %pal nprocs 8 end
|  3> 
|  4> %loc
|  5>   LocMet NewBoys
|  6>   Occ true
|  7> end
|  8> 
|  9> %method
| 10>   exchange gga_x_pbe
| 11>   correlation None
| 12> end
| 13> 
| 14> %elprop
| 15>   Dipole true
| 16>   Quadrupole true
| 17> end
| 18> 
| 19> * xyz 0 1
| 20> Si    0.000000000000   0.000000000000   0.000000000000
| 21> H    0.000000000000   0.000000000000  -1.514100000000
| 22> H    0.000000000000   1.513200000000   0.052800000000
| 23> *
| 24> 
| 25> 
| 26>                          ****END OF INPUT****
================================================================================

                       ****************************
                       * Single Point Calculation *
                       ****************************

---------------------------------
CARTESIAN COORDINATES (ANGSTROEM)
---------------------------------
  Si     0.000000    0.000000    0.000000
  H      0.000000    0.000000   -1.514100
  H      0.000000    1.513200    0.052800

----------------------------
CARTESIAN COORDINATES (A.U.)
----------------------------
  NO LB      ZA    FRAG     MASS         X           Y           Z
   0 Si   14.0000    0    28.086    0.000000    0.000000    0.000000
   1 H     1.0000    0     1.008    0.000000    0.000000   -2.861234
   2 H     1.0000    0     1.008    0.000000    2.859534    0.099778

--------------------------------
INTERNAL COORDINATES (ANGSTROEM)
--------------------------------
 Si     0   0   0     0.000000000000     0.00000000     0.00000000
 H      1   0   0     1.514100000000     0.00000000     0.00000000
 H      1   2   0     1.514120893456    91.99840755     0.00000000

---------------------------
INTERNAL COORDINATES (A.U.)
---------------------------
 Si     0   0   0     0.000000000000     0.00000000     0.00000000
 H      1   0   0     2.861234339370     0.00000000     0.00000000
 H      1   2   0     2.861273822280    91.99840755     0.00000000

---------------------
BASIS SET INFORMATION
---------------------
There are 2 groups of distinct atoms

 Group   1 Type Si  : 20s14p4d2f1g contracted to 9s6p4d2f1g pattern {1031111111/821111/1111/11/1}
 Group   2 Type H   : 7s3p2d1f contracted to 4s3p2d1f pattern {4111/111/11/1}

Atom   0Si   basis set group =>   1
Atom   1H    basis set group =>   2
Atom   2H    basis set group =>   2


           ************************************************************
           *        Program running with 8 parallel MPI-processes     *
           *              working on a common directory               *
           ************************************************************
------------------------------------------------------------------------------
                             ORCA STARTUP CALCULATIONS
------------------------------------------------------------------------------
------------------------------------------------------------------------------
                   ___                                                        
                  /   \      - P O W E R E D   B Y -                         
                 /     \                                                     
                 |  |  |   _    _      __       _____    __    __             
                 |  |  |  | |  | |    /  \     |  _  \  |  |  /  |          
                  \  \/   | |  | |   /    \    | | | |  |  | /  /          
                 / \  \   | |__| |  /  /\  \   | |_| |  |  |/  /          
                |  |  |   |  __  | /  /__\  \  |    /   |      \           
                |  |  |   | |  | | |   __   |  |    \   |  |\   \          
                \     /   | |  | | |  |  |  |  | |\  \  |  | \   \       
                 \___/    |_|  |_| |__|  |__|  |_| \__\ |__|  \__/        
                                                                              
                      - O R C A' S   B I G   F R I E N D -                    
                                      &                                       
                       - I N T E G R A L  F E E D E R -                       
                                                                              
 v1 FN, 2020, v2 2021, v3 2022-2024                                           
------------------------------------------------------------------------------


----------------------
SHARK INTEGRAL PACKAGE
----------------------

Number of atoms                             ...      3
Number of basis functions                   ...    130
Number of shells                            ...     42
Maximum angular momentum                    ...      4
Integral batch strategy                     ... SHARK/LIBINT Hybrid
RI-J (if used) integral strategy            ... SPLIT-RIJ (Revised 2003 algorithm where possible)
Printlevel                                  ...      1
Contraction scheme used                     ... SEGMENTED contraction
Prescreening option                         ... SCHWARTZ
   Thresh                                   ... 2.500e-11
   Tcut                                     ... 2.500e-12
   Tpresel                                  ... 2.500e-12 
Coulomb Range Separation                    ... NOT USED
Exchange Range Separation                   ... NOT USED
Multipole approximations                    ... NOT USED
Finite Nucleus Model                        ... NOT USED
CABS basis                                  ... NOT available
Auxiliary Coulomb fitting basis             ... NOT available
Auxiliary J/K fitting basis                 ... NOT available
Auxiliary Correlation fitting basis         ... NOT available
Auxiliary 'external' fitting basis          ... NOT available

Checking pre-screening integrals            ... done (  0.0 sec) Dimension = 42
   => SHARK Basis and OBASIS are compatible. Storing Pre-screening
Shell pair information
Shell pair cut-off parameter TPreSel        ...   2.5e-12
Total number of shell pairs                 ...       903
Shell pairs after pre-screening             ...       903
Total number of primitive shell pairs       ...      2367
Primitive shell pairs kept                  ...      2212
          la=0 lb=0:    153 shell pairs
          la=1 lb=0:    204 shell pairs
          la=1 lb=1:     78 shell pairs
          la=2 lb=0:    136 shell pairs
          la=2 lb=1:     96 shell pairs
          la=2 lb=2:     36 shell pairs
          la=3 lb=0:     68 shell pairs
          la=3 lb=1:     48 shell pairs
          la=3 lb=2:     32 shell pairs
          la=3 lb=3:     10 shell pairs
          la=4 lb=0:     17 shell pairs
          la=4 lb=1:     12 shell pairs
          la=4 lb=2:      8 shell pairs
          la=4 lb=3:      4 shell pairs
          la=4 lb=4:      1 shell pairs

Checking whether 4 symmetric matrices of dimension 130 fit in memory
:Max Core in MB      =   4096.00
 MB in use           =      4.34
 MB left             =   4091.66
 MB needed           =      0.26
 Data fit in memory  = YES
Calculating Nuclear repulsion               ... done (  0.0 sec) ENN=     10.028851096195 Eh

Diagonalization of the overlap matrix:
Smallest eigenvalue                        ... 3.573e-04
Time for diagonalization                   ...    0.001 sec
Threshold for overlap eigenvalues          ... 1.000e-07
Number of eigenvalues below threshold      ... 0
Time for construction of square roots      ...    0.003 sec
Total time needed                          ...    0.007 sec

-------------------
DFT GRID GENERATION
-------------------

General Integration Accuracy     IntAcc      ... 4.388
Radial Grid Type                 RadialGrid  ... OptM3 with GC (2021)
Angular Grid (max. ang.)         AngularGrid ... 4 (Lebedev-302)
Angular grid pruning method      GridPruning ... 4 (adaptive)
Weight generation scheme         WeightScheme... mBecke (2022)
Basis function cutoff            BFCut       ... 1.0000e-11
Integration weight cutoff        WCut        ... 1.0000e-14
Partially contracted basis set               ... off
Rotationally invariant grid construction     ... off
Angular grids for H and He will be reduced by one unit

Total number of grid points                  ...    13986
Total number of batches                      ...      220
Average number of points per batch           ...       63
Average number of grid points per atom       ...     4662
Grids setup in   0.0 sec
Initializing property integral containers    ... done (  0.0 sec)

SHARK setup successfully completed in   0.2 seconds

Maximum memory used throughout the entire STARTUP-calculation: 33.4 MB


           ************************************************************
           *        Program running with 8 parallel MPI-processes     *
           *              working on a common directory               *
           ************************************************************
-------------------------------------------------------------------------------
                                 ORCA GUESS
                   Start orbitals & Density for SCF / CASSCF
-------------------------------------------------------------------------------

------------
SCF SETTINGS
------------
Hamiltonian:
 Density Functional     Method          .... DFT(GTOs)
  Functional kind                       .... Exchange
  Functional name                       .... Perdew, Burke & Ernzerhof
  Functional family                     .... GGA
  Functional refs                              
    [ 0] J. P. Perdew, K. Burke, and M. Ernzerhof.,  Phys. Rev. Lett. 77, 3865 (1996), doi: 10.1103/PhysRevLett.77.3865
    [ 1] J. P. Perdew, K. Burke, and M. Ernzerhof.,  Phys. Rev. Lett. 78, 1396 (1997), doi: 10.1103/PhysRevLett.78.1396
  Functional external parameters        .... 2
    Parameter  0 _kappa     =  8.040000e-01 : Asymptotic value of the enhancement function
    Parameter  1 _mu        =  2.195150e-01 : Coefficient of the 2nd order expansion
 Correlation Functional Correlation     .... No Correlation
 Gradients option       PostSCFGGA      .... off


General Settings:
 Integral files         IntName         .... /cluster/projects/nn14654k/ylvaos/basis_set_n_funcs/functionals/gga_x_pbe/SiH2/inp/SiH2_gga_x_pbe_def2qzvp
 Hartree-Fock type      HFTyp           .... RHF
 Total Charge           Charge          ....    0
 Multiplicity           Mult            ....    1
 Number of Electrons    NEL             ....   16
 Basis Dimension        Dim             ....  130
 Nuclear Repulsion      ENuc            ....     10.0288510962 Eh

Convergence Acceleration:
 AO-DIIS                CNVDIIS         .... on
   Start iteration      DIISMaxIt       ....    12
   Startup error        DIISStart       ....  0.200000
   # of expansion vecs  DIISMaxEq       ....     5
   Bias factor          DIISBfac        ....   1.050
   Max. coefficient     DIISMaxC        ....  10.000
 MO-DIIS                CNVKDIIS        .... off
 Trust-Rad. Augm. Hess. CNVTRAH         .... auto
   Auto Start mean grad. ratio tolernc. ....  1.125000
   Auto Start start iteration           ....    50
   Auto Start num. interpolation iter.  ....    10
   Max. Number of Micro iterations      ....    24
   Max. Number of Macro iterations      .... Maxiter - #DIIS iter
   Number of Davidson start vectors     ....     2
   Converg. threshold    (grad. norm)   ....   1.000e-05
   Grad. Scal. Fac. for Micro threshold ....   0.100
   Minimum threshold for Micro iter.    ....   1.000e-02
   NR start threshold (gradient norm)   ....   1.000e-04
   Initial trust radius                 ....   0.400
   Minimum AH scaling param. (alpha)    ....   1.000
   Maximum AH scaling param. (alpha)    .... 1000.000
   Quad. conv. algorithm                .... NR
   White noise on init. David. guess    .... on
   Maximum white noise                  ....   0.010
   Pseudo random numbers                .... off
   Inactive MOs                         .... canonical
   Orbital update algorithm             .... Taylor
   Preconditioner                       .... Diag
   Full preconditioner red. dimension   ....   250
 SOSCF                 CNVSOSCF           .... on
   Start iteration     SOSCFMaxIt         ....   150
   Startup grad/error  SOSCFStart         ....  0.003300
   Hessian update      SOSCFHessUp        .... L-BFGS
   Autom. constraints  SOSCFAutoConstrain .... off
 Level Shifting         CNVShift        .... on
   Level shift para.    LevelShift      ....    0.2500
   Turn off err/grad.   ShiftErr        ....    0.0010
 Zerner damping         CNVZerner       .... off
 Static damping         CNVDamp         .... on
   Fraction old density DampFac         ....    0.7000
   Max. Damping (<1)    DampMax         ....    0.9800
   Min. Damping (>=0)   DampMin         ....    0.0000
   Turn off err/grad.   DampErr         ....    0.1000

SCF Procedure:
 Maximum # iterations   MaxIter         ....   125
 SCF integral mode      SCFMode         .... Direct
   Integral package                     .... SHARK and LIBINT hybrid scheme
 Reset frequency        DirectResetFreq ....    20
 Integral Threshold     Thresh          ....  2.500e-11 Eh
 Primitive CutOff       TCut            ....  2.500e-12 Eh

Convergence Tolerance:
 Convergence Check Mode ConvCheckMode   .... Total+1el-Energy
 Convergence forced     ConvForced      .... 0
 Energy Change          TolE            ....  1.000e-08 Eh
 1-El. energy change                    ....  1.000e-05 Eh
 Orbital Gradient       TolG            ....  1.000e-05
 Orbital Rotation angle TolX            ....  1.000e-05
 DIIS Error             TolErr          ....  5.000e-07

------------------------------
INITIAL GUESS: MODEL POTENTIAL
------------------------------
Loading Hartree-Fock densities                     ... done
Calculating cut-offs                               ... done
Initializing the effective Hamiltonian             ... done
Setting up the integral package (SHARK)            ... done
Starting the Coulomb interaction                   ... done (   0.0 sec)
Making the grid                                    ... done (   0.0 sec)
Mapping shells                                     ... done
Starting the XC term evaluation                    ... done (   0.0 sec)
  promolecular density results
     # of electrons  =     16.000312466
     EX              =    -20.740960509
     EC              =      0.000000000
     EX+EC           =    -20.740960509
Transforming the Hamiltonian                       ... done (   0.0 sec)
Diagonalizing the Hamiltonian                      ... done (   0.0 sec)
Back transforming the eigenvectors                 ... done (   0.0 sec)
Now organizing SCF variables                       ... done
                      ------------------
                      INITIAL GUESS DONE (   0.1 sec)
                      ------------------
             **** ENERGY FILE WAS UPDATED (/cluster/projects/nn14654k/ylvaos/basis_set_n_funcs/functionals/gga_x_pbe/SiH2/inp/SiH2_gga_x_pbe_def2qzvp.en.tmp) ****
Finished Guess after   0.2 sec
Maximum memory used throughout the entire GUESS-calculation: 10.2 MB


           ************************************************************
           *        Program running with 8 parallel MPI-processes     *
           *              working on a common directory               *
           ************************************************************

-------------------------------------------------------------------------------------------
                                      ORCA LEAN-SCF
                              memory conserving SCF solver
-------------------------------------------------------------------------------------------

----------------------------------------D-I-I-S--------------------------------------------
Iteration    Energy (Eh)           Delta-E    RMSDP     MaxDP     DIISErr   Damp  Time(sec)
-------------------------------------------------------------------------------------------
               ***  Starting incremental Fock matrix formation  ***
    1    -289.9014632600324148     0.00e+00  1.52e-03  1.95e-02  9.40e-02  0.700   0.3
Warning: op=0 Small HOMO/LUMO gap (   0.060) - skipping pre-diagonalization
         Will do a full diagonalization
    2    -289.9072441859414653    -5.78e-03  1.55e-03  2.09e-02  6.07e-02  0.700   0.3
                               ***Turning on AO-DIIS***
    3    -289.9106150305311758    -3.37e-03  8.12e-04  1.15e-02  3.15e-02  0.700   0.5
    4    -289.9125152799941247    -1.90e-03  1.53e-03  2.02e-02  1.89e-02  0.000   0.4
                              *** Initializing SOSCF ***
---------------------------------------S-O-S-C-F--------------------------------------
Iteration    Energy (Eh)           Delta-E    RMSDP     MaxDP     MaxGrad    Time(sec)
--------------------------------------------------------------------------------------
    5    -289.9163319437998325    -3.82e-03  2.72e-04  3.97e-03  3.22e-03     0.4
               *** Restarting incremental Fock matrix formation ***
    6    -289.9163656779324469    -3.37e-05  2.02e-04  1.29e-03  6.59e-04     0.2
    7    -289.9163693805820685    -3.70e-06  5.72e-05  7.27e-04  2.54e-04     0.2
    8    -289.9163702302458887    -8.50e-07  2.27e-05  3.33e-04  5.88e-05     0.2
    9    -289.9163702739857058    -4.37e-08  6.54e-06  9.50e-05  2.22e-05     0.2
   10    -289.9163702826842837    -8.70e-09  8.48e-07  8.65e-06  4.12e-06     0.3
                 **** Energy Check signals convergence ****

               *****************************************************
               *                     SUCCESS                       *
               *           SCF CONVERGED AFTER  10 CYCLES          *
               *****************************************************

             **** ENERGY FILE WAS UPDATED (/cluster/projects/nn14654k/ylvaos/basis_set_n_funcs/functionals/gga_x_pbe/SiH2/inp/SiH2_gga_x_pbe_def2qzvp.en.tmp) ****

----------------
TOTAL SCF ENERGY
----------------

Total Energy       :       -289.91637028284913 Eh           -7889.02551 eV

Components:
Nuclear Repulsion  :         10.02885109619548 Eh             272.89891 eV
Electronic Energy  :       -299.94522137904460 Eh           -8161.92442 eV
One Electron Energy:       -421.74105877396175 Eh          -11476.15765 eV
Two Electron Energy:        121.79583739491716 Eh            3314.23323 eV

Virial components:
Potential Energy   :       -579.82667518165613 Eh          -15777.88596 eV
Kinetic Energy     :        289.91030489880700 Eh            7888.86046 eV
Virial Ratio       :          2.00002092158830

DFT components:
N(Alpha)           :        8.000001584909 electrons
N(Beta)            :        8.000001584909 electrons
N(Total)           :       16.000003169817 electrons
E(X)               :      -20.839234418080 Eh       
E(C)               :        0.000000000000 Eh       
E(XC)              :      -20.839234418080 Eh       

---------------
SCF CONVERGENCE
---------------

  Last Energy change         ...    8.6986e-09  Tolerance :   1.0000e-08
  Last MAX-Density change    ...    8.6542e-06  Tolerance :   1.0000e-07
  Last RMS-Density change    ...    8.4820e-07  Tolerance :   5.0000e-09
  Last DIIS Error            ...    3.2236e-03  Tolerance :   5.0000e-07
  Last Orbital Gradient      ...    4.1217e-06  Tolerance :   1.0000e-05
  Last Orbital Rotation      ...    7.1197e-06  Tolerance :   1.0000e-05


----------------
ORBITAL ENERGIES
----------------

  NO   OCC          E(Eh)            E(eV) 
   0   2.0000     -65.417369     -1780.0971 
   1   2.0000      -5.031716      -136.9199 
   2   2.0000      -3.454306       -93.9965 
   3   2.0000      -3.443750       -93.7092 
   4   2.0000      -3.440856       -93.6304 
   5   2.0000      -0.428971       -11.6729 
   6   2.0000      -0.263810        -7.1786 
   7   2.0000      -0.185866        -5.0577 
   8   0.0000      -0.121235        -3.2990 
   9   0.0000       0.017867         0.4862 
  10   0.0000       0.037510         1.0207 
  11   0.0000       0.079206         2.1553 
  12   0.0000       0.093185         2.5357 
  13   0.0000       0.105644         2.8747 
  14   0.0000       0.114079         3.1042 
  15   0.0000       0.136115         3.7039 
  16   0.0000       0.137677         3.7464 
  17   0.0000       0.139860         3.8058 
  18   0.0000       0.202436         5.5086 
*Only the first 10 virtual orbitals were printed.

                    ********************************
                    * MULLIKEN POPULATION ANALYSIS *
                    ********************************

-----------------------
MULLIKEN ATOMIC CHARGES
-----------------------
   0 Si:    0.203638
   1 H :   -0.101870
   2 H :   -0.101769
Sum of atomic charges:   -0.0000000

--------------------------------
MULLIKEN REDUCED ORBITAL CHARGES
--------------------------------
  0 Sis       :     5.791383  s :     5.791383
      pz      :     2.938156  p :     7.887656
      px      :     1.999824
      py      :     2.949676
      dz2     :     0.069094  d :     0.108758
      dxz     :     0.000001
      dyz     :     0.000437
      dx2y2   :     0.039225
      dxy     :     0.000001
      f0      :     0.003541  f :     0.007192
      f+1     :     0.000000
      f-1     :     0.002463
      f+2     :     0.000051
      f-2     :     0.000000
      f+3     :     0.000000
      f-3     :     0.001136
      g0      :     0.000749  g :     0.001373
      g+1     :    -0.000000
      g-1     :    -0.000001
      g+2     :     0.000264
      g-2     :    -0.000000
      g+3     :     0.000000
      g-3     :     0.000001
      g+4     :     0.000359
      g-4     :    -0.000000

  1 H s       :     1.077695  s :     1.077695
      pz      :     0.013207  p :     0.022367
      px      :     0.000035
      py      :     0.009125
      dz2     :     0.000800  d :     0.001756
      dxz     :     0.000047
      dyz     :     0.000869
      dx2y2   :     0.000041
      dxy     :     0.000000
      f0      :     0.000018  f :     0.000051
      f+1     :     0.000004
      f-1     :     0.000027
      f+2     :     0.000003
      f-2     :    -0.000000
      f+3     :    -0.000000
      f-3     :    -0.000000

  2 H s       :     1.077616  s :     1.077616
      pz      :     0.009158  p :     0.022347
      px      :     0.000035
      py      :     0.013154
      dz2     :     0.000302  d :     0.001754
      dxz     :     0.000000
      dyz     :     0.000860
      dx2y2   :     0.000545
      dxy     :     0.000047
      f0      :     0.000010  f :     0.000051
      f+1     :     0.000000
      f-1     :     0.000011
      f+2     :     0.000016
      f-2     :     0.000000
      f+3     :     0.000004
      f-3     :     0.000010



                     *******************************
                     * LOEWDIN POPULATION ANALYSIS *
                     *******************************

----------------------
LOEWDIN ATOMIC CHARGES
----------------------
   0 Si:    0.360067
   1 H :   -0.180039
   2 H :   -0.180028

-------------------------------
LOEWDIN REDUCED ORBITAL CHARGES
-------------------------------
  0 Sis       :     5.287741  s :     5.287741
      pz      :     3.048124  p :     8.111391
      px      :     1.999393
      py      :     3.063875
      dz2     :     0.118657  d :     0.191500
      dxz     :     0.000001
      dyz     :     0.001410
      dx2y2   :     0.071430
      dxy     :     0.000001
      f0      :     0.020424  f :     0.042458
      f+1     :     0.000000
      f-1     :     0.011411
      f+2     :     0.000894
      f-2     :     0.000000
      f+3     :     0.000001
      f-3     :     0.009728
      g0      :     0.003605  g :     0.006844
      g+1     :     0.000000
      g-1     :     0.000171
      g+2     :     0.001128
      g-2     :     0.000000
      g+3     :     0.000000
      g-3     :     0.000097
      g+4     :     0.001843
      g-4     :     0.000000

  1 H s       :     1.039002  s :     1.039002
      pz      :     0.084804  p :     0.122493
      px      :     0.000137
      py      :     0.037552
      dz2     :     0.009926  d :     0.017744
      dxz     :     0.000149
      dyz     :     0.007537
      dx2y2   :     0.000132
      dxy     :     0.000000
      f0      :     0.000445  f :     0.000800
      f+1     :     0.000016
      f-1     :     0.000323
      f+2     :     0.000015
      f-2     :     0.000000
      f+3     :     0.000000
      f-3     :     0.000000

  2 H s       :     1.039000  s :     1.039000
      pz      :     0.036585  p :     0.122486
      px      :     0.000137
      py      :     0.085764
      dz2     :     0.003123  d :     0.017743
      dxz     :     0.000000
      dyz     :     0.007260
      dx2y2   :     0.007211
      dxy     :     0.000149
      f0      :     0.000110  f :     0.000800
      f+1     :     0.000001
      f-1     :     0.000212
      f+2     :     0.000194
      f-2     :     0.000000
      f+3     :     0.000015
      f-3     :     0.000268



                      *****************************
                      * MAYER POPULATION ANALYSIS *
                      *****************************

  NA   - Mulliken gross atomic population
  ZA   - Total nuclear charge
  QA   - Mulliken gross atomic charge
  VA   - Mayer's total valence
  BVA  - Mayer's bonded valence
  FA   - Mayer's free valence

  ATOM       NA         ZA         QA         VA         BVA        FA
  0 Si    13.7964    14.0000     0.2036     1.9212     1.9212    -0.0000
  1 H      1.1019     1.0000    -0.1019     0.9712     0.9712     0.0000
  2 H      1.1018     1.0000    -0.1018     0.9712     0.9712     0.0000

  Mayer bond orders larger than 0.100000
B(  0-Si,  1-H ) :   0.9606 B(  0-Si,  2-H ) :   0.9606 

-------
TIMINGS
-------

Total SCF time: 0 days 0 hours 0 min 3 sec 

Total time                  ....       3.627 sec
Sum of individual times     ....       3.154 sec  ( 87.0%)

SCF preparation             ....       0.177 sec  (  4.9%)
Fock matrix formation       ....       1.955 sec  ( 53.9%)
  Startup                   ....       0.022 sec  (  1.1% of F)
  Coulomb formation         ....       1.244 sec  ( 63.6% of F)
  XC integration            ....       0.545 sec  ( 27.9% of F)
    XC Preparation          ....       0.000 sec  (  0.0% of XC)
    Basis function eval.    ....       0.023 sec  (  4.3% of XC)
    Density eval.           ....       0.016 sec  (  3.0% of XC)
    XC-Functional eval.     ....       0.005 sec  (  0.9% of XC)
    XC-Potential eval.      ....       0.039 sec  (  7.2% of XC)
Diagonalization             ....       0.000 sec  (  0.0%)
Density matrix formation    ....       0.310 sec  (  8.6%)
Total Energy calculation    ....       0.016 sec  (  0.4%)
Population analysis         ....       0.035 sec  (  1.0%)
Orbital Transformation      ....       0.060 sec  (  1.7%)
Orbital Orthonormalization  ....       0.000 sec  (  0.0%)
DIIS solution               ....       0.508 sec  ( 14.0%)
SOSCF solution              ....       0.093 sec  (  2.6%)
Finished LeanSCF after   3.8 sec

Maximum memory used throughout the entire LEANSCF-calculation: 32.4 MB


           ************************************************************
           *        Program running with 8 parallel MPI-processes     *
           *              working on a common directory               *
           ************************************************************

------------------------------------------------------------------------------
                         ORCA PROPERTY INTEGRAL CALCULATIONS
------------------------------------------------------------------------------

GBWName                                   ... /cluster/projects/nn14654k/ylvaos/basis_set_n_funcs/functionals/gga_x_pbe/SiH2/inp/SiH2_gga_x_pbe_def2qzvp.gbw
Number of atoms                           ...      3
Number of basis functions                 ...    130
Max core memory                           ...   4096 MB

Dipole integrals                          ... YES
Quadrupole integrals                      ... YES
Linear momentum integrals                 ...  NO
Angular momentum integrals                ...  NO
Higher moments length integrals           ...  NO
Higher moments velocity integrals         ...  NO
Kinetic energy integrals                  ...  NO
GIAO right hand sides                     ...  NO
GIAO dipole derivative integrals          ...  NO
SOC integrals                             ...  NO
EPR diamagnetic integrals (GIAO)          ...  NO
EPR gauge integrals                       ...  NO
Field gradient integrals                  ...  NO (   0 nuclei)
Spin-dipole/Fermi contact integrals       ...  NO (   0 nuclei)
Contact density integrals                 ...  NO (   0 nuclei)
Nucleus-orbit integrals                   ...  NO (   0 nuclei)
Geometric perturbations                   ...  NO (   3 nuclei)

Choice of electric origin   ... Center of mass
Position of electric origin ... (  0.0000,  0.0958, -0.0925) 
Choice of magnetic origin   ... GIAO
Position of magnetic origin ... (  0.0000,  0.0000,  0.0000) 

Calculating integrals                     ... Electric Dipole (Length)     done (  0.2 sec)
Calculating integrals                     ... Electric Quadrupole (Length) done (  0.1 sec)

Property integrals calculated in   0.3 sec

Maximum memory used throughout the entire PROPINT-calculation: 10.6 MB
------------------------------------------------------------------------------
                           ORCA ORBITAL LOCALIZATION
------------------------------------------------------------------------------

Input orbitals are from                  ... /cluster/projects/nn14654k/ylvaos/basis_set_n_funcs/functionals/gga_x_pbe/SiH2/inp/SiH2_gga_x_pbe_def2qzvp.gbw
Output orbitals are to                   ... /cluster/projects/nn14654k/ylvaos/basis_set_n_funcs/functionals/gga_x_pbe/SiH2/inp/SiH2_gga_x_pbe_def2qzvp.loc
Max. number of iterations                ... 128
Localizations seeded randomly            ... on
Convergence tolerance                    ... 1.000e-06
Threshold for strong local MOs           ... 9.500e-01
Threshold for bond MOs                   ... 8.500e-01
Operator                                 ... 0
Orbital range for localization           ... 2 to 7
Localization criterion                   ... NEW-BOYS
Doing the dipole integrals               ... o.k.
Initial value of the localization sum :     7.152130
ITERATION   0 : L=   10.4243935840 DL=  3.27e+00 (AVERGE_DL)=    0.4670662867 
ITERATION   1 : L=   10.5007699216 DL=  7.64e-02 (AVERGE_DL)=    0.0713565402 
ITERATION   2 : L=   10.5008695297 DL=  9.96e-05 (AVERGE_DL)=    0.0025769255 
ITERATION   3 : L=   10.5008722712 DL=  2.74e-06 (AVERGE_DL)=    0.0004275053 
ITERATION   4 : L=   10.5008722830 DL=  1.18e-08 (AVERGE_DL)=    0.0000280644 
LOCALIZATION SUM CONVERGED


--------------------------------------------------------------------------------
                    LOCALIZED MOLECULAR ORBITAL COMPOSITIONS
--------------------------------------------------------------------------------

The Mulliken populations for each LMO on each atom are computed
The LMO`s will be ordered according to atom index and type
  (A) Strongly localized MO`s have populations of >=0.950 on one atom
  (B) Two center bond orbitals have populations of >=0.850 on two atoms
  (C) Other MO`s are considered to be `delocalized`

FOUND  -   4 strongly local MO`s
       -   2 two center bond MO`s
       -   0 significantly delocalized MO`s

Rather strongly localized orbitals:
MO   5:   0Si -   1.023225
MO   4:   0Si -   0.999450
MO   3:   0Si -   0.998557
MO   2:   0Si -   0.999450
Bond-like localized orbitals:
MO   7:   2H  -   0.563787  and   0Si -   0.439006
MO   6:   1H  -   0.563830  and   0Si -   0.438976
Localized MO's were stored in: /cluster/projects/nn14654k/ylvaos/basis_set_n_funcs/functionals/gga_x_pbe/SiH2/inp/SiH2_gga_x_pbe_def2qzvp.loc

-------------------------   --------------------
FINAL SINGLE POINT ENERGY      -289.916370282849
-------------------------   --------------------



           ************************************************************
           *        Program running with 8 parallel MPI-processes     *
           *              working on a common directory               *
           ************************************************************

------------------------------------------------------------------------------
                              ORCA PROPERTY CALCULATIONS
------------------------------------------------------------------------------

GBWName                                 ... /cluster/projects/nn14654k/ylvaos/basis_set_n_funcs/functionals/gga_x_pbe/SiH2/inp/SiH2_gga_x_pbe_def2qzvp.gbw
Number of atoms                         ...      3
Number of basis functions               ...    130
Max core memory                         ...   4096 MB

Electric properties:
Dipole moment                           ... YES
Quadrupole moment                       ... YES
Static polarizability (Dipole/Dipole)   ...  NO
Static polarizability (Dipole/Quad.)    ...  NO
Static polarizability (Quad./Quad.)     ...  NO
Static polarizability (Velocity)        ...  NO
Static hyperpolarizability              ...  NO

Atomic electric properties:
Dipole moment                           ...  NO
Quadrupole moment                       ...  NO
Static polarizability                   ...  NO

Choice of electric origin               ... Center of mass
Position of electric origin             ...     0.000000     0.095755    -0.092471

General magnetic properties:
Magnetizability                         ...  NO

EPR properties:
g-Tensor (aka g-matrix)                 ...  NO
Zero-Field splitting spin-orbit         ...  NO
Zero-field splitting spin-spin          ...  NO
Hyperfine couplings                     ...  NO (   0 nuclei)
Quadrupole couplings                    ...  NO (   0 nuclei)
Contact density                         ...  NO (   0 nuclei)

NMR properties:
Chemical shifts                         ...  NO (   0 nuclei)
Spin-rotation constants                 ...  NO (   0 nuclei)
Spin-spin couplings                     ...  NO (   0 nuclei,    0 pairs)

Choice of magnetic origin               ... GIAO
Position of magnetic origin             ...     0.000000     0.000000     0.000000

Properties with geometric perturbations:
SCF Hessian                             ...  NO
IR spectrum                             ...  NO
VCD spectrum                            ...  NO
X-ray spectroscopy properties:
SCF XES/XAS/RIXS spectra                ...  NO

SCF SOC stabilization energy            ...  NO
Diagonal Born-Oppenheimer correction    ...  NO

-------------
DIPOLE MOMENT
-------------

Method             : SCF
Type of density    : Electron Density
Multiplicity       :   1
Irrep              :   0
Energy             :  -289.9163702828491296 Eh
Basis              : AO
                                X                 Y                 Z
Electronic contribution:     -0.000000000      -1.294677324       1.250243455
Nuclear contribution   :      0.000000000       1.327457389      -1.281928022
                        -----------------------------------------
Total Dipole Moment    :     -0.000000000       0.032780065      -0.031684567
                        -----------------------------------------
Magnitude (a.u.)       :      0.045589960
Magnitude (Debye)      :      0.115880468



--------------------
Rotational spectrum 
--------------------
 
Rotational constants in cm-1:             8.101050             7.049111             3.769280 
Rotational constants in MHz :        242863.361200        211327.036298        113000.174884 

Dipole components along the rotational axes: 
x,y,z [a.u.] :     0.000016    -0.045590    -0.000000 
x,y,z [Debye]:     0.000040    -0.115880    -0.000000 

 

Dipole moment calculation done in   0.0 sec 

-----------------
QUADRUPOLE MOMENT
-----------------

Method             : SCF
Type of density    : Electron Density
Multiplicity       :   1
Irrep              :   0
Energy             :  -289.9163702828491296 Eh
Basis              : AO

                XX              YY              ZZ              XY              XZ              YZ
  NUC        0.000000000     7.776008003     7.822723490     0.000000000     0.000000000     0.672490579
  EL        -9.485978389   -20.973024657   -20.967065838     0.000000001    -0.000000001     0.081571300
  TOT       -9.485978389   -13.197016654   -13.144342349     0.000000001    -0.000000001     0.754061879 (a.u.)
           -12.758965354   -17.750438737   -17.679589995     0.000000001    -0.000000001     1.014239016 (Buckingham)

diagonalized tensor:
           -13.925201179   -12.416157823    -9.485978389 (a.u.)
           -18.729871828   -16.700156905   -12.758965354 (Buckingham)
            -8.000621396    -1.911476628     9.912098024 (traceless form in Buckingham)

             0.000000000    -0.000000000     1.000000000
            -0.719341977     0.694656116     0.000000000
             0.694656116     0.719341977    -0.000000000
        
Isotropic quadrupole :   -11.942445797

Quadrupole moment calculation done in   0.0 sec (  0.0 sec for integrals)

Maximum memory used throughout the entire PROP-calculation: 5.4 MB

--------------------------------
SUGGESTED CITATIONS FOR THIS RUN
--------------------------------

Below you find a list of papers that are relevant to this ORCA run
We neither can nor want to force you to cite these papers, but we appreciate if you do
You receive ORCA, which is the product of decades of hard work by many enthusiastic individuals, for free
The only thing we kindly ask in return is that you cite our papers,
We deeply appreciate it, if you show your appreciation for ORCA by not just citing the generic ORCA reference.

Please note that relegating all ORCA citations to the supporting information does *not* help us.
SI sections are not indexed - citations you put there will not count into any citation statistics
But we need these citations in order to attract the funding resources that allow us to do what we are doing

Therefore, if you are a happy ORCA user, please consider citing a few of the papers listed below in the main body of your paper

In addition to the list printed below, the program has created the file /cluster/projects/nn14654k/ylvaos/basis_set_n_funcs/functionals/gga_x_pbe/SiH2/inp/SiH2_gga_x_pbe_def2qzvp.bibtex that contains the list in bibtex format
You can import this file easily into all common literature databanks and citation aid programs

It goes without saying that in many instances, there are alternative algorithms to achieve similar
results as the ones you have gotten from ORCA. It is, of course, also the case that in some instances
ORCA just re-implements algorithms worked out by others. We are fully aware of that and we are also
fully appreciative of our colleagues work. Hence this citation list should not be read as indicating
that the listed papers, which are focused on our own work, are the only ones worth citing. It simply
meant to make it easier for users to cite ORCA specific papers. It is not a substitute for doing your
own literature research and citing the relevant literature in a scientifically appropriate manner.

List of essential papers. We consider these as the minimum necessary citations

  1. Neese, F.
     Software update: the ORCA program system, version 6.0
     WIRES Comput. Molec. Sci. 2025 15(1), e70019
     doi.org/10.1002/wcms.70019

List of papers to cite with high priority. The work reported in these papers was absolutely
necessary for this run to complete.
Our perspective: the developers of density functionals and basis sets usually get cited in chemistry papers
Good! But without the algorithms to do something with them, the functionals or basis sets would not do anything.
Hence, in our opinion, the algorithm design and method developments papers are equally worthy of getting cited

  1. Lehtola, S.; Steigemann, C.; Oliveira, M.; Marques, M.
     Recent developments in Libxc - A comprehensive library of functionals for density functional theory
     Software X 2018 7 , 
     doi.org/10.1016/j.softx.2017.11.002
  2. Neese, F.
     The SHARK Integral Generation and Digestion System
     J. Comp. Chem. 2022 44(3), 381
     doi.org/10.1002/jcc.26942

List of suggested additional citations. These are papers that are important in the 'surrounding' of 
of this run, or papers that preceded the highly important papers. If you like your results we are grateful for a citation.

  1. Neese, F.
     The ORCA program system
     WIRES Comput. Molec. Sci. 2012 2(1), 73-78
     doi.org/10.1002/wcms.81
  2. Neese, F.
     Software update: the ORCA program system, version 4.0
     WIRES Comput. Molec. Sci. 2018 8(1), 1-6
     doi.org/10.1002/wcms.1327
  3. Neese, F.; Wennmohs, F.; Becker, U.; Riplinger, C.
     The ORCA quantum chemistry program package
     J. Chem. Phys. 2020 152(22), 224108
     doi.org/10.1063/5.0004608
  4. Neese, F.
     Software update: The ORCA program system—Version 5.0
     WIRES Comput. Molec. Sci. 2022 12(1), e1606
     doi.org/10.1002/wcms.1606

List of optional additional citations

  1. Neese, F.
     Approximate second-order SCF convergence for spin unrestricted wavefunctions
     Chem. Phys. Lett. 2000 325(1-3), 93-98
     doi.org/10.1016/s0009-2614(00)00662-x

Timings for individual modules:

Sum of individual times          ...        5.635 sec (=   0.094 min)
Startup calculation              ...        0.398 sec (=   0.007 min)   7.1 %
SCF iterations                   ...        4.413 sec (=   0.074 min)  78.3 %
Property integrals               ...        0.511 sec (=   0.009 min)   9.1 %
Property calculations            ...        0.300 sec (=   0.005 min)   5.3 %
Orbital localization             ...        0.013 sec (=   0.000 min)   0.2 %
                             ****ORCA TERMINATED NORMALLY****
TOTAL RUN TIME: 0 days 0 hours 0 minutes 6 seconds 982 msec
