
                                 *****************
                                 * O   R   C   A *
                                 *****************

                                            #,                                       
                                            ###                                      
                                            ####                                     
                                            #####                                    
                                            ######                                   
                                           ########,                                 
                                     ,,################,,,,,                         
                               ,,#################################,,                 
                          ,,##########################################,,             
                       ,#########################################, ''#####,          
                    ,#############################################,,   '####,        
                  ,##################################################,,,,####,       
                ,###########''''           ''''###############################       
              ,#####''   ,,,,##########,,,,          '''####'''          '####       
            ,##' ,,,,###########################,,,                        '##       
           ' ,,###''''                  '''############,,,                           
         ,,##''                                '''############,,,,        ,,,,,,###''
      ,#''                                            '''#######################'''  
     '                                                          ''''####''''         
             ,#######,   #######,   ,#######,      ##                                
            ,#'     '#,  ##    ##  ,#'     '#,    #''#        ,####,    ,#,          
            ##       ##  ##   ,#'  ##            #'  '#       #'       ,# #          
            ##       ##  #######   ##           ,######,      #####,      #          
            '#,     ,#'  ##    ##  '#,     ,#' ,#      #,     #,   #      #          
             '#######'   ##     ##  '#######'  #'      '#     '####' #    #          



                #########################################################
                #                        -***-                          #
                #          Department of theory and spectroscopy        #
                #                                                       #
                #                      Frank Neese                      #
                #                                                       #
                #     Directorship, Architecture, Infrastructure        #
                #                    SHARK, DRIVERS                     #
                #        Core code/Algorithms in most modules           #
                #                                                       #
                #        Max Planck Institute fuer Kohlenforschung      #
                #                Kaiser Wilhelm Platz 1                 #
                #                 D-45470 Muelheim/Ruhr                 #
                #                      Germany                          #
                #                                                       #
                #                  All rights reserved                  #
                #                        -***-                          #
                #########################################################


                         Program Version 6.1.1  -  RELEASE   -
                                (GIT: $487d211c$)
                          ($2025-11-21 10:33:24 +0100$)


 With contributions from (in alphabetic order):
[Max-Planck-Institut fuer Kohlenforschung]                               
  Daniel Aravena         : Magnetic Suceptibility                        
  Michael Atanasov       : Ab Initio Ligand Field Theory (pilot matlab implementation)
  Alexander A. Auer      : GIAO ZORA, VPT2 properties, NMR spectrum      
  Ute Becker             : All parallelization in ORCA, NUMFREQ, NUMCALC 
  Giovanni Bistoni       : ED, misc. LED, open-shell LED, HFLD           
  Dmytro Bykov           : pre 5.0 version of the SCF Hessian            
  Marcos Casanova-Páez   : Triplet and SCS-CIS(D). UHF-(DLPNO)-IP/EA/STEOM-CCSD. UHF-CVS-IP/STEOM-CCSD   
  Vijay G. Chilkuri      : MRCI spin determinant printing, contributions to CSF-ICE 
  Pauline Colinet        : FMM embedding                                 
  Dipayan Datta          : RHF DLPNO-CCSD density                        
  Achintya Kumar Dutta   : EOM-CC, STEOM-CC                              
  Nicolas Foglia         : Exact transition moments, OPA infrastructure, MCD improvements    
  Dmitry Ganyushin       : Spin-Orbit,Spin-Spin,Magnetic field MRCI      
  Miquel Garcia-Rates    : C-PCM and meta-GGA Hessian, CCSD/C-PCM, Gaussian charge scheme 
  Tiago L. C. Gouveia    : GS-ROHF, GS-ROCIS                             
  Yang Guo               : DLPNO-NEVPT2, F12-NEVPT2, CIM, IAO-localization        
  Andreas Hansen         : Spin unrestricted coupled pair/coupled cluster methods 
  Ingolf Harden          : AUTO-CI MPn and infrastructure                
  Benjamin Helmich-Paris : MC-RPA, TRAH-(SCF,CASSCF), AVAS, COSX integrals, SCF dyn. polar., MC-PDFT, srDFT 
  Lee Huntington         : MR-EOM, pCC                                   
  Robert Izsak           : Overlap fitted RIJCOSX, COSX-SCS-MP3, EOM     
  Riya Kayal             : Wick's Theorem for AUTO-CI, AUTO-CI UHF-CCSDT 
  Emily Kempfer          : AUTO-CI RHF CISDT and CCSDT, approximate NEVPT4
  Christian Kollmar      : KDIIS, OOCD, Brueckner-CCSD(T), CCSD density, CASPT2, CASPT2-K, improved NEVPT2 
  Axel Koslowski         : Symmetry handling                             
  Simone Kossmann        : meta-GGA functionals, TD-DFT gradient, OOMP2, (MP2 Hessian; deprecated post 5.0) 
  Lucas Lang             : DCDCAS, Hyperfine gauge corrections, ICE-SOC+SSC
  Marvin Lechner         : AUTO-CI (C++ implementation), FIC-MRCC        
  Spencer Leger          : CASSCF response                               
  Dagmar Lenk            : GEPOL surface, SMD, ORCA-2-JSON               
  Dimitrios Liakos       : Extrapolation schemes; Compound Job, Property file
  Dimitrios Manganas     : Further ROCIS development; embedding schemes. LFT, Crystal Embedding 
  Dimitrios Pantazis     : SARC Basis sets                               
  Anastasios Papadopoulos: AUTO-CI, single reference methods and gradients 
  Taras Petrenko         : pre 6.0 DFT Hessian and TD-DFT gradient,  ECA, NRVS 
  Petra Pikulova         : Analytic Raman intensities                    
  Peter Pinski           : DLPNO-MP2, DLPNO-MP2 Gradient                 
  Shashank Vittal Rao    : ES-AILFT, MagRelax                            
  Christoph Reimann      : Effective Core Potentials                     
  Marius Retegan         : Local ZFS, SOC                                
  Christoph Riplinger    : Optimizer, TS searches, QM/MM, DLPNO-CCSD(T), (RO)-DLPNO pert. Triples 
  Michael Roemelt        : Original ROCIS implementation, recursive CI coupling coefficients
  Masaaki Saitow         : Open-shell DLPNO-CCSD energy and density      
  Barbara Sandhoefer     : DKH picture change effects                    
  Yorick L. A. Schmerwitz: GMF and freeze-and-release deltaSCF, NEB S-IDPP initial path                    
  Kantharuban Sivalingam : CASSCF convergence/infrastructure, NEVPT2, NEVPT3, NEVPT4(SD), FIC-MRCI and CEPA variants
  Bernardo de Souza      : ESD, SOC TD-DFT                               
  Georgi L. Stoychev     : AutoAux, RI-MP2 NMR, DLPNO-MP2 response, X2C  
  Van Anh Tran           : RI-MP2 g-tensors                              
  Willem Van den Heuvel  : Paramagnetic NMR                              
  Zikuan Wang            : NOTCH, Electric field optimization            
  Frank Wennmohs         : Technical directorship and infrastructure     
  Hang Xu                : AUTO-CI-Response properties                   
                                                                         
[FACCTs GmbH]                                                            
  Markus Bursch, Nicolas Foglia, Miquel Garcia-Rates, Ingolf Harden, Hagen Neugebauer, Anastasios Papadopoulos, 
  Christoph Riplinger, Bernardo de Souza, Georgi L. Stoychev                                                    
                                                                 
  APM, various basis sets, CI-OPT, improved COSX, DLPNO-Multilevel,           
  DOCKER, DRACO, updates on ESD, Fragmentator, GOAT, IRC, LR-CPCM, L-BFGS, MBIS, meta-GGA TD-DFT gradient, ML-optimized integration grids, 
  MM, NACMEs, nearIR, NEB, NEB-TS, NL-DFT gradient (VV10), 2- and 3-layer-ONIOM, interface openCOSMO-RS, QMMM,   
  Crystal-QMMM, RESP, rigid body optimization, SF, symmetry and pop. for TD-DFT, various functionals, SOLVATOR                                   
                                                                         
[Other institutions]                                                     
  V. Asgeirsson          : NEB                                           
  Christoph Bannwarth    : sTDA-DFT, sTD-DFT, PBEh-3c, B97-3c, D3        
  Giovanni Bistoni       : ETS/NOCV, ADLD/ADEX, COVALED                  
  Martin Brehm           : Molecular dynamics                            
  Ronald Cardenas        : ETS/NOCV                                      
  Martina Colucci        : COVALED                                       
  Sebastian Ehlert       : rSCAN, r2SCAN, r2SCAN-3c, D4, dhf basis sets  
  Marvin Friede          : D4 for Fr, Ra, Ac-Lr                          
  Lars Goerigk           : TD-DFT with DH, B97 family of functionals     
  Stefan Grimme          : VdW corrections, initial TS optimization, DFT functionals, gCP, sTDA/sTD-DF 
  Waldemar Hujo          : DFT-NL                                        
  H. Jonsson             : NEB                                           
  Holger Kruse           : gCP                                           
  Marcel Mueller         : wB97X-3c, vDZP basis set                      
  Hagen Neugebauer       : wr2SCAN, Native XTB                           
  Gianluca Regni         : ADLD/ADEX                                     
  Tobias Risthaus        : pre 6.0 range-separated hybrid DFT and stability analysis
  Lukas Wittmann         : regularized MP2, r2SCAN double-hybrids, wr2SCAN        
                                                                         
We gratefully acknowledge several colleagues who have allowed us to      
interface, adapt or use parts of their codes:                            
  Ed Valeev, F. Pavosevic, A. Kumar             : LibInt (2-el integral package), F12 methods 
  Garnet Chan, S. Sharma, J. Yang, R. Olivares  : DMRG                   
  Ulf Ekstrom                                   : XCFun DFT Library      
  Mihaly Kallay                                 : mrcc  (arbitrary order and MRCC methods)
  Frank Weinhold                                : gennbo (NPA and NBO analysis)           
  Simon Mueller                                 : openCOSMO-RS                            
  Christopher J. Cramer and Donald G. Truhlar   : smd solvation model                     
  S Lehtola, MJT Oliveira, MAL Marques          : LibXC Library                           
  Liviu Ungur et al                             : ANISO software                          


 Your calculation uses the libint2 library for the computation of 2-el integrals
 For citations please refer to: http://libint.valeyev.net

 Your ORCA version has been built with support for libXC version: 7.0.0
 For citations please refer to: https://libxc.gitlab.io

 This ORCA versions uses:
   CBLAS   interface :  Fast vector & matrix operations
   LAPACKE interface :  Fast linear algebra routines
   SCALAPACK package :  Parallel linear algebra routines
   Shared memory     :  Shared parallel matrices
   BLAS/LAPACK       :  OpenBLAS 0.3.29  USE64BITINT DYNAMIC_ARCH NO_AFFINITY Cooperlake SINGLE_THREADED
        Core in use  :  Cooperlake
   Copyright (c) 2011-2014, The OpenBLAS Project


  ***********************************
  * Starting time: Wed May 20 12:32:45 2026
  * Host name:     c1-47
  * Process ID:    3453401
  * Working dir.:  /cluster/projects/nn14654k/ylvaos/basis_set_n_funcs/functionals/gga_c_pw91/CH3COOH/out
  ***********************************

Using LibXC functional ID 134 : Perdew & Wang 91
[ 1]  J. P. Perdew. In P. Ziesche and H. Eschrig, editors, Proceedings of the 75. WE-Heraeus-Seminar and 21st Annual International Symposium on Electronic Structure of Solids, 11. Berlin, 1991. Akademie Verlag.
[ 2]  J. P. Perdew, J. A. Chevary, S. H. Vosko, K. A. Jackson, M. R. Pederson, D. J. Singh, and C. Fiolhais.,  Phys. Rev. B 46, 6671 (1992)
[ 3]  J. P. Perdew, J. A. Chevary, S. H. Vosko, K. A. Jackson, M. R. Pederson, D. J. Singh, and C. Fiolhais.,  Phys. Rev. B 48, 4978 (1993)
Using LibXC functional ID 134 : Perdew & Wang 91
[ 1]  J. P. Perdew. In P. Ziesche and H. Eschrig, editors, Proceedings of the 75. WE-Heraeus-Seminar and 21st Annual International Symposium on Electronic Structure of Solids, 11. Berlin, 1991. Akademie Verlag.
[ 2]  J. P. Perdew, J. A. Chevary, S. H. Vosko, K. A. Jackson, M. R. Pederson, D. J. Singh, and C. Fiolhais.,  Phys. Rev. B 46, 6671 (1992)
[ 3]  J. P. Perdew, J. A. Chevary, S. H. Vosko, K. A. Jackson, M. R. Pederson, D. J. Singh, and C. Fiolhais.,  Phys. Rev. B 48, 4978 (1993)
Your calculation utilizes LibXC
by S. Lehtola, C. Steigemann, M. J. T. Oliveira & M. A. L. Marques
Please cite in your paper:
Lehtola, S.; Steigemann, C.; Oliveira, M.J.T.; Marques, M. A. L. Software X, 7, (2018), 1.
   

================================================================================

----- Orbital basis set information -----
Your calculation utilizes the basis: cc-pVQZ 
       H, B-Ne : Obtained from the ccRepo (grant-hill.group.shef.ac.uk/ccrepo) Feb. 2017
                 T. H. Dunning, Jr., J. Chem. Phys. 90, 1007 (1989)
            He : Obtained from the ccRepo (grant-hill.group.shef.ac.uk/ccrepo) Feb. 2017
                 D. E. Woon, T. H. Dunning, Jr., J. Chem. Phys. 100, 2975 (1994)
  Li-Be, Na-Mg : Obtained from the ccRepo (grant-hill.group.shef.ac.uk/ccrepo) Feb. 2017
                 B. P. Prascher, D. E. Woon, K. A. Peterson, T. H. Dunning, Jr., A. K. Wilson, Theor. Chem. Acc. 128, 69 (2011)
         Al-Ar : Obtained from the ccRepo (grant-hill.group.shef.ac.uk/ccrepo) Feb. 2017
                 D. E. Woon, T. H. Dunning, Jr., J. Chem. Phys. 98, 1358 (1993)
            Ca : Obtained from the Peterson Research Group Website (tyr0.chem.wsu.edu/~kipeters) Feb. 2017
                 J. Koput, K. A. Peterson, J. Phys. Chem. 106, 9595 (2002)
         Sc-Zn : Obtained from the ccRepo (grant-hill.group.shef.ac.uk/ccrepo) Feb. 2017
                 N. B. Balabanov, K. A. Peterson, J. Chem. Phys. 123, 064107 (2005)
                 N. B. Balabanov, K. A. Peterson, J. Chem. Phys. 125, 074110 (2006)
         Ga-Kr : Obtained from the ccRepo (grant-hill.group.shef.ac.uk/ccrepo) Feb. 2017
                 A. K. Wilson, D. E. Woon, K. A. Peterson, T. H. Dunning, Jr., J. Chem. Phys. 110, 7667 (1999)

================================================================================
                                        WARNINGS
                       Please study these warnings very carefully!
================================================================================


================================================================================
                                       INPUT FILE
================================================================================
NAME = /cluster/projects/nn14654k/ylvaos/basis_set_n_funcs/functionals/gga_c_pw91/CH3COOH/inp/CH3COOH_gga_c_pw91_ccpvqz.inp
|  1> ! dft cc-pVQZ TightSCF
|  2> %pal nprocs 8 end
|  3> 
|  4> %loc
|  5>   LocMet NewBoys
|  6>   Occ true
|  7> end
|  8> 
|  9> %method
| 10>   exchange None
| 11>   correlation gga_c_pw91
| 12> end
| 13> 
| 14> %elprop
| 15>   Dipole true
| 16>   Quadrupole true
| 17> end
| 18> 
| 19> * xyz 0 1
| 20> C    0.000000000000   0.154560000000   0.000000000000
| 21> C    1.073776000000  -0.892748000000   0.000000000000
| 22> O    0.166384000000   1.360084000000   0.000000000000
| 23> O   -1.236449000000  -0.415036000000   0.000000000000
| 24> H   -1.867646000000   0.333582000000   0.000000000000
| 25> H    2.048189000000  -0.408135000000   0.000000000000
| 26> H    0.968661000000  -1.528353000000   0.881747000000
| 27> H    0.968661000000  -1.528353000000  -0.881747000000
| 28> *
| 29> 
| 30> 
| 31>                          ****END OF INPUT****
================================================================================

                       ****************************
                       * Single Point Calculation *
                       ****************************

---------------------------------
CARTESIAN COORDINATES (ANGSTROEM)
---------------------------------
  C      0.000000    0.154560    0.000000
  C      1.073776   -0.892748    0.000000
  O      0.166384    1.360084    0.000000
  O     -1.236449   -0.415036    0.000000
  H     -1.867646    0.333582    0.000000
  H      2.048189   -0.408135    0.000000
  H      0.968661   -1.528353    0.881747
  H      0.968661   -1.528353   -0.881747

----------------------------
CARTESIAN COORDINATES (A.U.)
----------------------------
  NO LB      ZA    FRAG     MASS         X           Y           Z
   0 C     6.0000    0    12.011    0.000000    0.292076    0.000000
   1 C     6.0000    0    12.011    2.029143   -1.687049    0.000000
   2 O     8.0000    0    15.999    0.314420    2.570186    0.000000
   3 O     8.0000    0    15.999   -2.336550   -0.784304    0.000000
   4 H     1.0000    0     1.008   -3.529339    0.630379    0.000000
   5 H     1.0000    0     1.008    3.870516   -0.771263    0.000000
   6 H     1.0000    0     1.008    1.830504   -2.888169    1.666260
   7 H     1.0000    0     1.008    1.830504   -2.888169   -1.666260

--------------------------------
INTERNAL COORDINATES (ANGSTROEM)
--------------------------------
 C      0   0   0     0.000000000000     0.00000000     0.00000000
 C      1   0   0     1.499949647502     0.00000000     0.00000000
 O      1   2   0     1.216951827326   126.42686784     0.00000000
 O      1   2   3     1.361339683113   110.98078396   180.00000000
 H      4   1   2     0.979203024267   105.40175469   180.00000085
 H      2   1   3     1.088269476893   109.27200725     0.00000000
 H      2   1   3     1.092025938913   109.72406365   120.93315147
 H      2   1   3     1.092025938913   109.72406365   239.06684853

---------------------------
INTERNAL COORDINATES (A.U.)
---------------------------
 C      0   0   0     0.000000000000     0.00000000     0.00000000
 C      1   0   0     2.834494048450     0.00000000     0.00000000
 O      1   2   0     2.299705671821   126.42686784     0.00000000
 O      1   2   3     2.572559176322   110.98078396   180.00000000
 H      4   1   2     1.850425545371   105.40175469   180.00000085
 H      2   1   3     2.056531271234   109.27200725     0.00000000
 H      2   1   3     2.063629955684   109.72406365   120.93315147
 H      2   1   3     2.063629955684   109.72406365   239.06684853

---------------------
BASIS SET INFORMATION
---------------------
There are 3 groups of distinct atoms

 Group   1 Type C   : 21s6p3d2f1g contracted to 5s4p3d2f1g pattern {99111/3111/111/11/1}
 Group   2 Type O   : 21s6p3d2f1g contracted to 5s4p3d2f1g pattern {99111/3111/111/11/1}
 Group   3 Type H   : 6s3p2d1f contracted to 4s3p2d1f pattern {3111/111/11/1}

Atom   0C    basis set group =>   1
Atom   1C    basis set group =>   1
Atom   2O    basis set group =>   2
Atom   3O    basis set group =>   2
Atom   4H    basis set group =>   3
Atom   5H    basis set group =>   3
Atom   6H    basis set group =>   3
Atom   7H    basis set group =>   3


           ************************************************************
           *        Program running with 8 parallel MPI-processes     *
           *              working on a common directory               *
           ************************************************************
------------------------------------------------------------------------------
                             ORCA STARTUP CALCULATIONS
------------------------------------------------------------------------------
------------------------------------------------------------------------------
                   ___                                                        
                  /   \      - P O W E R E D   B Y -                         
                 /     \                                                     
                 |  |  |   _    _      __       _____    __    __             
                 |  |  |  | |  | |    /  \     |  _  \  |  |  /  |          
                  \  \/   | |  | |   /    \    | | | |  |  | /  /          
                 / \  \   | |__| |  /  /\  \   | |_| |  |  |/  /          
                |  |  |   |  __  | /  /__\  \  |    /   |      \           
                |  |  |   | |  | | |   __   |  |    \   |  |\   \          
                \     /   | |  | | |  |  |  |  | |\  \  |  | \   \       
                 \___/    |_|  |_| |__|  |__|  |_| \__\ |__|  \__/        
                                                                              
                      - O R C A' S   B I G   F R I E N D -                    
                                      &                                       
                       - I N T E G R A L  F E E D E R -                       
                                                                              
 v1 FN, 2020, v2 2021, v3 2022-2024                                           
------------------------------------------------------------------------------


----------------------
SHARK INTEGRAL PACKAGE
----------------------

Number of atoms                             ...      8
Number of basis functions                   ...    368
Number of shells                            ...    128
Maximum angular momentum                    ...      4
Integral batch strategy                     ... SHARK/LIBINT Hybrid
RI-J (if used) integral strategy            ... SPLIT-RIJ (Revised 2003 algorithm where possible)
Printlevel                                  ...      1
Contraction scheme used                     ... PARTIAL GENERAL contraction
Prescreening option                         ... SCHWARTZ
   Thresh                                   ... 2.500e-11
   Tcut                                     ... 2.500e-12
   Tpresel                                  ... 2.500e-12 
Coulomb Range Separation                    ... NOT USED
Exchange Range Separation                   ... NOT USED
Multipole approximations                    ... NOT USED
Finite Nucleus Model                        ... NOT USED
CABS basis                                  ... NOT available
Auxiliary Coulomb fitting basis             ... NOT available
Auxiliary J/K fitting basis                 ... NOT available
Auxiliary Correlation fitting basis         ... NOT available
Auxiliary 'external' fitting basis          ... NOT available

Checking pre-screening integrals            ... done (  0.0 sec) Dimension = 128
Save PGC pre-screening integrals            ... done (  0.0 sec) Dimension = 128
Calculate PGC overlap integrals             ... done (  0.0 sec) Dimension = 100
Calculating pre-screening integrals (ORCA)  ... done (  0.1 sec) Dimension = 100
Shell pair information
Shell pair cut-off parameter TPreSel        ...   2.5e-12
Total number of shell pairs                 ...      8256
Shell pairs after pre-screening             ...      7045
Total number of primitive shell pairs       ...     10464
Primitive shell pairs kept                  ...      8393
          la=0 lb=0:   1474 shell pairs
          la=1 lb=0:   1562 shell pairs
          la=1 lb=1:    388 shell pairs
          la=2 lb=0:   1117 shell pairs
          la=2 lb=1:    535 shell pairs
          la=2 lb=2:    202 shell pairs
          la=3 lb=0:    662 shell pairs
          la=3 lb=1:    324 shell pairs
          la=3 lb=2:    228 shell pairs
          la=3 lb=3:     77 shell pairs
          la=4 lb=0:    230 shell pairs
          la=4 lb=1:    109 shell pairs
          la=4 lb=2:     79 shell pairs
          la=4 lb=3:     48 shell pairs
          la=4 lb=4:     10 shell pairs

Checking whether 4 symmetric matrices of dimension 368 fit in memory
:Max Core in MB      =   4096.00
 MB in use           =     11.63
 MB left             =   4084.37
 MB needed           =      2.07
 Data fit in memory  = YES
Calculating Nuclear repulsion               ... done (  0.0 sec) ENN=    120.693288504615 Eh

Diagonalization of the overlap matrix:
Smallest eigenvalue                        ... 1.217e-04
Time for diagonalization                   ...    0.011 sec
Threshold for overlap eigenvalues          ... 1.000e-07
Number of eigenvalues below threshold      ... 0
Time for construction of square roots      ...    0.005 sec
Total time needed                          ...    0.020 sec

-------------------
DFT GRID GENERATION
-------------------

General Integration Accuracy     IntAcc      ... 4.388
Radial Grid Type                 RadialGrid  ... OptM3 with GC (2021)
Angular Grid (max. ang.)         AngularGrid ... 4 (Lebedev-302)
Angular grid pruning method      GridPruning ... 4 (adaptive)
Weight generation scheme         WeightScheme... mBecke (2022)
Basis function cutoff            BFCut       ... 1.0000e-11
Integration weight cutoff        WCut        ... 1.0000e-14
Partially contracted basis set               ... off
Rotationally invariant grid construction     ... off
Angular grids for H and He will be reduced by one unit

Total number of grid points                  ...    37392
Total number of batches                      ...      588
Average number of points per batch           ...       63
Average number of grid points per atom       ...     4674

---------------------
SHARK GRID GENERATION
---------------------

General Integration Accuracy     IntAcc      ... 4.388
Radial Grid Type                 RadialGrid  ... OptM3 with GC (2021)
Angular Grid (max. ang.)         AngularGrid ... 4 (Lebedev-302)
Angular grid pruning method      GridPruning ... 4 (adaptive)
Weight generation scheme         WeightScheme... mBecke (2022)
Basis function cutoff            BFCut       ... 1.0000e-11
Integration weight cutoff        WCut        ... 1.0000e-14
Partially contracted basis set               ... off
Rotationally invariant grid construction     ... off
Angular grids for H and He will be reduced by one unit
Steep s-basis detected: some atoms will have their radial
                        grid points doubled.

Total number of grid points                  ...    62114
Total number of batches                      ...      975
Average number of points per batch           ...       63
Average number of grid points per atom       ...     7764
Grids setup in   0.5 sec
Initializing property integral containers    ... done (  0.0 sec)

SHARK setup successfully completed in   0.8 seconds

Maximum memory used throughout the entire STARTUP-calculation: 37.6 MB


           ************************************************************
           *        Program running with 8 parallel MPI-processes     *
           *              working on a common directory               *
           ************************************************************
-------------------------------------------------------------------------------
                                 ORCA GUESS
                   Start orbitals & Density for SCF / CASSCF
-------------------------------------------------------------------------------

------------
SCF SETTINGS
------------
Hamiltonian:
 Density Functional     Method          .... DFT(GTOs)
 Exchange Functional    Exchange        .... no Exchange
  Functional kind                       .... Correlation
  Functional name                       .... Perdew & Wang 91
  Functional family                     .... GGA
  Functional refs                              
    [ 0] J. P. Perdew. In P. Ziesche and H. Eschrig, editors, Proceedings of the 75. WE-Heraeus-Seminar and 21st Annual International Symposium on Electronic Structure of Solids, 11. Berlin, 1991. Akademie Verlag.
    [ 1] J. P. Perdew, J. A. Chevary, S. H. Vosko, K. A. Jackson, M. R. Pederson, D. J. Singh, and C. Fiolhais.,  Phys. Rev. B 46, 6671 (1992), doi: 10.1103/PhysRevB.46.6671
    [ 2] J. P. Perdew, J. A. Chevary, S. H. Vosko, K. A. Jackson, M. R. Pederson, D. J. Singh, and C. Fiolhais.,  Phys. Rev. B 48, 4978 (1993), doi: 10.1103/PhysRevB.48.4978.2
  Functional external parameters        .... 0
 Gradients option       PostSCFGGA      .... off


General Settings:
 Integral files         IntName         .... /cluster/projects/nn14654k/ylvaos/basis_set_n_funcs/functionals/gga_c_pw91/CH3COOH/inp/CH3COOH_gga_c_pw91_ccpvqz
 Hartree-Fock type      HFTyp           .... RHF
 Total Charge           Charge          ....    0
 Multiplicity           Mult            ....    1
 Number of Electrons    NEL             ....   32
 Basis Dimension        Dim             ....  340
 Nuclear Repulsion      ENuc            ....    120.6932885046 Eh

Convergence Acceleration:
 AO-DIIS                CNVDIIS         .... on
   Start iteration      DIISMaxIt       ....    12
   Startup error        DIISStart       ....  0.200000
   # of expansion vecs  DIISMaxEq       ....     5
   Bias factor          DIISBfac        ....   1.050
   Max. coefficient     DIISMaxC        ....  10.000
 MO-DIIS                CNVKDIIS        .... off
 Trust-Rad. Augm. Hess. CNVTRAH         .... auto
   Auto Start mean grad. ratio tolernc. ....  1.125000
   Auto Start start iteration           ....    50
   Auto Start num. interpolation iter.  ....    10
   Max. Number of Micro iterations      ....    24
   Max. Number of Macro iterations      .... Maxiter - #DIIS iter
   Number of Davidson start vectors     ....     2
   Converg. threshold    (grad. norm)   ....   1.000e-05
   Grad. Scal. Fac. for Micro threshold ....   0.100
   Minimum threshold for Micro iter.    ....   1.000e-02
   NR start threshold (gradient norm)   ....   1.000e-04
   Initial trust radius                 ....   0.400
   Minimum AH scaling param. (alpha)    ....   1.000
   Maximum AH scaling param. (alpha)    .... 1000.000
   Quad. conv. algorithm                .... NR
   White noise on init. David. guess    .... on
   Maximum white noise                  ....   0.010
   Pseudo random numbers                .... off
   Inactive MOs                         .... canonical
   Orbital update algorithm             .... Taylor
   Preconditioner                       .... Diag
   Full preconditioner red. dimension   ....   250
 SOSCF                 CNVSOSCF           .... on
   Start iteration     SOSCFMaxIt         ....   150
   Startup grad/error  SOSCFStart         ....  0.003300
   Hessian update      SOSCFHessUp        .... L-BFGS
   Autom. constraints  SOSCFAutoConstrain .... off
 Level Shifting         CNVShift        .... on
   Level shift para.    LevelShift      ....    0.2500
   Turn off err/grad.   ShiftErr        ....    0.0010
 Zerner damping         CNVZerner       .... off
 Static damping         CNVDamp         .... on
   Fraction old density DampFac         ....    0.7000
   Max. Damping (<1)    DampMax         ....    0.9800
   Min. Damping (>=0)   DampMin         ....    0.0000
   Turn off err/grad.   DampErr         ....    0.1000

SCF Procedure:
 Maximum # iterations   MaxIter         ....   125
 SCF integral mode      SCFMode         .... Direct
   Integral package                     .... SHARK and LIBINT hybrid scheme
 Reset frequency        DirectResetFreq ....    20
 Integral Threshold     Thresh          ....  2.500e-11 Eh
 Primitive CutOff       TCut            ....  2.500e-12 Eh

Convergence Tolerance:
 Convergence Check Mode ConvCheckMode   .... Total+1el-Energy
 Convergence forced     ConvForced      .... 0
 Energy Change          TolE            ....  1.000e-08 Eh
 1-El. energy change                    ....  1.000e-05 Eh
 Orbital Gradient       TolG            ....  1.000e-05
 Orbital Rotation angle TolX            ....  1.000e-05
 DIIS Error             TolErr          ....  5.000e-07

------------------------------
INITIAL GUESS: MODEL POTENTIAL
------------------------------
Loading Hartree-Fock densities                     ... done
Calculating cut-offs                               ... done
Initializing the effective Hamiltonian             ... done
Setting up the integral package (SHARK)            ... done
Starting the Coulomb interaction                   ... done (   0.0 sec)
Making the grid                                    ... done (   0.3 sec)
Mapping shells                                     ... done
Starting the XC term evaluation                    ... done (   0.0 sec)
  promolecular density results
     # of electrons  =     31.997224895
     EX              =      0.000000000
     EC              =     -1.130850410
     EX+EC           =     -1.130850410
Transforming the Hamiltonian                       ... done (   0.0 sec)
Diagonalizing the Hamiltonian                      ... done (   0.0 sec)
Back transforming the eigenvectors                 ... done (   0.0 sec)
Now organizing SCF variables                       ... done
                      ------------------
                      INITIAL GUESS DONE (   0.4 sec)
                      ------------------
             **** ENERGY FILE WAS UPDATED (/cluster/projects/nn14654k/ylvaos/basis_set_n_funcs/functionals/gga_c_pw91/CH3COOH/inp/CH3COOH_gga_c_pw91_ccpvqz.en.tmp) ****
Finished Guess after   0.5 sec
Maximum memory used throughout the entire GUESS-calculation: 20.7 MB


           ************************************************************
           *        Program running with 8 parallel MPI-processes     *
           *              working on a common directory               *
           ************************************************************

-------------------------------------------------------------------------------------------
                                      ORCA LEAN-SCF
                              memory conserving SCF solver
-------------------------------------------------------------------------------------------

----------------------------------------D-I-I-S--------------------------------------------
Iteration    Energy (Eh)           Delta-E    RMSDP     MaxDP     DIISErr   Damp  Time(sec)
-------------------------------------------------------------------------------------------
               ***  Starting incremental Fock matrix formation  ***
    1    -198.1649789407118760     0.00e+00  5.40e-01  3.58e+01  9.21e-01  0.700   3.2
Warning: op=0 Small HOMO/LUMO gap (  -0.924) - skipping pre-diagonalization
         LevelShift set to 1.000 Eh
         Will do a full diagonalization
    2    -199.7368146587765523    -1.57e+00  3.80e-01  2.52e+01  2.55e-01  0.700   3.0
    3    -200.1580610499828481    -4.21e-01  2.66e-01  1.76e+01  2.51e-01  0.700   2.8
    4    -200.5398599024686632    -3.82e-01  1.86e-01  1.23e+01  2.31e-01  0.700   2.8
                               ***Turning on AO-DIIS***
    5    -200.8963494674351296    -3.56e-01  1.30e-01  8.60e+00  1.74e-01  0.700   2.8
    6    -201.1393142251833410    -2.43e-01  9.06e-02  5.99e+00  1.55e-01  0.700   2.9
    7    -201.3117991249696388    -1.72e-01  6.25e-02  4.12e+00  1.52e-01  0.700   2.9
    8    -201.4570687011380983    -1.45e-01  4.24e-02  2.75e+00  1.29e-01  0.700   2.6
    9    -201.5724108033384141    -1.15e-01  2.86e-02  1.82e+00  1.00e-01  0.700   2.5
   10    -201.6520250627036148    -7.96e-02  1.94e-02  1.19e+00  6.83e-02  0.700   2.5
   11    -201.7065968102435249    -5.46e-02  4.36e-02  2.54e+00  4.41e-02  0.000   2.5
   12    -201.8278843816814287    -1.21e-01  3.82e-03  1.76e-01  1.02e-02  0.000   2.5
   13    -201.8290607780668324    -1.18e-03  2.40e-03  1.15e-01  6.68e-03  0.000   2.4
   14    -201.8296954343837797    -6.35e-04  1.81e-03  8.70e-02  7.21e-03  0.000   2.3
   15    -201.8300690516531404    -3.74e-04  1.47e-03  7.01e-02  6.44e-03  0.000   2.4
   16    -201.8303098795497590    -2.41e-04  1.30e-03  6.15e-02  5.69e-03  0.000   2.3
   17    -201.8304828699710356    -1.73e-04  9.25e-04  4.11e-02  4.56e-03  0.000   2.3
   18    -201.8305915501548498    -1.09e-04  7.87e-04  3.41e-02  4.33e-03  0.000   2.3
   19    -201.8306711335445129    -7.96e-05  6.41e-04  2.62e-02  3.75e-03  0.000   2.3
   20    -201.8307289088464245    -5.78e-05  5.57e-04  2.22e-02  3.31e-03  0.000   2.2
               *** Restarting incremental Fock matrix formation ***
                             ****Resetting DIIS****
Warning: op=0 Small HOMO/LUMO gap (   0.077) - skipping pre-diagonalization
         Will do a full diagonalization
                              *** Initializing SOSCF ***
---------------------------------------S-O-S-C-F--------------------------------------
Iteration    Energy (Eh)           Delta-E    RMSDP     MaxDP     MaxGrad    Time(sec)
--------------------------------------------------------------------------------------
   21    -201.8307713675103514    -4.25e-05  4.57e-03  1.56e-01  2.86e-03     2.8
               *** Restarting incremental Fock matrix formation ***
   22    -201.8307774526172693    -6.09e-06  6.26e-03  2.51e-01  2.70e-03     2.8
   23    -201.8296359722082229     1.14e-03  4.03e-03  1.66e-01  1.08e-02     2.4
   24    -201.8308740216022557    -1.24e-03  1.57e-03  6.25e-02  1.18e-03     2.4
   25    -201.8307544342107462     1.20e-04  1.13e-03  4.79e-02  3.00e-03     2.3
   26    -201.8308962164801983    -1.42e-04  1.08e-04  2.46e-03  1.82e-04     2.2
   27    -201.8308941271308186     2.09e-06  5.86e-05  1.41e-03  4.01e-04     2.0
   28    -201.8308968714774778    -2.74e-06  3.72e-05  1.81e-03  3.24e-05     2.0
   29    -201.8308968626424758     8.84e-09  2.02e-05  1.02e-03  4.10e-05     1.9
                 **** Energy Check signals convergence ****

               *****************************************************
               *                     SUCCESS                       *
               *           SCF CONVERGED AFTER  29 CYCLES          *
               *****************************************************

             **** ENERGY FILE WAS UPDATED (/cluster/projects/nn14654k/ylvaos/basis_set_n_funcs/functionals/gga_c_pw91/CH3COOH/inp/CH3COOH_gga_c_pw91_ccpvqz.en.tmp) ****

----------------
TOTAL SCF ENERGY
----------------

Total Energy       :       -201.83089691265008 Eh           -5492.09792 eV

Components:
Nuclear Repulsion  :        120.69328850461517 Eh            3284.23135 eV
Electronic Energy  :       -322.52418541726524 Eh           -8776.32927 eV
One Electron Energy:       -538.52443819587916 Eh          -14653.99496 eV
Two Electron Energy:        216.00025277861388 Eh            5877.66569 eV

Virial components:
Potential Energy   :       -406.92878087825693 Eh          -11073.09507 eV
Kinetic Energy     :        205.09788396560683 Eh            5580.99716 eV
Virial Ratio       :          1.98407108357342

DFT components:
N(Alpha)           :       16.000017902435 electrons
N(Beta)            :       16.000017902435 electrons
N(Total)           :       32.000035804869 electrons
E(X)               :        0.000000000000 Eh       
E(C)               :       -1.114011515157 Eh       
E(XC)              :       -1.114011515157 Eh       

---------------
SCF CONVERGENCE
---------------

  Last Energy change         ...   -8.8350e-09  Tolerance :   1.0000e-08
  Last MAX-Density change    ...    1.0239e-03  Tolerance :   1.0000e-07
  Last RMS-Density change    ...    2.0213e-05  Tolerance :   5.0000e-09
  Last DIIS Error            ...    2.8596e-03  Tolerance :   5.0000e-07
  Last Orbital Gradient      ...    4.1044e-05  Tolerance :   1.0000e-05
  Last Orbital Rotation      ...    7.7587e-05  Tolerance :   1.0000e-05


----------------
ORBITAL ENERGIES
----------------

  NO   OCC          E(Eh)            E(eV) 
   0   2.0000     -16.779082      -456.5820 
   1   2.0000     -16.744548      -455.6423 
   2   2.0000      -8.407961      -228.7922 
   3   2.0000      -8.340025      -226.9436 
   4   2.0000      -0.684128       -18.6161 
   5   2.0000      -0.589529       -16.0419 
   6   2.0000      -0.399147       -10.8613 
   7   2.0000      -0.252718        -6.8768 
   8   2.0000      -0.179976        -4.8974 
   9   2.0000      -0.162728        -4.4281 
  10   2.0000      -0.138331        -3.7642 
  11   2.0000      -0.091661        -2.4942 
  12   2.0000      -0.081599        -2.2204 
  13   2.0000      -0.059516        -1.6195 
  14   2.0000      -0.011458        -0.3118 
  15   2.0000       0.034195         0.9305 
  16   0.0000       0.113702         3.0940 
  17   0.0000       0.152253         4.1430 
  18   0.0000       0.173959         4.7337 
  19   0.0000       0.185968         5.0604 
  20   0.0000       0.217625         5.9219 
  21   0.0000       0.228806         6.2261 
  22   0.0000       0.271267         7.3815 
  23   0.0000       0.284004         7.7281 
  24   0.0000       0.294392         8.0108 
  25   0.0000       0.319160         8.6848 
  26   0.0000       0.323812         8.8114 
*Only the first 10 virtual orbitals were printed.

                    ********************************
                    * MULLIKEN POPULATION ANALYSIS *
                    ********************************

-----------------------
MULLIKEN ATOMIC CHARGES
-----------------------
   0 C :    0.067892
   1 C :   -0.493991
   2 O :    0.019615
   3 O :    0.051984
   4 H :    0.036571
   5 H :    0.079811
   6 H :    0.119059
   7 H :    0.119059
Sum of atomic charges:    0.0000000

--------------------------------
MULLIKEN REDUCED ORBITAL CHARGES
--------------------------------
  0 C s       :     2.840022  s :     2.840022
      pz      :     0.970696  p :     3.059963
      px      :     1.047775
      py      :     1.041492
      dz2     :     0.028494  d :     0.010307
      dxz     :     0.005936
      dyz     :     0.023880
      dx2y2   :     0.022294
      dxy     :    -0.070298
      f0      :     0.003822  f :     0.020684
      f+1     :     0.002290
      f-1     :     0.004420
      f+2     :    -0.006851
      f-2     :    -0.000525
      f+3     :     0.010843
      f-3     :     0.006686
      g0      :     0.000100  g :     0.001132
      g+1     :     0.000035
      g-1     :    -0.000016
      g+2     :     0.000023
      g-2     :    -0.000165
      g+3     :     0.000035
      g-3     :     0.000181
      g+4     :     0.000417
      g-4     :     0.000522

  1 C s       :     3.039110  s :     3.039110
      pz      :     1.169497  p :     3.436310
      px      :     1.109002
      py      :     1.157811
      dz2     :     0.006935  d :     0.013169
      dxz     :    -0.009070
      dyz     :     0.007068
      dx2y2   :     0.005226
      dxy     :     0.003010
      f0      :     0.000427  f :     0.004655
      f+1     :     0.000352
      f-1     :     0.000180
      f+2     :    -0.000459
      f-2     :     0.000161
      f+3     :     0.001488
      f-3     :     0.002506
      g0      :     0.000058  g :     0.000747
      g+1     :     0.000018
      g-1     :     0.000183
      g+2     :     0.000117
      g-2     :     0.000063
      g+3     :     0.000031
      g-3     :     0.000056
      g+4     :     0.000104
      g-4     :     0.000116

  2 O s       :     3.288794  s :     3.288794
      pz      :     1.352731  p :     4.647850
      px      :     1.654071
      py      :     1.641048
      dz2     :     0.004639  d :     0.042190
      dxz     :     0.000650
      dyz     :     0.013960
      dx2y2   :     0.013205
      dxy     :     0.009735
      f0      :     0.000349  f :     0.001514
      f+1     :     0.000055
      f-1     :    -0.000490
      f+2     :     0.000913
      f-2     :     0.000034
      f+3     :     0.000723
      f-3     :    -0.000070
      g0      :    -0.000005  g :     0.000037
      g+1     :     0.000000
      g-1     :     0.000028
      g+2     :    -0.000009
      g-2     :     0.000002
      g+3     :     0.000002
      g-3     :     0.000018
      g+4     :    -0.000008
      g-4     :     0.000009

  3 O s       :     3.396041  s :     3.396041
      pz      :     1.627123  p :     4.523147
      px      :     1.185189
      py      :     1.710835
      dz2     :     0.006184  d :     0.026250
      dxz     :     0.003628
      dyz     :     0.002569
      dx2y2   :     0.005435
      dxy     :     0.008434
      f0      :     0.000386  f :     0.002496
      f+1     :     0.000392
      f-1     :     0.000374
      f+2     :     0.000194
      f-2     :     0.000188
      f+3     :     0.000570
      f-3     :     0.000391
      g0      :     0.000008  g :     0.000082
      g+1     :     0.000009
      g-1     :     0.000002
      g+2     :     0.000002
      g-2     :     0.000005
      g+3     :     0.000000
      g-3     :     0.000005
      g+4     :     0.000028
      g-4     :     0.000022

  4 H s       :     0.918295  s :     0.918295
      pz      :     0.038648  p :     0.040873
      px      :    -0.010639
      py      :     0.012863
      dz2     :     0.000272  d :     0.004279
      dxz     :     0.002061
      dyz     :     0.003209
      dx2y2   :    -0.000171
      dxy     :    -0.001090
      f0      :     0.000222  f :    -0.000018
      f+1     :    -0.000096
      f-1     :    -0.000096
      f+2     :     0.000015
      f-2     :     0.000318
      f+3     :    -0.000151
      f-3     :    -0.000230

  5 H s       :     0.917297  s :     0.917297
      pz      :     0.010022  p :     0.006923
      px      :    -0.012369
      py      :     0.009270
      dz2     :    -0.000660  d :    -0.003198
      dxz     :     0.000349
      dyz     :     0.000397
      dx2y2   :    -0.002468
      dxy     :    -0.000815
      f0      :    -0.000008  f :    -0.000833
      f+1     :    -0.000202
      f-1     :    -0.000074
      f+2     :    -0.000009
      f-2     :     0.000004
      f+3     :    -0.000081
      f-3     :    -0.000464

  6 H s       :     0.854889  s :     0.854889
      pz      :     0.013297  p :     0.027881
      px      :     0.014933
      py      :    -0.000348
      dz2     :     0.000380  d :    -0.001089
      dxz     :     0.000465
      dyz     :    -0.002051
      dx2y2   :    -0.000428
      dxy     :     0.000545
      f0      :     0.000009  f :    -0.000741
      f+1     :    -0.000017
      f-1     :    -0.000501
      f+2     :    -0.000184
      f-2     :    -0.000022
      f+3     :    -0.000000
      f-3     :    -0.000025

  7 H s       :     0.854889  s :     0.854889
      pz      :     0.013297  p :     0.027881
      px      :     0.014933
      py      :    -0.000348
      dz2     :     0.000380  d :    -0.001089
      dxz     :     0.000465
      dyz     :    -0.002051
      dx2y2   :    -0.000428
      dxy     :     0.000545
      f0      :     0.000009  f :    -0.000741
      f+1     :    -0.000017
      f-1     :    -0.000501
      f+2     :    -0.000184
      f-2     :    -0.000022
      f+3     :    -0.000000
      f-3     :    -0.000025



                     *******************************
                     * LOEWDIN POPULATION ANALYSIS *
                     *******************************

----------------------
LOEWDIN ATOMIC CHARGES
----------------------
   0 C :   -1.105256
   1 C :    0.303455
   2 O :    0.642549
   3 O :    1.049557
   4 H :   -0.549350
   5 H :   -0.123800
   6 H :   -0.108578
   7 H :   -0.108578

-------------------------------
LOEWDIN REDUCED ORBITAL CHARGES
-------------------------------
  0 C s       :     2.653664  s :     2.653664
      pz      :     0.794256  p :     2.827574
      px      :     0.919146
      py      :     1.114172
      dz2     :     0.076235  d :     1.279905
      dxz     :     0.175749
      dyz     :     0.249004
      dx2y2   :     0.348326
      dxy     :     0.430591
      f0      :     0.009929  f :     0.309927
      f+1     :     0.011675
      f-1     :     0.016873
      f+2     :     0.045936
      f-2     :     0.027699
      f+3     :     0.134546
      f-3     :     0.063269
      g0      :     0.001166  g :     0.034186
      g+1     :     0.003158
      g-1     :     0.006576
      g+2     :     0.003514
      g-2     :     0.003638
      g+3     :     0.000393
      g-3     :     0.002068
      g+4     :     0.007034
      g-4     :     0.006639

  1 C s       :     2.537527  s :     2.537527
      pz      :     0.919391  p :     2.753864
      px      :     0.913557
      py      :     0.920916
      dz2     :     0.050583  d :     0.339249
      dxz     :     0.031686
      dyz     :     0.083626
      dx2y2   :     0.096258
      dxy     :     0.077095
      f0      :     0.005521  f :     0.062933
      f+1     :     0.006525
      f-1     :     0.007742
      f+2     :     0.005214
      f-2     :     0.008819
      f+3     :     0.014620
      f-3     :     0.014492
      g0      :     0.000099  g :     0.002972
      g+1     :     0.000353
      g-1     :     0.000217
      g+2     :     0.000302
      g-2     :     0.000158
      g+3     :     0.000246
      g-3     :     0.000222
      g+4     :     0.000268
      g-4     :     0.001106

  2 O s       :     3.210188  s :     3.210188
      pz      :     1.181343  p :     4.024797
      px      :     1.368309
      py      :     1.475145
      dz2     :     0.009205  d :     0.101059
      dxz     :     0.002003
      dyz     :     0.022459
      dx2y2   :     0.026780
      dxy     :     0.040611
      f0      :     0.001547  f :     0.020395
      f+1     :     0.000622
      f-1     :     0.002514
      f+2     :     0.002333
      f-2     :     0.000610
      f+3     :     0.007593
      f-3     :     0.005176
      g0      :     0.000050  g :     0.001012
      g+1     :     0.000003
      g-1     :     0.000118
      g+2     :     0.000103
      g-2     :     0.000073
      g+3     :     0.000021
      g-3     :     0.000064
      g+4     :     0.000244
      g-4     :     0.000337

  3 O s       :     2.992970  s :     2.992970
      pz      :     1.304352  p :     3.816902
      px      :     1.139979
      py      :     1.372571
      dz2     :     0.011911  d :     0.121102
      dxz     :     0.018514
      dyz     :     0.007890
      dx2y2   :     0.035611
      dxy     :     0.047176
      f0      :     0.001779  f :     0.018802
      f+1     :     0.001302
      f-1     :     0.000678
      f+2     :     0.000726
      f-2     :     0.002319
      f+3     :     0.007486
      f-3     :     0.004512
      g0      :     0.000025  g :     0.000667
      g+1     :     0.000085
      g-1     :     0.000060
      g+2     :     0.000071
      g-2     :     0.000056
      g+3     :     0.000043
      g-3     :     0.000082
      g+4     :     0.000210
      g-4     :     0.000034

  4 H s       :     0.855002  s :     0.855002
      pz      :     0.141979  p :     0.490477
      px      :     0.144836
      py      :     0.203663
      dz2     :     0.013114  d :     0.173510
      dxz     :     0.024456
      dyz     :     0.034251
      dx2y2   :     0.063404
      dxy     :     0.038286
      f0      :     0.004041  f :     0.030361
      f+1     :     0.001693
      f-1     :     0.001870
      f+2     :     0.000159
      f-2     :     0.006957
      f+3     :     0.006936
      f-3     :     0.008704

  5 H s       :     0.828944  s :     0.828944
      pz      :     0.072073  p :     0.223015
      px      :     0.084352
      py      :     0.066589
      dz2     :     0.004126  d :     0.063215
      dxz     :     0.016489
      dyz     :     0.006180
      dx2y2   :     0.020295
      dxy     :     0.016126
      f0      :     0.000948  f :     0.008625
      f+1     :     0.001062
      f-1     :     0.000340
      f+2     :     0.000461
      f-2     :     0.001184
      f+3     :     0.002538
      f-3     :     0.002092

  6 H s       :     0.806190  s :     0.806190
      pz      :     0.075850  p :     0.231096
      px      :     0.070850
      py      :     0.084396
      dz2     :     0.020213  d :     0.062842
      dxz     :     0.012946
      dyz     :     0.013505
      dx2y2   :     0.006288
      dxy     :     0.009890
      f0      :     0.002033  f :     0.008451
      f+1     :     0.000658
      f-1     :     0.002126
      f+2     :     0.001369
      f-2     :     0.001610
      f+3     :     0.000394
      f-3     :     0.000260

  7 H s       :     0.806190  s :     0.806190
      pz      :     0.075850  p :     0.231096
      px      :     0.070850
      py      :     0.084396
      dz2     :     0.020213  d :     0.062842
      dxz     :     0.012946
      dyz     :     0.013505
      dx2y2   :     0.006288
      dxy     :     0.009890
      f0      :     0.002033  f :     0.008451
      f+1     :     0.000658
      f-1     :     0.002126
      f+2     :     0.001369
      f-2     :     0.001610
      f+3     :     0.000394
      f-3     :     0.000260



                      *****************************
                      * MAYER POPULATION ANALYSIS *
                      *****************************

  NA   - Mulliken gross atomic population
  ZA   - Total nuclear charge
  QA   - Mulliken gross atomic charge
  VA   - Mayer's total valence
  BVA  - Mayer's bonded valence
  FA   - Mayer's free valence

  ATOM       NA         ZA         QA         VA         BVA        FA
  0 C      5.9321     6.0000     0.0679     4.9853     4.9853     0.0000
  1 C      6.4940     6.0000    -0.4940     3.4305     3.4305    -0.0000
  2 O      7.9804     8.0000     0.0196     2.7729     2.7729     0.0000
  3 O      7.9480     8.0000     0.0520     2.2931     2.2931    -0.0000
  4 H      0.9634     1.0000     0.0366     1.2360     1.2360     0.0000
  5 H      0.9202     1.0000     0.0798     0.9996     0.9996     0.0000
  6 H      0.8809     1.0000     0.1191     0.9809     0.9809     0.0000
  7 H      0.8809     1.0000     0.1191     0.9809     0.9809     0.0000

  Mayer bond orders larger than 0.100000
B(  0-C ,  1-C ) :   0.8588 B(  0-C ,  2-O ) :   2.5837 B(  0-C ,  3-O ) :   1.5709 
B(  1-C ,  2-O ) :  -0.1718 B(  1-C ,  4-H ) :   0.1177 B(  1-C ,  5-H ) :   0.9098 
B(  1-C ,  6-H ) :   0.8923 B(  1-C ,  7-H ) :   0.8923 B(  2-O ,  4-H ) :   0.2636 
B(  3-O ,  4-H ) :   0.8451 

-------
TIMINGS
-------

Total SCF time: 0 days 0 hours 1 min 14 sec 

Total time                  ....      74.283 sec
Sum of individual times     ....      72.435 sec  ( 97.5%)

SCF preparation             ....       0.104 sec  (  0.1%)
Fock matrix formation       ....      71.092 sec  ( 95.7%)
  Startup                   ....       0.027 sec  (  0.0% of F)
  Coulomb formation         ....      69.182 sec  ( 97.3% of F)
  XC integration            ....       3.127 sec  (  4.4% of F)
    XC Preparation          ....       0.000 sec  (  0.0% of XC)
    Basis function eval.    ....       0.434 sec  ( 13.9% of XC)
    Density eval.           ....       0.659 sec  ( 21.1% of XC)
    XC-Functional eval.     ....       0.066 sec  (  2.1% of XC)
    XC-Potential eval.      ....       1.198 sec  ( 38.3% of XC)
Diagonalization             ....       0.000 sec  (  0.0%)
Density matrix formation    ....       0.210 sec  (  0.3%)
Total Energy calculation    ....       0.068 sec  (  0.1%)
Population analysis         ....       0.024 sec  (  0.0%)
Orbital Transformation      ....       0.060 sec  (  0.1%)
Orbital Orthonormalization  ....       0.000 sec  (  0.0%)
DIIS solution               ....       0.689 sec  (  0.9%)
SOSCF solution              ....       0.187 sec  (  0.3%)
Finished LeanSCF after  74.3 sec

Maximum memory used throughout the entire LEANSCF-calculation: 30.8 MB


           ************************************************************
           *        Program running with 8 parallel MPI-processes     *
           *              working on a common directory               *
           ************************************************************

------------------------------------------------------------------------------
                         ORCA PROPERTY INTEGRAL CALCULATIONS
------------------------------------------------------------------------------

GBWName                                   ... /cluster/projects/nn14654k/ylvaos/basis_set_n_funcs/functionals/gga_c_pw91/CH3COOH/inp/CH3COOH_gga_c_pw91_ccpvqz.gbw
Number of atoms                           ...      8
Number of basis functions                 ...    368
Max core memory                           ...   4096 MB

Dipole integrals                          ... YES
Quadrupole integrals                      ... YES
Linear momentum integrals                 ...  NO
Angular momentum integrals                ...  NO
Higher moments length integrals           ...  NO
Higher moments velocity integrals         ...  NO
Kinetic energy integrals                  ...  NO
GIAO right hand sides                     ...  NO
GIAO dipole derivative integrals          ...  NO
SOC integrals                             ...  NO
EPR diamagnetic integrals (GIAO)          ...  NO
EPR gauge integrals                       ...  NO
Field gradient integrals                  ...  NO (   0 nuclei)
Spin-dipole/Fermi contact integrals       ...  NO (   0 nuclei)
Contact density integrals                 ...  NO (   0 nuclei)
Nucleus-orbit integrals                   ...  NO (   0 nuclei)
Geometric perturbations                   ...  NO (   8 nuclei)

Choice of electric origin   ... Center of mass
Position of electric origin ... ( -0.0657,  0.0975,  0.0000) 
Choice of magnetic origin   ... GIAO
Position of magnetic origin ... (  0.0000,  0.0000,  0.0000) 

Calculating integrals                     ... Electric Dipole (Length)     done (  0.0 sec)
Calculating integrals                     ... Electric Quadrupole (Length) done (  0.0 sec)

Property integrals calculated in   0.0 sec

Maximum memory used throughout the entire PROPINT-calculation: 23.1 MB
------------------------------------------------------------------------------
                           ORCA ORBITAL LOCALIZATION
------------------------------------------------------------------------------

Input orbitals are from                  ... /cluster/projects/nn14654k/ylvaos/basis_set_n_funcs/functionals/gga_c_pw91/CH3COOH/inp/CH3COOH_gga_c_pw91_ccpvqz.gbw
Output orbitals are to                   ... /cluster/projects/nn14654k/ylvaos/basis_set_n_funcs/functionals/gga_c_pw91/CH3COOH/inp/CH3COOH_gga_c_pw91_ccpvqz.loc
Max. number of iterations                ... 128
Localizations seeded randomly            ... on
Convergence tolerance                    ... 1.000e-06
Threshold for strong local MOs           ... 9.500e-01
Threshold for bond MOs                   ... 8.500e-01
Operator                                 ... 0
Orbital range for localization           ... 4 to 15
Localization criterion                   ... NEW-BOYS
Doing the dipole integrals               ... o.k.
Initial value of the localization sum :    43.466320
ITERATION   0 : L=   78.3637070353 DL=  3.49e+01 (AVERGE_DL)=    0.7271507970 
ITERATION   1 : L=   82.9102189682 DL=  4.55e+00 (AVERGE_DL)=    0.2624624629 
ITERATION   2 : L=   83.0200795660 DL=  1.10e-01 (AVERGE_DL)=    0.0407989523 
ITERATION   3 : L=   83.0238263241 DL=  3.75e-03 (AVERGE_DL)=    0.0075345248 
ITERATION   4 : L=   83.0246653631 DL=  8.39e-04 (AVERGE_DL)=    0.0035654889 
ITERATION   5 : L=   83.0251020833 DL=  4.37e-04 (AVERGE_DL)=    0.0025723477 
ITERATION   6 : L=   83.0253218761 DL=  2.20e-04 (AVERGE_DL)=    0.0018248823 
ITERATION   7 : L=   83.0254349486 DL=  1.13e-04 (AVERGE_DL)=    0.0013089001 
ITERATION   8 : L=   83.0254928832 DL=  5.79e-05 (AVERGE_DL)=    0.0009369082 
ITERATION   9 : L=   83.0255225526 DL=  2.97e-05 (AVERGE_DL)=    0.0006704740 
ITERATION  10 : L=   83.0255377313 DL=  1.52e-05 (AVERGE_DL)=    0.0004795625 
ITERATION  11 : L=   83.0255454919 DL=  7.76e-06 (AVERGE_DL)=    0.0003429078 
ITERATION  12 : L=   83.0255494574 DL=  3.97e-06 (AVERGE_DL)=    0.0002451179 
ITERATION  13 : L=   83.0255514835 DL=  2.03e-06 (AVERGE_DL)=    0.0001752096 
ITERATION  14 : L=   83.0255525182 DL=  1.03e-06 (AVERGE_DL)=    0.0001252107 
ITERATION  15 : L=   83.0255530461 DL=  5.28e-07 (AVERGE_DL)=    0.0000894321 
LOCALIZATION SUM CONVERGED


--------------------------------------------------------------------------------
                    LOCALIZED MOLECULAR ORBITAL COMPOSITIONS
--------------------------------------------------------------------------------

The Mulliken populations for each LMO on each atom are computed
The LMO`s will be ordered according to atom index and type
  (A) Strongly localized MO`s have populations of >=0.950 on one atom
  (B) Two center bond orbitals have populations of >=0.850 on two atoms
  (C) Other MO`s are considered to be `delocalized`

FOUND  -   0 strongly local MO`s
       -  12 two center bond MO`s
       -   0 significantly delocalized MO`s

Bond-like localized orbitals:
MO  15:   7H  -   0.459116  and   1C  -   0.512684
MO  14:   6H  -   0.459117  and   1C  -   0.512683
MO  13:   5H  -   0.472755  and   1C  -   0.555766
MO  12:   4H  -   0.374420  and   3O  -   0.679335
MO  11:   3O  -   0.799353  and   0C  -   0.273605
MO  10:   3O  -   0.799392  and   0C  -   0.273290
MO   9:   3O  -   0.824930  and   0C  -   0.144469
MO   8:   2O  -   0.736463  and   0C  -   0.308233
MO   7:   2O  -   0.736459  and   0C  -   0.308231
MO   6:   2O  -   0.819348  and   0C  -   0.148640
MO   5:   2O  -   0.780106  and   0C  -   0.248059
MO   4:   1C  -   0.851724  and   0C  -   0.250899
Localized MO's were stored in: /cluster/projects/nn14654k/ylvaos/basis_set_n_funcs/functionals/gga_c_pw91/CH3COOH/inp/CH3COOH_gga_c_pw91_ccpvqz.loc

-------------------------   --------------------
FINAL SINGLE POINT ENERGY      -201.830896912650
-------------------------   --------------------



           ************************************************************
           *        Program running with 8 parallel MPI-processes     *
           *              working on a common directory               *
           ************************************************************

------------------------------------------------------------------------------
                              ORCA PROPERTY CALCULATIONS
------------------------------------------------------------------------------

GBWName                                 ... /cluster/projects/nn14654k/ylvaos/basis_set_n_funcs/functionals/gga_c_pw91/CH3COOH/inp/CH3COOH_gga_c_pw91_ccpvqz.gbw
Number of atoms                         ...      8
Number of basis functions               ...    368
Max core memory                         ...   4096 MB

Electric properties:
Dipole moment                           ... YES
Quadrupole moment                       ... YES
Static polarizability (Dipole/Dipole)   ...  NO
Static polarizability (Dipole/Quad.)    ...  NO
Static polarizability (Quad./Quad.)     ...  NO
Static polarizability (Velocity)        ...  NO
Static hyperpolarizability              ...  NO

Atomic electric properties:
Dipole moment                           ...  NO
Quadrupole moment                       ...  NO
Static polarizability                   ...  NO

Choice of electric origin               ... Center of mass
Position of electric origin             ...    -0.065707     0.097461     0.000000

General magnetic properties:
Magnetizability                         ...  NO

EPR properties:
g-Tensor (aka g-matrix)                 ...  NO
Zero-Field splitting spin-orbit         ...  NO
Zero-field splitting spin-spin          ...  NO
Hyperfine couplings                     ...  NO (   0 nuclei)
Quadrupole couplings                    ...  NO (   0 nuclei)
Contact density                         ...  NO (   0 nuclei)

NMR properties:
Chemical shifts                         ...  NO (   0 nuclei)
Spin-rotation constants                 ...  NO (   0 nuclei)
Spin-spin couplings                     ...  NO (   0 nuclei,    0 pairs)

Choice of magnetic origin               ... GIAO
Position of magnetic origin             ...     0.000000     0.000000     0.000000

Properties with geometric perturbations:
SCF Hessian                             ...  NO
IR spectrum                             ...  NO
VCD spectrum                            ...  NO
X-ray spectroscopy properties:
SCF XES/XAS/RIXS spectra                ...  NO

SCF SOC stabilization energy            ...  NO
Diagonal Born-Oppenheimer correction    ...  NO

-------------
DIPOLE MOMENT
-------------

Method             : SCF
Type of density    : Electron Density
Multiplicity       :   1
Irrep              :   0
Energy             :  -201.8308969126500756 Eh
Basis              : AO
                                X                 Y                 Z
Electronic contribution:     -2.238136508       2.704660606      -0.000000003
Nuclear contribution   :      2.102617427      -3.118765285       0.000000000
                        -----------------------------------------
Total Dipole Moment    :     -0.135519082      -0.414104679      -0.000000003
                        -----------------------------------------
Magnitude (a.u.)       :      0.435715625
Magnitude (Debye)      :      1.107501105



--------------------
Rotational spectrum 
--------------------
 
Rotational constants in cm-1:             0.373252             0.316126             0.176788 
Rotational constants in MHz :         11189.819630          9477.229268          5299.974115 

Dipole components along the rotational axes: 
x,y,z [a.u.] :    -0.165955    -0.402874    -0.000000 
x,y,z [Debye]:    -0.421824    -1.024023    -0.000000 

 

Dipole moment calculation done in   0.0 sec 

-----------------
QUADRUPOLE MOMENT
-----------------

Method             : SCF
Type of density    : Electron Density
Multiplicity       :   1
Irrep              :   0
Energy             :  -201.8308969126500756 Eh
Basis              : AO

                XX              YY              ZZ              XY              XZ              YZ
  NUC      103.447904006    93.335807526     5.552847104   -15.402641721     0.000000000     0.000000000
  EL      -128.546076785  -121.896339666   -30.456105433    14.199264211     0.000000058    -0.000000072
  TOT      -25.098172779   -28.560532140   -24.903258329    -1.203377509     0.000000058    -0.000000072 (a.u.)
           -33.757900745   -38.414892499   -33.495734144    -1.618583906     0.000000078    -0.000000097 (Buckingham)

diagonalized tensor:
           -28.937693162   -24.903258329   -24.721011758 (a.u.)
           -38.922186972   -33.495734144   -33.250606272 (Buckingham)
           -11.098033527     5.181324956     5.916708571 (traceless form in Buckingham)

            -0.299073551    -0.000000408    -0.954230062
            -0.954230062     0.000000114     0.299073551
            -0.000000013     1.000000000    -0.000000423
        
Isotropic quadrupole :   -26.187321083

Quadrupole moment calculation done in   0.0 sec (  0.0 sec for integrals)

Maximum memory used throughout the entire PROP-calculation: 18.5 MB

--------------------------------
SUGGESTED CITATIONS FOR THIS RUN
--------------------------------

Below you find a list of papers that are relevant to this ORCA run
We neither can nor want to force you to cite these papers, but we appreciate if you do
You receive ORCA, which is the product of decades of hard work by many enthusiastic individuals, for free
The only thing we kindly ask in return is that you cite our papers,
We deeply appreciate it, if you show your appreciation for ORCA by not just citing the generic ORCA reference.

Please note that relegating all ORCA citations to the supporting information does *not* help us.
SI sections are not indexed - citations you put there will not count into any citation statistics
But we need these citations in order to attract the funding resources that allow us to do what we are doing

Therefore, if you are a happy ORCA user, please consider citing a few of the papers listed below in the main body of your paper

In addition to the list printed below, the program has created the file /cluster/projects/nn14654k/ylvaos/basis_set_n_funcs/functionals/gga_c_pw91/CH3COOH/inp/CH3COOH_gga_c_pw91_ccpvqz.bibtex that contains the list in bibtex format
You can import this file easily into all common literature databanks and citation aid programs

It goes without saying that in many instances, there are alternative algorithms to achieve similar
results as the ones you have gotten from ORCA. It is, of course, also the case that in some instances
ORCA just re-implements algorithms worked out by others. We are fully aware of that and we are also
fully appreciative of our colleagues work. Hence this citation list should not be read as indicating
that the listed papers, which are focused on our own work, are the only ones worth citing. It simply
meant to make it easier for users to cite ORCA specific papers. It is not a substitute for doing your
own literature research and citing the relevant literature in a scientifically appropriate manner.

List of essential papers. We consider these as the minimum necessary citations

  1. Neese, F.
     Software update: the ORCA program system, version 6.0
     WIRES Comput. Molec. Sci. 2025 15(1), e70019
     doi.org/10.1002/wcms.70019

List of papers to cite with high priority. The work reported in these papers was absolutely
necessary for this run to complete.
Our perspective: the developers of density functionals and basis sets usually get cited in chemistry papers
Good! But without the algorithms to do something with them, the functionals or basis sets would not do anything.
Hence, in our opinion, the algorithm design and method developments papers are equally worthy of getting cited

  1. Lehtola, S.; Steigemann, C.; Oliveira, M.; Marques, M.
     Recent developments in Libxc - A comprehensive library of functionals for density functional theory
     Software X 2018 7 , 
     doi.org/10.1016/j.softx.2017.11.002
  2. Neese, F.
     The SHARK Integral Generation and Digestion System
     J. Comp. Chem. 2022 44(3), 381
     doi.org/10.1002/jcc.26942

List of suggested additional citations. These are papers that are important in the 'surrounding' of 
of this run, or papers that preceded the highly important papers. If you like your results we are grateful for a citation.

  1. Neese, F.
     The ORCA program system
     WIRES Comput. Molec. Sci. 2012 2(1), 73-78
     doi.org/10.1002/wcms.81
  2. Neese, F.
     Software update: the ORCA program system, version 4.0
     WIRES Comput. Molec. Sci. 2018 8(1), 1-6
     doi.org/10.1002/wcms.1327
  3. Neese, F.; Wennmohs, F.; Becker, U.; Riplinger, C.
     The ORCA quantum chemistry program package
     J. Chem. Phys. 2020 152(22), 224108
     doi.org/10.1063/5.0004608
  4. Neese, F.
     Software update: The ORCA program system—Version 5.0
     WIRES Comput. Molec. Sci. 2022 12(1), e1606
     doi.org/10.1002/wcms.1606

List of optional additional citations

  1. Neese, F.
     Approximate second-order SCF convergence for spin unrestricted wavefunctions
     Chem. Phys. Lett. 2000 325(1-3), 93-98
     doi.org/10.1016/s0009-2614(00)00662-x

Timings for individual modules:

Sum of individual times          ...       76.947 sec (=   1.282 min)
Startup calculation              ...        1.125 sec (=   0.019 min)   1.5 %
SCF iterations                   ...       75.229 sec (=   1.254 min)  97.8 %
Property integrals               ...        0.300 sec (=   0.005 min)   0.4 %
Property calculations            ...        0.282 sec (=   0.005 min)   0.4 %
Orbital localization             ...        0.012 sec (=   0.000 min)   0.0 %
                             ****ORCA TERMINATED NORMALLY****
TOTAL RUN TIME: 0 days 0 hours 1 minutes 17 seconds 613 msec
