
                                 *****************
                                 * O   R   C   A *
                                 *****************

                                            #,                                       
                                            ###                                      
                                            ####                                     
                                            #####                                    
                                            ######                                   
                                           ########,                                 
                                     ,,################,,,,,                         
                               ,,#################################,,                 
                          ,,##########################################,,             
                       ,#########################################, ''#####,          
                    ,#############################################,,   '####,        
                  ,##################################################,,,,####,       
                ,###########''''           ''''###############################       
              ,#####''   ,,,,##########,,,,          '''####'''          '####       
            ,##' ,,,,###########################,,,                        '##       
           ' ,,###''''                  '''############,,,                           
         ,,##''                                '''############,,,,        ,,,,,,###''
      ,#''                                            '''#######################'''  
     '                                                          ''''####''''         
             ,#######,   #######,   ,#######,      ##                                
            ,#'     '#,  ##    ##  ,#'     '#,    #''#        ,####,    ,#,          
            ##       ##  ##   ,#'  ##            #'  '#       #'       ,# #          
            ##       ##  #######   ##           ,######,      #####,      #          
            '#,     ,#'  ##    ##  '#,     ,#' ,#      #,     #,   #      #          
             '#######'   ##     ##  '#######'  #'      '#     '####' #    #          



                #########################################################
                #                        -***-                          #
                #          Department of theory and spectroscopy        #
                #                                                       #
                #                      Frank Neese                      #
                #                                                       #
                #     Directorship, Architecture, Infrastructure        #
                #                    SHARK, DRIVERS                     #
                #        Core code/Algorithms in most modules           #
                #                                                       #
                #        Max Planck Institute fuer Kohlenforschung      #
                #                Kaiser Wilhelm Platz 1                 #
                #                 D-45470 Muelheim/Ruhr                 #
                #                      Germany                          #
                #                                                       #
                #                  All rights reserved                  #
                #                        -***-                          #
                #########################################################


                         Program Version 6.1.1  -  RELEASE   -
                                (GIT: $487d211c$)
                          ($2025-11-21 10:33:24 +0100$)


 With contributions from (in alphabetic order):
[Max-Planck-Institut fuer Kohlenforschung]                               
  Daniel Aravena         : Magnetic Suceptibility                        
  Michael Atanasov       : Ab Initio Ligand Field Theory (pilot matlab implementation)
  Alexander A. Auer      : GIAO ZORA, VPT2 properties, NMR spectrum      
  Ute Becker             : All parallelization in ORCA, NUMFREQ, NUMCALC 
  Giovanni Bistoni       : ED, misc. LED, open-shell LED, HFLD           
  Dmytro Bykov           : pre 5.0 version of the SCF Hessian            
  Marcos Casanova-Páez   : Triplet and SCS-CIS(D). UHF-(DLPNO)-IP/EA/STEOM-CCSD. UHF-CVS-IP/STEOM-CCSD   
  Vijay G. Chilkuri      : MRCI spin determinant printing, contributions to CSF-ICE 
  Pauline Colinet        : FMM embedding                                 
  Dipayan Datta          : RHF DLPNO-CCSD density                        
  Achintya Kumar Dutta   : EOM-CC, STEOM-CC                              
  Nicolas Foglia         : Exact transition moments, OPA infrastructure, MCD improvements    
  Dmitry Ganyushin       : Spin-Orbit,Spin-Spin,Magnetic field MRCI      
  Miquel Garcia-Rates    : C-PCM and meta-GGA Hessian, CCSD/C-PCM, Gaussian charge scheme 
  Tiago L. C. Gouveia    : GS-ROHF, GS-ROCIS                             
  Yang Guo               : DLPNO-NEVPT2, F12-NEVPT2, CIM, IAO-localization        
  Andreas Hansen         : Spin unrestricted coupled pair/coupled cluster methods 
  Ingolf Harden          : AUTO-CI MPn and infrastructure                
  Benjamin Helmich-Paris : MC-RPA, TRAH-(SCF,CASSCF), AVAS, COSX integrals, SCF dyn. polar., MC-PDFT, srDFT 
  Lee Huntington         : MR-EOM, pCC                                   
  Robert Izsak           : Overlap fitted RIJCOSX, COSX-SCS-MP3, EOM     
  Riya Kayal             : Wick's Theorem for AUTO-CI, AUTO-CI UHF-CCSDT 
  Emily Kempfer          : AUTO-CI RHF CISDT and CCSDT, approximate NEVPT4
  Christian Kollmar      : KDIIS, OOCD, Brueckner-CCSD(T), CCSD density, CASPT2, CASPT2-K, improved NEVPT2 
  Axel Koslowski         : Symmetry handling                             
  Simone Kossmann        : meta-GGA functionals, TD-DFT gradient, OOMP2, (MP2 Hessian; deprecated post 5.0) 
  Lucas Lang             : DCDCAS, Hyperfine gauge corrections, ICE-SOC+SSC
  Marvin Lechner         : AUTO-CI (C++ implementation), FIC-MRCC        
  Spencer Leger          : CASSCF response                               
  Dagmar Lenk            : GEPOL surface, SMD, ORCA-2-JSON               
  Dimitrios Liakos       : Extrapolation schemes; Compound Job, Property file
  Dimitrios Manganas     : Further ROCIS development; embedding schemes. LFT, Crystal Embedding 
  Dimitrios Pantazis     : SARC Basis sets                               
  Anastasios Papadopoulos: AUTO-CI, single reference methods and gradients 
  Taras Petrenko         : pre 6.0 DFT Hessian and TD-DFT gradient,  ECA, NRVS 
  Petra Pikulova         : Analytic Raman intensities                    
  Peter Pinski           : DLPNO-MP2, DLPNO-MP2 Gradient                 
  Shashank Vittal Rao    : ES-AILFT, MagRelax                            
  Christoph Reimann      : Effective Core Potentials                     
  Marius Retegan         : Local ZFS, SOC                                
  Christoph Riplinger    : Optimizer, TS searches, QM/MM, DLPNO-CCSD(T), (RO)-DLPNO pert. Triples 
  Michael Roemelt        : Original ROCIS implementation, recursive CI coupling coefficients
  Masaaki Saitow         : Open-shell DLPNO-CCSD energy and density      
  Barbara Sandhoefer     : DKH picture change effects                    
  Yorick L. A. Schmerwitz: GMF and freeze-and-release deltaSCF, NEB S-IDPP initial path                    
  Kantharuban Sivalingam : CASSCF convergence/infrastructure, NEVPT2, NEVPT3, NEVPT4(SD), FIC-MRCI and CEPA variants
  Bernardo de Souza      : ESD, SOC TD-DFT                               
  Georgi L. Stoychev     : AutoAux, RI-MP2 NMR, DLPNO-MP2 response, X2C  
  Van Anh Tran           : RI-MP2 g-tensors                              
  Willem Van den Heuvel  : Paramagnetic NMR                              
  Zikuan Wang            : NOTCH, Electric field optimization            
  Frank Wennmohs         : Technical directorship and infrastructure     
  Hang Xu                : AUTO-CI-Response properties                   
                                                                         
[FACCTs GmbH]                                                            
  Markus Bursch, Nicolas Foglia, Miquel Garcia-Rates, Ingolf Harden, Hagen Neugebauer, Anastasios Papadopoulos, 
  Christoph Riplinger, Bernardo de Souza, Georgi L. Stoychev                                                    
                                                                 
  APM, various basis sets, CI-OPT, improved COSX, DLPNO-Multilevel,           
  DOCKER, DRACO, updates on ESD, Fragmentator, GOAT, IRC, LR-CPCM, L-BFGS, MBIS, meta-GGA TD-DFT gradient, ML-optimized integration grids, 
  MM, NACMEs, nearIR, NEB, NEB-TS, NL-DFT gradient (VV10), 2- and 3-layer-ONIOM, interface openCOSMO-RS, QMMM,   
  Crystal-QMMM, RESP, rigid body optimization, SF, symmetry and pop. for TD-DFT, various functionals, SOLVATOR                                   
                                                                         
[Other institutions]                                                     
  V. Asgeirsson          : NEB                                           
  Christoph Bannwarth    : sTDA-DFT, sTD-DFT, PBEh-3c, B97-3c, D3        
  Giovanni Bistoni       : ETS/NOCV, ADLD/ADEX, COVALED                  
  Martin Brehm           : Molecular dynamics                            
  Ronald Cardenas        : ETS/NOCV                                      
  Martina Colucci        : COVALED                                       
  Sebastian Ehlert       : rSCAN, r2SCAN, r2SCAN-3c, D4, dhf basis sets  
  Marvin Friede          : D4 for Fr, Ra, Ac-Lr                          
  Lars Goerigk           : TD-DFT with DH, B97 family of functionals     
  Stefan Grimme          : VdW corrections, initial TS optimization, DFT functionals, gCP, sTDA/sTD-DF 
  Waldemar Hujo          : DFT-NL                                        
  H. Jonsson             : NEB                                           
  Holger Kruse           : gCP                                           
  Marcel Mueller         : wB97X-3c, vDZP basis set                      
  Hagen Neugebauer       : wr2SCAN, Native XTB                           
  Gianluca Regni         : ADLD/ADEX                                     
  Tobias Risthaus        : pre 6.0 range-separated hybrid DFT and stability analysis
  Lukas Wittmann         : regularized MP2, r2SCAN double-hybrids, wr2SCAN        
                                                                         
We gratefully acknowledge several colleagues who have allowed us to      
interface, adapt or use parts of their codes:                            
  Ed Valeev, F. Pavosevic, A. Kumar             : LibInt (2-el integral package), F12 methods 
  Garnet Chan, S. Sharma, J. Yang, R. Olivares  : DMRG                   
  Ulf Ekstrom                                   : XCFun DFT Library      
  Mihaly Kallay                                 : mrcc  (arbitrary order and MRCC methods)
  Frank Weinhold                                : gennbo (NPA and NBO analysis)           
  Simon Mueller                                 : openCOSMO-RS                            
  Christopher J. Cramer and Donald G. Truhlar   : smd solvation model                     
  S Lehtola, MJT Oliveira, MAL Marques          : LibXC Library                           
  Liviu Ungur et al                             : ANISO software                          


 Your calculation uses the libint2 library for the computation of 2-el integrals
 For citations please refer to: http://libint.valeyev.net

 Your ORCA version has been built with support for libXC version: 7.0.0
 For citations please refer to: https://libxc.gitlab.io

 This ORCA versions uses:
   CBLAS   interface :  Fast vector & matrix operations
   LAPACKE interface :  Fast linear algebra routines
   SCALAPACK package :  Parallel linear algebra routines
   Shared memory     :  Shared parallel matrices
   BLAS/LAPACK       :  OpenBLAS 0.3.29  USE64BITINT DYNAMIC_ARCH NO_AFFINITY Cooperlake SINGLE_THREADED
        Core in use  :  Cooperlake
   Copyright (c) 2011-2014, The OpenBLAS Project


  ***********************************
  * Starting time: Wed May 20 12:32:45 2026
  * Host name:     c1-3
  * Process ID:    1459676
  * Working dir.:  /cluster/projects/nn14654k/ylvaos/basis_set_n_funcs/functionals/gga_c_pw91/CH3COOH/out
  ***********************************

Using LibXC functional ID 134 : Perdew & Wang 91
[ 1]  J. P. Perdew. In P. Ziesche and H. Eschrig, editors, Proceedings of the 75. WE-Heraeus-Seminar and 21st Annual International Symposium on Electronic Structure of Solids, 11. Berlin, 1991. Akademie Verlag.
[ 2]  J. P. Perdew, J. A. Chevary, S. H. Vosko, K. A. Jackson, M. R. Pederson, D. J. Singh, and C. Fiolhais.,  Phys. Rev. B 46, 6671 (1992)
[ 3]  J. P. Perdew, J. A. Chevary, S. H. Vosko, K. A. Jackson, M. R. Pederson, D. J. Singh, and C. Fiolhais.,  Phys. Rev. B 48, 4978 (1993)
Using LibXC functional ID 134 : Perdew & Wang 91
[ 1]  J. P. Perdew. In P. Ziesche and H. Eschrig, editors, Proceedings of the 75. WE-Heraeus-Seminar and 21st Annual International Symposium on Electronic Structure of Solids, 11. Berlin, 1991. Akademie Verlag.
[ 2]  J. P. Perdew, J. A. Chevary, S. H. Vosko, K. A. Jackson, M. R. Pederson, D. J. Singh, and C. Fiolhais.,  Phys. Rev. B 46, 6671 (1992)
[ 3]  J. P. Perdew, J. A. Chevary, S. H. Vosko, K. A. Jackson, M. R. Pederson, D. J. Singh, and C. Fiolhais.,  Phys. Rev. B 48, 4978 (1993)
Your calculation utilizes LibXC
by S. Lehtola, C. Steigemann, M. J. T. Oliveira & M. A. L. Marques
Please cite in your paper:
Lehtola, S.; Steigemann, C.; Oliveira, M.J.T.; Marques, M. A. L. Software X, 7, (2018), 1.
   

================================================================================

----- Orbital basis set information -----
Your calculation utilizes the basis: pc-2
   H, C-F              : F. Jensen, J. Chem. Phys. 115, 9113 (2001).
                         F. Jensen, J. Chem. Phys. 116, 7372 (2002).
                         F. Jensen, J. Chem. Phys. 117, 9234 (2002).
   Si-Cl               : F. Jensen, T. Helgaker, J. Chem. Phys. 121, 3463 (2004).
   He-B, Ne-Mg, Al, Ar : F. Jensen, J. Phys. Chem. A 111, 11198 (2007).
   K, Ca, Ga-Kr        : F. Jensen, J. Chem. Phys. 136, 094110 (2012).
   Sc-Zn               : F. Jensen, J. Chem. Phys. 138, 014107 (2013).

================================================================================
                                        WARNINGS
                       Please study these warnings very carefully!
================================================================================


================================================================================
                                       INPUT FILE
================================================================================
NAME = /cluster/projects/nn14654k/ylvaos/basis_set_n_funcs/functionals/gga_c_pw91/CH3COOH/inp/CH3COOH_gga_c_pw91_pc2.inp
|  1> ! dft pc-2 TightSCF
|  2> %pal nprocs 8 end
|  3> 
|  4> %loc
|  5>   LocMet NewBoys
|  6>   Occ true
|  7> end
|  8> 
|  9> %method
| 10>   exchange None
| 11>   correlation gga_c_pw91
| 12> end
| 13> 
| 14> %elprop
| 15>   Dipole true
| 16>   Quadrupole true
| 17> end
| 18> 
| 19> * xyz 0 1
| 20> C    0.000000000000   0.154560000000   0.000000000000
| 21> C    1.073776000000  -0.892748000000   0.000000000000
| 22> O    0.166384000000   1.360084000000   0.000000000000
| 23> O   -1.236449000000  -0.415036000000   0.000000000000
| 24> H   -1.867646000000   0.333582000000   0.000000000000
| 25> H    2.048189000000  -0.408135000000   0.000000000000
| 26> H    0.968661000000  -1.528353000000   0.881747000000
| 27> H    0.968661000000  -1.528353000000  -0.881747000000
| 28> *
| 29> 
| 30> 
| 31>                          ****END OF INPUT****
================================================================================

                       ****************************
                       * Single Point Calculation *
                       ****************************

---------------------------------
CARTESIAN COORDINATES (ANGSTROEM)
---------------------------------
  C      0.000000    0.154560    0.000000
  C      1.073776   -0.892748    0.000000
  O      0.166384    1.360084    0.000000
  O     -1.236449   -0.415036    0.000000
  H     -1.867646    0.333582    0.000000
  H      2.048189   -0.408135    0.000000
  H      0.968661   -1.528353    0.881747
  H      0.968661   -1.528353   -0.881747

----------------------------
CARTESIAN COORDINATES (A.U.)
----------------------------
  NO LB      ZA    FRAG     MASS         X           Y           Z
   0 C     6.0000    0    12.011    0.000000    0.292076    0.000000
   1 C     6.0000    0    12.011    2.029143   -1.687049    0.000000
   2 O     8.0000    0    15.999    0.314420    2.570186    0.000000
   3 O     8.0000    0    15.999   -2.336550   -0.784304    0.000000
   4 H     1.0000    0     1.008   -3.529339    0.630379    0.000000
   5 H     1.0000    0     1.008    3.870516   -0.771263    0.000000
   6 H     1.0000    0     1.008    1.830504   -2.888169    1.666260
   7 H     1.0000    0     1.008    1.830504   -2.888169   -1.666260

--------------------------------
INTERNAL COORDINATES (ANGSTROEM)
--------------------------------
 C      0   0   0     0.000000000000     0.00000000     0.00000000
 C      1   0   0     1.499949647502     0.00000000     0.00000000
 O      1   2   0     1.216951827326   126.42686784     0.00000000
 O      1   2   3     1.361339683113   110.98078396   180.00000000
 H      4   1   2     0.979203024267   105.40175469   180.00000085
 H      2   1   3     1.088269476893   109.27200725     0.00000000
 H      2   1   3     1.092025938913   109.72406365   120.93315147
 H      2   1   3     1.092025938913   109.72406365   239.06684853

---------------------------
INTERNAL COORDINATES (A.U.)
---------------------------
 C      0   0   0     0.000000000000     0.00000000     0.00000000
 C      1   0   0     2.834494048450     0.00000000     0.00000000
 O      1   2   0     2.299705671821   126.42686784     0.00000000
 O      1   2   3     2.572559176322   110.98078396   180.00000000
 H      4   1   2     1.850425545371   105.40175469   180.00000085
 H      2   1   3     2.056531271234   109.27200725     0.00000000
 H      2   1   3     2.063629955684   109.72406365   120.93315147
 H      2   1   3     2.063629955684   109.72406365   239.06684853

---------------------
BASIS SET INFORMATION
---------------------
There are 3 groups of distinct atoms

 Group   1 Type C   : 16s6p2d1f contracted to 4s3p2d1f pattern {7711/411/11/1}
 Group   2 Type O   : 16s6p2d1f contracted to 4s3p2d1f pattern {7711/411/11/1}
 Group   3 Type H   : 6s2p1d contracted to 3s2p1d pattern {411/11/1}

Atom   0C    basis set group =>   1
Atom   1C    basis set group =>   1
Atom   2O    basis set group =>   2
Atom   3O    basis set group =>   2
Atom   4H    basis set group =>   3
Atom   5H    basis set group =>   3
Atom   6H    basis set group =>   3
Atom   7H    basis set group =>   3


           ************************************************************
           *        Program running with 8 parallel MPI-processes     *
           *              working on a common directory               *
           ************************************************************
------------------------------------------------------------------------------
                             ORCA STARTUP CALCULATIONS
------------------------------------------------------------------------------
------------------------------------------------------------------------------
                   ___                                                        
                  /   \      - P O W E R E D   B Y -                         
                 /     \                                                     
                 |  |  |   _    _      __       _____    __    __             
                 |  |  |  | |  | |    /  \     |  _  \  |  |  /  |          
                  \  \/   | |  | |   /    \    | | | |  |  | /  /          
                 / \  \   | |__| |  /  /\  \   | |_| |  |  |/  /          
                |  |  |   |  __  | /  /__\  \  |    /   |      \           
                |  |  |   | |  | | |   __   |  |    \   |  |\   \          
                \     /   | |  | | |  |  |  |  | |\  \  |  | \   \       
                 \___/    |_|  |_| |__|  |__|  |_| \__\ |__|  \__/        
                                                                              
                      - O R C A' S   B I G   F R I E N D -                    
                                      &                                       
                       - I N T E G R A L  F E E D E R -                       
                                                                              
 v1 FN, 2020, v2 2021, v3 2022-2024                                           
------------------------------------------------------------------------------


----------------------
SHARK INTEGRAL PACKAGE
----------------------

Number of atoms                             ...      8
Number of basis functions                   ...    176
Number of shells                            ...     64
Maximum angular momentum                    ...      3
Integral batch strategy                     ... SHARK/LIBINT Hybrid
RI-J (if used) integral strategy            ... SPLIT-RIJ (Revised 2003 algorithm where possible)
Printlevel                                  ...      1
Contraction scheme used                     ... SEGMENTED contraction
Prescreening option                         ... SCHWARTZ
   Thresh                                   ... 2.500e-11
   Tcut                                     ... 2.500e-12
   Tpresel                                  ... 2.500e-12 
Coulomb Range Separation                    ... NOT USED
Exchange Range Separation                   ... NOT USED
Multipole approximations                    ... NOT USED
Finite Nucleus Model                        ... NOT USED
CABS basis                                  ... NOT available
Auxiliary Coulomb fitting basis             ... NOT available
Auxiliary J/K fitting basis                 ... NOT available
Auxiliary Correlation fitting basis         ... NOT available
Auxiliary 'external' fitting basis          ... NOT available

Checking pre-screening integrals            ... done (  0.0 sec) Dimension = 64
   => SHARK Basis and OBASIS are compatible. Storing Pre-screening
Shell pair information
Shell pair cut-off parameter TPreSel        ...   2.5e-12
Total number of shell pairs                 ...      2080
Shell pairs after pre-screening             ...      2053
Total number of primitive shell pairs       ...      9532
Primitive shell pairs kept                  ...      7093
          la=0 lb=0:    402 shell pairs
          la=1 lb=0:    550 shell pairs
          la=1 lb=1:    207 shell pairs
          la=2 lb=0:    332 shell pairs
          la=2 lb=1:    235 shell pairs
          la=2 lb=2:     77 shell pairs
          la=3 lb=0:    112 shell pairs
          la=3 lb=1:     80 shell pairs
          la=3 lb=2:     48 shell pairs
          la=3 lb=3:     10 shell pairs

Checking whether 4 symmetric matrices of dimension 176 fit in memory
:Max Core in MB      =   4096.00
 MB in use           =      4.86
 MB left             =   4091.14
 MB needed           =      0.48
 Data fit in memory  = YES
Calculating Nuclear repulsion               ... done (  0.0 sec) ENN=    120.693288504615 Eh

Diagonalization of the overlap matrix:
Smallest eigenvalue                        ... 8.488e-04
Time for diagonalization                   ...    0.004 sec
Threshold for overlap eigenvalues          ... 1.000e-07
Number of eigenvalues below threshold      ... 0
Time for construction of square roots      ...    0.003 sec
Total time needed                          ...    0.009 sec

-------------------
DFT GRID GENERATION
-------------------

General Integration Accuracy     IntAcc      ... 4.388
Radial Grid Type                 RadialGrid  ... OptM3 with GC (2021)
Angular Grid (max. ang.)         AngularGrid ... 4 (Lebedev-302)
Angular grid pruning method      GridPruning ... 4 (adaptive)
Weight generation scheme         WeightScheme... mBecke (2022)
Basis function cutoff            BFCut       ... 1.0000e-11
Integration weight cutoff        WCut        ... 1.0000e-14
Partially contracted basis set               ... off
Rotationally invariant grid construction     ... off
Angular grids for H and He will be reduced by one unit
Diffuse basis detected: some atoms will have their outermost
                        angular grid increased by 1.

Total number of grid points                  ...    38011
Total number of batches                      ...      598
Average number of points per batch           ...       63
Average number of grid points per atom       ...     4751
Grids setup in   0.2 sec
Initializing property integral containers    ... done (  0.0 sec)

SHARK setup successfully completed in   0.3 seconds

Maximum memory used throughout the entire STARTUP-calculation: 14.0 MB


           ************************************************************
           *        Program running with 8 parallel MPI-processes     *
           *              working on a common directory               *
           ************************************************************
-------------------------------------------------------------------------------
                                 ORCA GUESS
                   Start orbitals & Density for SCF / CASSCF
-------------------------------------------------------------------------------

------------
SCF SETTINGS
------------
Hamiltonian:
 Density Functional     Method          .... DFT(GTOs)
 Exchange Functional    Exchange        .... no Exchange
  Functional kind                       .... Correlation
  Functional name                       .... Perdew & Wang 91
  Functional family                     .... GGA
  Functional refs                              
    [ 0] J. P. Perdew. In P. Ziesche and H. Eschrig, editors, Proceedings of the 75. WE-Heraeus-Seminar and 21st Annual International Symposium on Electronic Structure of Solids, 11. Berlin, 1991. Akademie Verlag.
    [ 1] J. P. Perdew, J. A. Chevary, S. H. Vosko, K. A. Jackson, M. R. Pederson, D. J. Singh, and C. Fiolhais.,  Phys. Rev. B 46, 6671 (1992), doi: 10.1103/PhysRevB.46.6671
    [ 2] J. P. Perdew, J. A. Chevary, S. H. Vosko, K. A. Jackson, M. R. Pederson, D. J. Singh, and C. Fiolhais.,  Phys. Rev. B 48, 4978 (1993), doi: 10.1103/PhysRevB.48.4978.2
  Functional external parameters        .... 0
 Gradients option       PostSCFGGA      .... off


General Settings:
 Integral files         IntName         .... /cluster/projects/nn14654k/ylvaos/basis_set_n_funcs/functionals/gga_c_pw91/CH3COOH/inp/CH3COOH_gga_c_pw91_pc2
 Hartree-Fock type      HFTyp           .... RHF
 Total Charge           Charge          ....    0
 Multiplicity           Mult            ....    1
 Number of Electrons    NEL             ....   32
 Basis Dimension        Dim             ....  176
 Nuclear Repulsion      ENuc            ....    120.6932885046 Eh

Convergence Acceleration:
 AO-DIIS                CNVDIIS         .... on
   Start iteration      DIISMaxIt       ....    12
   Startup error        DIISStart       ....  0.200000
   # of expansion vecs  DIISMaxEq       ....     5
   Bias factor          DIISBfac        ....   1.050
   Max. coefficient     DIISMaxC        ....  10.000
 MO-DIIS                CNVKDIIS        .... off
 Trust-Rad. Augm. Hess. CNVTRAH         .... auto
   Auto Start mean grad. ratio tolernc. ....  1.125000
   Auto Start start iteration           ....    50
   Auto Start num. interpolation iter.  ....    10
   Max. Number of Micro iterations      ....    24
   Max. Number of Macro iterations      .... Maxiter - #DIIS iter
   Number of Davidson start vectors     ....     2
   Converg. threshold    (grad. norm)   ....   1.000e-05
   Grad. Scal. Fac. for Micro threshold ....   0.100
   Minimum threshold for Micro iter.    ....   1.000e-02
   NR start threshold (gradient norm)   ....   1.000e-04
   Initial trust radius                 ....   0.400
   Minimum AH scaling param. (alpha)    ....   1.000
   Maximum AH scaling param. (alpha)    .... 1000.000
   Quad. conv. algorithm                .... NR
   White noise on init. David. guess    .... on
   Maximum white noise                  ....   0.010
   Pseudo random numbers                .... off
   Inactive MOs                         .... canonical
   Orbital update algorithm             .... Taylor
   Preconditioner                       .... Diag
   Full preconditioner red. dimension   ....   250
 SOSCF                 CNVSOSCF           .... on
   Start iteration     SOSCFMaxIt         ....   150
   Startup grad/error  SOSCFStart         ....  0.003300
   Hessian update      SOSCFHessUp        .... L-BFGS
   Autom. constraints  SOSCFAutoConstrain .... off
 Level Shifting         CNVShift        .... on
   Level shift para.    LevelShift      ....    0.2500
   Turn off err/grad.   ShiftErr        ....    0.0010
 Zerner damping         CNVZerner       .... off
 Static damping         CNVDamp         .... on
   Fraction old density DampFac         ....    0.7000
   Max. Damping (<1)    DampMax         ....    0.9800
   Min. Damping (>=0)   DampMin         ....    0.0000
   Turn off err/grad.   DampErr         ....    0.1000

SCF Procedure:
 Maximum # iterations   MaxIter         ....   125
 SCF integral mode      SCFMode         .... Direct
   Integral package                     .... SHARK and LIBINT hybrid scheme
 Reset frequency        DirectResetFreq ....    20
 Integral Threshold     Thresh          ....  2.500e-11 Eh
 Primitive CutOff       TCut            ....  2.500e-12 Eh

Convergence Tolerance:
 Convergence Check Mode ConvCheckMode   .... Total+1el-Energy
 Convergence forced     ConvForced      .... 0
 Energy Change          TolE            ....  1.000e-08 Eh
 1-El. energy change                    ....  1.000e-05 Eh
 Orbital Gradient       TolG            ....  1.000e-05
 Orbital Rotation angle TolX            ....  1.000e-05
 DIIS Error             TolErr          ....  5.000e-07

------------------------------
INITIAL GUESS: MODEL POTENTIAL
------------------------------
Loading Hartree-Fock densities                     ... done
Calculating cut-offs                               ... done
Initializing the effective Hamiltonian             ... done
Setting up the integral package (SHARK)            ... done
Starting the Coulomb interaction                   ... done (   0.0 sec)
Making the grid                                    ... done (   0.0 sec)
Mapping shells                                     ... done
Starting the XC term evaluation                    ... done (   0.0 sec)
  promolecular density results
     # of electrons  =     31.996961635
     EX              =      0.000000000
     EC              =     -1.130851368
     EX+EC           =     -1.130851368
Transforming the Hamiltonian                       ... done (   0.0 sec)
Diagonalizing the Hamiltonian                      ... done (   0.0 sec)
Back transforming the eigenvectors                 ... done (   0.0 sec)
Now organizing SCF variables                       ... done
                      ------------------
                      INITIAL GUESS DONE (   0.1 sec)
                      ------------------
             **** ENERGY FILE WAS UPDATED (/cluster/projects/nn14654k/ylvaos/basis_set_n_funcs/functionals/gga_c_pw91/CH3COOH/inp/CH3COOH_gga_c_pw91_pc2.en.tmp) ****
Finished Guess after   0.2 sec
Maximum memory used throughout the entire GUESS-calculation: 9.3 MB


           ************************************************************
           *        Program running with 8 parallel MPI-processes     *
           *              working on a common directory               *
           ************************************************************

-------------------------------------------------------------------------------------------
                                      ORCA LEAN-SCF
                              memory conserving SCF solver
-------------------------------------------------------------------------------------------

----------------------------------------D-I-I-S--------------------------------------------
Iteration    Energy (Eh)           Delta-E    RMSDP     MaxDP     DIISErr   Damp  Time(sec)
-------------------------------------------------------------------------------------------
               ***  Starting incremental Fock matrix formation  ***
    1    -197.3149533090814316     0.00e+00  2.04e-01  4.19e+00  9.62e-01  0.700   0.4
Warning: op=0 Small HOMO/LUMO gap (  -1.142) - skipping pre-diagonalization
         LevelShift set to 1.000 Eh
         Will do a full diagonalization
    2    -199.0911397898607902    -1.78e+00  1.43e-01  2.95e+00  2.85e-01  0.700   0.5
    3    -199.7491572680004879    -6.58e-01  9.99e-02  2.06e+00  2.33e-01  0.700   0.5
    4    -200.2190887371132249    -4.70e-01  6.98e-02  1.44e+00  2.30e-01  0.700   0.4
                               ***Turning on AO-DIIS***
    5    -200.6164359992126833    -3.97e-01  4.87e-02  1.01e+00  1.69e-01  0.700   0.5
    6    -200.8886263408528521    -2.72e-01  3.40e-02  7.06e-01  1.53e-01  0.700   0.6
    7    -201.0829756664397792    -1.94e-01  2.37e-02  4.93e-01  1.47e-01  0.700   0.7
    8    -201.2406006878999278    -1.58e-01  1.66e-02  3.42e-01  1.43e-01  0.700   0.4
    9    -201.3679620252204359    -1.27e-01  1.17e-02  2.37e-01  1.14e-01  0.700   0.4
   10    -201.4565405483662062    -8.86e-02  8.30e-03  1.62e-01  8.00e-02  0.700   0.4
   11    -201.5174161378452027    -6.09e-02  1.98e-02  3.64e-01  5.37e-02  0.000   0.4
   12    -201.6529713066884142    -1.36e-01  2.15e-03  2.01e-02  1.19e-02  0.000   0.4
   13    -201.6543151966229743    -1.34e-03  1.62e-03  1.65e-02  7.74e-03  0.000   0.4
   14    -201.6551107383511408    -7.96e-04  1.27e-03  1.37e-02  7.59e-03  0.000   0.4
   15    -201.6555577814406774    -4.47e-04  1.05e-03  1.19e-02  7.13e-03  0.000   0.4
   16    -201.6558530504983082    -2.95e-04  9.08e-04  1.13e-02  6.43e-03  0.000   0.4
   17    -201.6560773589131941    -2.24e-04  7.65e-04  9.63e-03  5.07e-03  0.000   0.4
   18    -201.6562139380641838    -1.37e-04  6.62e-04  8.94e-03  4.92e-03  0.000   0.7
   19    -201.6563165354684770    -1.03e-04  5.78e-04  8.09e-03  4.38e-03  0.000   0.5
   20    -201.6563922529085744    -7.57e-05  5.09e-04  7.48e-03  3.97e-03  0.000   0.4
               *** Restarting incremental Fock matrix formation ***
                             ****Resetting DIIS****
Warning: op=0 Small HOMO/LUMO gap (   0.075) - skipping pre-diagonalization
         Will do a full diagonalization
   21    -201.6564518677282081    -5.96e-05  4.65e-03  8.44e-02  3.38e-03  0.000   0.5
   22    -201.6564224646613184     2.94e-05  5.14e-04  7.27e-03  1.21e-02  0.000   0.4
   23    -201.6565960187523388    -1.74e-04  3.42e-04  7.28e-03  4.21e-03  0.000   0.4
   24    -201.6566237519958236    -2.77e-05  2.28e-04  4.18e-03  3.47e-03  0.000   0.4
                              *** Initializing SOSCF ***
---------------------------------------S-O-S-C-F--------------------------------------
Iteration    Energy (Eh)           Delta-E    RMSDP     MaxDP     MaxGrad    Time(sec)
--------------------------------------------------------------------------------------
   25    -201.6566383671774361    -1.46e-05  1.27e-04  2.40e-03  1.42e-03     0.4
               *** Restarting incremental Fock matrix formation ***
   26    -201.6566413996578149    -3.03e-06  1.95e-04  3.37e-03  2.75e-04     0.4
   27    -201.6566341673230909     7.23e-06  1.22e-04  1.55e-03  1.10e-03     0.4
   28    -201.6566420368992567    -7.87e-06  4.31e-05  6.08e-04  7.99e-05     0.4
   29    -201.6566415065881870     5.30e-07  2.65e-05  2.80e-04  1.86e-04     0.3
   30    -201.6566421590698610    -6.52e-07  1.24e-05  2.33e-04  1.29e-05     0.6
   31    -201.6566421479761857     1.11e-08  7.42e-06  1.29e-04  3.17e-05     0.3
   32    -201.6566421632716697    -1.53e-08  3.69e-06  4.28e-05  5.15e-06     0.3
   33    -201.6566421630622585     2.09e-10  2.10e-06  2.31e-05  5.83e-06     0.3
                 **** Energy Check signals convergence ****

               *****************************************************
               *                     SUCCESS                       *
               *           SCF CONVERGED AFTER  33 CYCLES          *
               *****************************************************

             **** ENERGY FILE WAS UPDATED (/cluster/projects/nn14654k/ylvaos/basis_set_n_funcs/functionals/gga_c_pw91/CH3COOH/inp/CH3COOH_gga_c_pw91_pc2.en.tmp) ****

----------------
TOTAL SCF ENERGY
----------------

Total Energy       :       -201.65664216410545 Eh           -5487.35621 eV

Components:
Nuclear Repulsion  :        120.69328850461517 Eh            3284.23135 eV
Electronic Energy  :       -322.34993066872062 Eh           -8771.58755 eV
One Electron Energy:       -538.84094067956573 Eh          -14662.60743 eV
Two Electron Energy:        216.49101001084509 Eh            5891.01988 eV

Virial components:
Potential Energy   :       -415.26958116528766 Eh          -11300.05979 eV
Kinetic Energy     :        213.61293900118221 Eh            5812.70358 eV
Virial Ratio       :          1.94402821807994

DFT components:
N(Alpha)           :       16.000035292709 electrons
N(Beta)            :       16.000035292709 electrons
N(Total)           :       32.000070585419 electrons
E(X)               :        0.000000000000 Eh       
E(C)               :       -1.110952311744 Eh       
E(XC)              :       -1.110952311744 Eh       

---------------
SCF CONVERGENCE
---------------

  Last Energy change         ...   -2.0941e-10  Tolerance :   1.0000e-08
  Last MAX-Density change    ...    2.3067e-05  Tolerance :   1.0000e-07
  Last RMS-Density change    ...    2.1010e-06  Tolerance :   5.0000e-09
  Last DIIS Error            ...    1.4162e-03  Tolerance :   5.0000e-07
  Last Orbital Gradient      ...    5.8284e-06  Tolerance :   1.0000e-05
  Last Orbital Rotation      ...    1.2487e-05  Tolerance :   1.0000e-05


----------------
ORBITAL ENERGIES
----------------

  NO   OCC          E(Eh)            E(eV) 
   0   2.0000     -16.643360      -452.8888 
   1   2.0000     -16.604434      -451.8296 
   2   2.0000      -8.345969      -227.1054 
   3   2.0000      -8.265824      -224.9245 
   4   2.0000      -0.688833       -18.7441 
   5   2.0000      -0.594336       -16.1727 
   6   2.0000      -0.404024       -10.9940 
   7   2.0000      -0.259478        -7.0608 
   8   2.0000      -0.187843        -5.1115 
   9   2.0000      -0.169865        -4.6223 
  10   2.0000      -0.144696        -3.9374 
  11   2.0000      -0.097785        -2.6609 
  12   2.0000      -0.088274        -2.4021 
  13   2.0000      -0.066713        -1.8154 
  14   2.0000      -0.020938        -0.5698 
  15   2.0000       0.025426         0.6919 
  16   0.0000       0.103596         2.8190 
  17   0.0000       0.132702         3.6110 
  18   0.0000       0.148657         4.0452 
  19   0.0000       0.160149         4.3579 
  20   0.0000       0.204203         5.5566 
  21   0.0000       0.211390         5.7522 
  22   0.0000       0.270088         7.3495 
  23   0.0000       0.276228         7.5166 
  24   0.0000       0.280901         7.6437 
  25   0.0000       0.282743         7.6938 
  26   0.0000       0.318397         8.6640 
*Only the first 10 virtual orbitals were printed.

                    ********************************
                    * MULLIKEN POPULATION ANALYSIS *
                    ********************************

-----------------------
MULLIKEN ATOMIC CHARGES
-----------------------
   0 C :    0.084127
   1 C :    0.009460
   2 O :   -0.042441
   3 O :   -0.021277
   4 H :   -0.087539
   5 H :   -0.013776
   6 H :    0.035722
   7 H :    0.035722
Sum of atomic charges:   -0.0000000

--------------------------------
MULLIKEN REDUCED ORBITAL CHARGES
--------------------------------
  0 C s       :     2.735916  s :     2.735916
      pz      :     0.964010  p :     2.962606
      px      :     0.914890
      py      :     1.083707
      dz2     :     0.000566  d :     0.211376
      dxz     :     0.028374
      dyz     :     0.043015
      dx2y2   :     0.053766
      dxy     :     0.085655
      f0      :     0.001034  f :     0.005974
      f+1     :     0.000792
      f-1     :     0.001084
      f+2     :     0.001257
      f-2     :     0.000596
      f+3     :     0.002420
      f-3     :    -0.001208

  1 C s       :     2.698200  s :     2.698200
      pz      :     1.101875  p :     3.273645
      px      :     1.066361
      py      :     1.105409
      dz2     :     0.002529  d :     0.021039
      dxz     :     0.002865
      dyz     :     0.003987
      dx2y2   :     0.005722
      dxy     :     0.005936
      f0      :     0.000113  f :    -0.002344
      f+1     :    -0.000065
      f-1     :    -0.001666
      f+2     :    -0.000100
      f-2     :     0.000144
      f+3     :    -0.000025
      f-3     :    -0.000746

  2 O s       :     3.555447  s :     3.555447
      pz      :     1.324275  p :     4.456924
      px      :     1.635077
      py      :     1.497571
      dz2     :     0.002059  d :     0.028042
      dxz     :     0.000425
      dyz     :     0.010503
      dx2y2   :     0.006237
      dxy     :     0.008818
      f0      :     0.000266  f :     0.002028
      f+1     :     0.000056
      f-1     :    -0.000042
      f+2     :     0.000582
      f-2     :     0.000060
      f+3     :     0.000874
      f-3     :     0.000232

  3 O s       :     3.543931  s :     3.543931
      pz      :     1.640336  p :     4.452041
      px      :     1.260069
      py      :     1.551636
      dz2     :     0.003068  d :     0.024236
      dxz     :     0.003190
      dyz     :     0.002946
      dx2y2   :     0.005875
      dxy     :     0.009156
      f0      :     0.000312  f :     0.001068
      f+1     :     0.000312
      f-1     :     0.000085
      f+2     :     0.000109
      f-2     :     0.000150
      f+3     :     0.000263
      f-3     :    -0.000164

  4 H s       :     0.983929  s :     0.983929
      pz      :     0.024300  p :     0.097474
      px      :     0.031761
      py      :     0.041413
      dz2     :     0.000905  d :     0.006136
      dxz     :     0.000629
      dyz     :     0.000718
      dx2y2   :     0.001170
      dxy     :     0.002714

  5 H s       :     0.984163  s :     0.984163
      pz      :     0.004262  p :     0.029434
      px      :     0.018656
      py      :     0.006516
      dz2     :    -0.000134  d :     0.000179
      dxz     :     0.000175
      dyz     :     0.000073
      dx2y2   :     0.000206
      dxy     :    -0.000142

  6 H s       :     0.928603  s :     0.928603
      pz      :     0.015151  p :     0.035299
      px      :     0.005119
      py      :     0.015029
      dz2     :     0.000186  d :     0.000376
      dxz     :     0.000202
      dyz     :    -0.000202
      dx2y2   :     0.000085
      dxy     :     0.000104

  7 H s       :     0.928603  s :     0.928603
      pz      :     0.015151  p :     0.035299
      px      :     0.005119
      py      :     0.015029
      dz2     :     0.000186  d :     0.000376
      dxz     :     0.000202
      dyz     :    -0.000202
      dx2y2   :     0.000085
      dxy     :     0.000104



                     *******************************
                     * LOEWDIN POPULATION ANALYSIS *
                     *******************************

----------------------
LOEWDIN ATOMIC CHARGES
----------------------
   0 C :   -0.414152
   1 C :    0.052198
   2 O :    0.208238
   3 O :    0.420100
   4 H :   -0.238178
   5 H :   -0.023926
   6 H :   -0.002140
   7 H :   -0.002140

-------------------------------
LOEWDIN REDUCED ORBITAL CHARGES
-------------------------------
  0 C s       :     2.720706  s :     2.720706
      pz      :     0.853731  p :     2.970222
      px      :     0.982109
      py      :     1.134382
      dz2     :     0.035076  d :     0.654585
      dxz     :     0.078938
      dyz     :     0.115276
      dx2y2   :     0.171463
      dxy     :     0.253832
      f0      :     0.002488  f :     0.068638
      f+1     :     0.003037
      f-1     :     0.005595
      f+2     :     0.011094
      f-2     :     0.004412
      f+3     :     0.028037
      f-3     :     0.013974

  1 C s       :     2.649594  s :     2.649594
      pz      :     1.065480  p :     3.154021
      px      :     1.041758
      py      :     1.046783
      dz2     :     0.022723  d :     0.132395
      dxz     :     0.009656
      dyz     :     0.032683
      dx2y2   :     0.029607
      dxy     :     0.037726
      f0      :     0.000724  f :     0.011792
      f+1     :     0.001899
      f-1     :     0.001909
      f+2     :     0.001448
      f-2     :     0.001140
      f+3     :     0.002079
      f-3     :     0.002591

  2 O s       :     3.329695  s :     3.329695
      pz      :     1.315091  p :     4.373972
      px      :     1.540319
      py      :     1.518562
      dz2     :     0.008519  d :     0.073093
      dxz     :     0.000862
      dyz     :     0.015627
      dx2y2   :     0.024060
      dxy     :     0.024026
      f0      :     0.000945  f :     0.015002
      f+1     :     0.000391
      f-1     :     0.002664
      f+2     :     0.001462
      f-2     :     0.000218
      f+3     :     0.004572
      f-3     :     0.004750

  3 O s       :     3.177981  s :     3.177981
      pz      :     1.541257  p :     4.324270
      px      :     1.249204
      py      :     1.533809
      dz2     :     0.008338  d :     0.067327
      dxz     :     0.009568
      dyz     :     0.003224
      dx2y2   :     0.017647
      dxy     :     0.028550
      f0      :     0.000864  f :     0.010323
      f+1     :     0.001073
      f-1     :     0.000466
      f+2     :     0.000433
      f-2     :     0.001002
      f+3     :     0.003754
      f-3     :     0.002729

  4 H s       :     0.862834  s :     0.862834
      pz      :     0.090359  p :     0.317899
      px      :     0.095076
      py      :     0.132465
      dz2     :     0.004848  d :     0.057445
      dxz     :     0.008042
      dyz     :     0.010434
      dx2y2   :     0.018335
      dxy     :     0.015786

  5 H s       :     0.874109  s :     0.874109
      pz      :     0.039217  p :     0.130520
      px      :     0.053641
      py      :     0.037663
      dz2     :     0.001827  d :     0.019296
      dxz     :     0.004451
      dyz     :     0.001338
      dx2y2   :     0.006114
      dxy     :     0.005566

  6 H s       :     0.847722  s :     0.847722
      pz      :     0.046649  p :     0.135288
      px      :     0.038959
      py      :     0.049679
      dz2     :     0.005740  d :     0.019130
      dxz     :     0.003680
      dyz     :     0.005395
      dx2y2   :     0.001975
      dxy     :     0.002340

  7 H s       :     0.847722  s :     0.847722
      pz      :     0.046649  p :     0.135288
      px      :     0.038959
      py      :     0.049679
      dz2     :     0.005740  d :     0.019130
      dxz     :     0.003680
      dyz     :     0.005395
      dx2y2   :     0.001975
      dxy     :     0.002340



                      *****************************
                      * MAYER POPULATION ANALYSIS *
                      *****************************

  NA   - Mulliken gross atomic population
  ZA   - Total nuclear charge
  QA   - Mulliken gross atomic charge
  VA   - Mayer's total valence
  BVA  - Mayer's bonded valence
  FA   - Mayer's free valence

  ATOM       NA         ZA         QA         VA         BVA        FA
  0 C      5.9159     6.0000     0.0841     4.3851     4.3851     0.0000
  1 C      5.9905     6.0000     0.0095     3.5384     3.5384    -0.0000
  2 O      8.0424     8.0000    -0.0424     2.6413     2.6413    -0.0000
  3 O      8.0213     8.0000    -0.0213     2.4900     2.4900    -0.0000
  4 H      1.0875     1.0000    -0.0875     1.3783     1.3783    -0.0000
  5 H      1.0138     1.0000    -0.0138     1.0295     1.0295    -0.0000
  6 H      0.9643     1.0000     0.0357     0.9656     0.9656    -0.0000
  7 H      0.9643     1.0000     0.0357     0.9656     0.9656     0.0000

  Mayer bond orders larger than 0.100000
B(  0-C ,  1-C ) :   0.7502 B(  0-C ,  2-O ) :   2.2591 B(  0-C ,  3-O ) :   1.3724 
B(  1-C ,  5-H ) :   0.9489 B(  1-C ,  6-H ) :   0.8968 B(  1-C ,  7-H ) :   0.8968 
B(  2-O ,  4-H ) :   0.2433 B(  3-O ,  4-H ) :   1.0257 

-------
TIMINGS
-------

Total SCF time: 0 days 0 hours 0 min 14 sec 

Total time                  ....      14.750 sec
Sum of individual times     ....      14.396 sec  ( 97.6%)

SCF preparation             ....       0.063 sec  (  0.4%)
Fock matrix formation       ....      13.078 sec  ( 88.7%)
  Startup                   ....       0.020 sec  (  0.2% of F)
  Coulomb formation         ....      10.574 sec  ( 80.9% of F)
  XC integration            ....       2.052 sec  ( 15.7% of F)
    XC Preparation          ....       0.000 sec  (  0.0% of XC)
    Basis function eval.    ....       0.286 sec  ( 13.9% of XC)
    Density eval.           ....       0.201 sec  (  9.8% of XC)
    XC-Functional eval.     ....       0.077 sec  (  3.7% of XC)
    XC-Potential eval.      ....       0.365 sec  ( 17.8% of XC)
Diagonalization             ....       0.000 sec  (  0.0%)
Density matrix formation    ....       0.223 sec  (  1.5%)
Total Energy calculation    ....       0.044 sec  (  0.3%)
Population analysis         ....       0.010 sec  (  0.1%)
Orbital Transformation      ....       0.019 sec  (  0.1%)
Orbital Orthonormalization  ....       0.000 sec  (  0.0%)
DIIS solution               ....       0.883 sec  (  6.0%)
SOSCF solution              ....       0.077 sec  (  0.5%)
Finished LeanSCF after  14.8 sec

Maximum memory used throughout the entire LEANSCF-calculation: 16.3 MB


           ************************************************************
           *        Program running with 8 parallel MPI-processes     *
           *              working on a common directory               *
           ************************************************************

------------------------------------------------------------------------------
                         ORCA PROPERTY INTEGRAL CALCULATIONS
------------------------------------------------------------------------------

GBWName                                   ... /cluster/projects/nn14654k/ylvaos/basis_set_n_funcs/functionals/gga_c_pw91/CH3COOH/inp/CH3COOH_gga_c_pw91_pc2.gbw
Number of atoms                           ...      8
Number of basis functions                 ...    176
Max core memory                           ...   4096 MB

Dipole integrals                          ... YES
Quadrupole integrals                      ... YES
Linear momentum integrals                 ...  NO
Angular momentum integrals                ...  NO
Higher moments length integrals           ...  NO
Higher moments velocity integrals         ...  NO
Kinetic energy integrals                  ...  NO
GIAO right hand sides                     ...  NO
GIAO dipole derivative integrals          ...  NO
SOC integrals                             ...  NO
EPR diamagnetic integrals (GIAO)          ...  NO
EPR gauge integrals                       ...  NO
Field gradient integrals                  ...  NO (   0 nuclei)
Spin-dipole/Fermi contact integrals       ...  NO (   0 nuclei)
Contact density integrals                 ...  NO (   0 nuclei)
Nucleus-orbit integrals                   ...  NO (   0 nuclei)
Geometric perturbations                   ...  NO (   8 nuclei)

Choice of electric origin   ... Center of mass
Position of electric origin ... ( -0.0657,  0.0975,  0.0000) 
Choice of magnetic origin   ... GIAO
Position of magnetic origin ... (  0.0000,  0.0000,  0.0000) 

Calculating integrals                     ... Electric Dipole (Length)     done (  0.0 sec)
Calculating integrals                     ... Electric Quadrupole (Length) done (  0.0 sec)

Property integrals calculated in   0.0 sec

Maximum memory used throughout the entire PROPINT-calculation: 9.9 MB
------------------------------------------------------------------------------
                           ORCA ORBITAL LOCALIZATION
------------------------------------------------------------------------------

Input orbitals are from                  ... /cluster/projects/nn14654k/ylvaos/basis_set_n_funcs/functionals/gga_c_pw91/CH3COOH/inp/CH3COOH_gga_c_pw91_pc2.gbw
Output orbitals are to                   ... /cluster/projects/nn14654k/ylvaos/basis_set_n_funcs/functionals/gga_c_pw91/CH3COOH/inp/CH3COOH_gga_c_pw91_pc2.loc
Max. number of iterations                ... 128
Localizations seeded randomly            ... on
Convergence tolerance                    ... 1.000e-06
Threshold for strong local MOs           ... 9.500e-01
Threshold for bond MOs                   ... 8.500e-01
Operator                                 ... 0
Orbital range for localization           ... 4 to 15
Localization criterion                   ... NEW-BOYS
Doing the dipole integrals               ... o.k.
Initial value of the localization sum :    60.972304
ITERATION   0 : L=   80.6070340410 DL=  1.96e+01 (AVERGE_DL)=    0.5454318574 
ITERATION   1 : L=   83.1208876323 DL=  2.51e+00 (AVERGE_DL)=    0.1951632414 
ITERATION   2 : L=   83.2017103482 DL=  8.08e-02 (AVERGE_DL)=    0.0349940938 
ITERATION   3 : L=   83.2060159396 DL=  4.31e-03 (AVERGE_DL)=    0.0080768950 
ITERATION   4 : L=   83.2064655984 DL=  4.50e-04 (AVERGE_DL)=    0.0026101748 
ITERATION   5 : L=   83.2067085478 DL=  2.43e-04 (AVERGE_DL)=    0.0019186067 
ITERATION   6 : L=   83.2068527716 DL=  1.44e-04 (AVERGE_DL)=    0.0014782451 
ITERATION   7 : L=   83.2069457513 DL=  9.30e-05 (AVERGE_DL)=    0.0011869220 
ITERATION   8 : L=   83.2070060979 DL=  6.03e-05 (AVERGE_DL)=    0.0009562124 
ITERATION   9 : L=   83.2070453996 DL=  3.93e-05 (AVERGE_DL)=    0.0007716743 
ITERATION  10 : L=   83.2070710166 DL=  2.56e-05 (AVERGE_DL)=    0.0006230058 
ITERATION  11 : L=   83.2070877246 DL=  1.67e-05 (AVERGE_DL)=    0.0005031419 
ITERATION  12 : L=   83.2070986256 DL=  1.09e-05 (AVERGE_DL)=    0.0004064064 
ITERATION  13 : L=   83.2071057404 DL=  7.11e-06 (AVERGE_DL)=    0.0003283295 
ITERATION  14 : L=   83.2071103853 DL=  4.64e-06 (AVERGE_DL)=    0.0002652860 
ITERATION  15 : L=   83.2071134178 DL=  3.03e-06 (AVERGE_DL)=    0.0002143528 
ITERATION  16 : L=   83.2071153979 DL=  1.98e-06 (AVERGE_DL)=    0.0001732086 
ITERATION  17 : L=   83.2071166911 DL=  1.29e-06 (AVERGE_DL)=    0.0001399782 
ITERATION  18 : L=   83.2071175358 DL=  8.45e-07 (AVERGE_DL)=    0.0001131350 
LOCALIZATION SUM CONVERGED


--------------------------------------------------------------------------------
                    LOCALIZED MOLECULAR ORBITAL COMPOSITIONS
--------------------------------------------------------------------------------

The Mulliken populations for each LMO on each atom are computed
The LMO`s will be ordered according to atom index and type
  (A) Strongly localized MO`s have populations of >=0.950 on one atom
  (B) Two center bond orbitals have populations of >=0.850 on two atoms
  (C) Other MO`s are considered to be `delocalized`

FOUND  -   0 strongly local MO`s
       -  12 two center bond MO`s
       -   0 significantly delocalized MO`s

Bond-like localized orbitals:
MO  15:   7H  -   0.504112  and   1C  -   0.484828
MO  14:   6H  -   0.504111  and   1C  -   0.484829
MO  13:   5H  -   0.514584  and   1C  -   0.510225
MO  12:   4H  -   0.433914  and   3O  -   0.595203
MO  11:   3O  -   0.906024  and   0C  -   0.068980
MO  10:   3O  -   0.777081  and   0C  -   0.239697
MO   9:   3O  -   0.776291  and   0C  -   0.240630
MO   8:   2O  -   0.826052  and   0C  -   0.117765
MO   7:   2O  -   0.685988  and   0C  -   0.332059
MO   6:   2O  -   0.685982  and   0C  -   0.332076
MO   5:   2O  -   0.865478  and   0C  -   0.129360
MO   4:   1C  -   0.472875  and   0C  -   0.495299
Localized MO's were stored in: /cluster/projects/nn14654k/ylvaos/basis_set_n_funcs/functionals/gga_c_pw91/CH3COOH/inp/CH3COOH_gga_c_pw91_pc2.loc

-------------------------   --------------------
FINAL SINGLE POINT ENERGY      -201.656642164105
-------------------------   --------------------



           ************************************************************
           *        Program running with 8 parallel MPI-processes     *
           *              working on a common directory               *
           ************************************************************

------------------------------------------------------------------------------
                              ORCA PROPERTY CALCULATIONS
------------------------------------------------------------------------------

GBWName                                 ... /cluster/projects/nn14654k/ylvaos/basis_set_n_funcs/functionals/gga_c_pw91/CH3COOH/inp/CH3COOH_gga_c_pw91_pc2.gbw
Number of atoms                         ...      8
Number of basis functions               ...    176
Max core memory                         ...   4096 MB

Electric properties:
Dipole moment                           ... YES
Quadrupole moment                       ... YES
Static polarizability (Dipole/Dipole)   ...  NO
Static polarizability (Dipole/Quad.)    ...  NO
Static polarizability (Quad./Quad.)     ...  NO
Static polarizability (Velocity)        ...  NO
Static hyperpolarizability              ...  NO

Atomic electric properties:
Dipole moment                           ...  NO
Quadrupole moment                       ...  NO
Static polarizability                   ...  NO

Choice of electric origin               ... Center of mass
Position of electric origin             ...    -0.065707     0.097461     0.000000

General magnetic properties:
Magnetizability                         ...  NO

EPR properties:
g-Tensor (aka g-matrix)                 ...  NO
Zero-Field splitting spin-orbit         ...  NO
Zero-field splitting spin-spin          ...  NO
Hyperfine couplings                     ...  NO (   0 nuclei)
Quadrupole couplings                    ...  NO (   0 nuclei)
Contact density                         ...  NO (   0 nuclei)

NMR properties:
Chemical shifts                         ...  NO (   0 nuclei)
Spin-rotation constants                 ...  NO (   0 nuclei)
Spin-spin couplings                     ...  NO (   0 nuclei,    0 pairs)

Choice of magnetic origin               ... GIAO
Position of magnetic origin             ...     0.000000     0.000000     0.000000

Properties with geometric perturbations:
SCF Hessian                             ...  NO
IR spectrum                             ...  NO
VCD spectrum                            ...  NO
X-ray spectroscopy properties:
SCF XES/XAS/RIXS spectra                ...  NO

SCF SOC stabilization energy            ...  NO
Diagonal Born-Oppenheimer correction    ...  NO

-------------
DIPOLE MOMENT
-------------

Method             : SCF
Type of density    : Electron Density
Multiplicity       :   1
Irrep              :   0
Energy             :  -201.6566421641054490 Eh
Basis              : AO
                                X                 Y                 Z
Electronic contribution:     -2.180837595       2.673404686       0.000000022
Nuclear contribution   :      2.102617427      -3.118765285       0.000000000
                        -----------------------------------------
Total Dipole Moment    :     -0.078220168      -0.445360598       0.000000022
                        -----------------------------------------
Magnitude (a.u.)       :      0.452177462
Magnitude (Debye)      :      1.149343769



--------------------
Rotational spectrum 
--------------------
 
Rotational constants in cm-1:             0.373252             0.316126             0.176788 
Rotational constants in MHz :         11189.819630          9477.229268          5299.974115 

Dipole components along the rotational axes: 
x,y,z [a.u.] :    -0.229822    -0.389418     0.000000 
x,y,z [Debye]:    -0.584162    -0.989821     0.000000 

 

Dipole moment calculation done in   0.0 sec 

-----------------
QUADRUPOLE MOMENT
-----------------

Method             : SCF
Type of density    : Electron Density
Multiplicity       :   1
Irrep              :   0
Energy             :  -201.6566421641054490 Eh
Basis              : AO

                XX              YY              ZZ              XY              XZ              YZ
  NUC      103.447904006    93.335807526     5.552847104   -15.402641721     0.000000000     0.000000000
  EL      -129.136478639  -122.467700785   -30.890510481    14.005716441     0.000000069    -0.000000191
  TOT      -25.688574633   -29.131893259   -25.337663377    -1.396925280     0.000000069    -0.000000191 (a.u.)
           -34.552011430   -39.183392744   -34.080023791    -1.878912276     0.000000093    -0.000000257 (Buckingham)

diagonalized tensor:
           -29.627329123   -25.337663377   -25.193138768 (a.u.)
           -39.849770925   -34.080023791   -33.885633248 (Buckingham)
           -11.733884812     5.575356593     6.158528219 (traceless form in Buckingham)

            -0.334261651    -0.000000856    -0.942480317
            -0.942480317     0.000000265     0.334261651
            -0.000000037     1.000000000    -0.000000895
        
Isotropic quadrupole :   -26.719377090

Quadrupole moment calculation done in   0.0 sec (  0.0 sec for integrals)

Maximum memory used throughout the entire PROP-calculation: 6.7 MB

--------------------------------
SUGGESTED CITATIONS FOR THIS RUN
--------------------------------

Below you find a list of papers that are relevant to this ORCA run
We neither can nor want to force you to cite these papers, but we appreciate if you do
You receive ORCA, which is the product of decades of hard work by many enthusiastic individuals, for free
The only thing we kindly ask in return is that you cite our papers,
We deeply appreciate it, if you show your appreciation for ORCA by not just citing the generic ORCA reference.

Please note that relegating all ORCA citations to the supporting information does *not* help us.
SI sections are not indexed - citations you put there will not count into any citation statistics
But we need these citations in order to attract the funding resources that allow us to do what we are doing

Therefore, if you are a happy ORCA user, please consider citing a few of the papers listed below in the main body of your paper

In addition to the list printed below, the program has created the file /cluster/projects/nn14654k/ylvaos/basis_set_n_funcs/functionals/gga_c_pw91/CH3COOH/inp/CH3COOH_gga_c_pw91_pc2.bibtex that contains the list in bibtex format
You can import this file easily into all common literature databanks and citation aid programs

It goes without saying that in many instances, there are alternative algorithms to achieve similar
results as the ones you have gotten from ORCA. It is, of course, also the case that in some instances
ORCA just re-implements algorithms worked out by others. We are fully aware of that and we are also
fully appreciative of our colleagues work. Hence this citation list should not be read as indicating
that the listed papers, which are focused on our own work, are the only ones worth citing. It simply
meant to make it easier for users to cite ORCA specific papers. It is not a substitute for doing your
own literature research and citing the relevant literature in a scientifically appropriate manner.

List of essential papers. We consider these as the minimum necessary citations

  1. Neese, F.
     Software update: the ORCA program system, version 6.0
     WIRES Comput. Molec. Sci. 2025 15(1), e70019
     doi.org/10.1002/wcms.70019

List of papers to cite with high priority. The work reported in these papers was absolutely
necessary for this run to complete.
Our perspective: the developers of density functionals and basis sets usually get cited in chemistry papers
Good! But without the algorithms to do something with them, the functionals or basis sets would not do anything.
Hence, in our opinion, the algorithm design and method developments papers are equally worthy of getting cited

  1. Lehtola, S.; Steigemann, C.; Oliveira, M.; Marques, M.
     Recent developments in Libxc - A comprehensive library of functionals for density functional theory
     Software X 2018 7 , 
     doi.org/10.1016/j.softx.2017.11.002
  2. Neese, F.
     The SHARK Integral Generation and Digestion System
     J. Comp. Chem. 2022 44(3), 381
     doi.org/10.1002/jcc.26942

List of suggested additional citations. These are papers that are important in the 'surrounding' of 
of this run, or papers that preceded the highly important papers. If you like your results we are grateful for a citation.

  1. Neese, F.
     The ORCA program system
     WIRES Comput. Molec. Sci. 2012 2(1), 73-78
     doi.org/10.1002/wcms.81
  2. Neese, F.
     Software update: the ORCA program system, version 4.0
     WIRES Comput. Molec. Sci. 2018 8(1), 1-6
     doi.org/10.1002/wcms.1327
  3. Neese, F.; Wennmohs, F.; Becker, U.; Riplinger, C.
     The ORCA quantum chemistry program package
     J. Chem. Phys. 2020 152(22), 224108
     doi.org/10.1063/5.0004608
  4. Neese, F.
     Software update: The ORCA program system—Version 5.0
     WIRES Comput. Molec. Sci. 2022 12(1), e1606
     doi.org/10.1002/wcms.1606

List of optional additional citations

  1. Neese, F.
     Approximate second-order SCF convergence for spin unrestricted wavefunctions
     Chem. Phys. Lett. 2000 325(1-3), 93-98
     doi.org/10.1016/s0009-2614(00)00662-x

Timings for individual modules:

Sum of individual times          ...       16.812 sec (=   0.280 min)
Startup calculation              ...        0.864 sec (=   0.014 min)   5.1 %
SCF iterations                   ...       15.471 sec (=   0.258 min)  92.0 %
Property integrals               ...        0.240 sec (=   0.004 min)   1.4 %
Property calculations            ...        0.233 sec (=   0.004 min)   1.4 %
Orbital localization             ...        0.004 sec (=   0.000 min)   0.0 %
                             ****ORCA TERMINATED NORMALLY****
TOTAL RUN TIME: 0 days 0 hours 0 minutes 18 seconds 369 msec
