
                                 *****************
                                 * O   R   C   A *
                                 *****************

                                            #,                                       
                                            ###                                      
                                            ####                                     
                                            #####                                    
                                            ######                                   
                                           ########,                                 
                                     ,,################,,,,,                         
                               ,,#################################,,                 
                          ,,##########################################,,             
                       ,#########################################, ''#####,          
                    ,#############################################,,   '####,        
                  ,##################################################,,,,####,       
                ,###########''''           ''''###############################       
              ,#####''   ,,,,##########,,,,          '''####'''          '####       
            ,##' ,,,,###########################,,,                        '##       
           ' ,,###''''                  '''############,,,                           
         ,,##''                                '''############,,,,        ,,,,,,###''
      ,#''                                            '''#######################'''  
     '                                                          ''''####''''         
             ,#######,   #######,   ,#######,      ##                                
            ,#'     '#,  ##    ##  ,#'     '#,    #''#        ,####,    ,#,          
            ##       ##  ##   ,#'  ##            #'  '#       #'       ,# #          
            ##       ##  #######   ##           ,######,      #####,      #          
            '#,     ,#'  ##    ##  '#,     ,#' ,#      #,     #,   #      #          
             '#######'   ##     ##  '#######'  #'      '#     '####' #    #          



                #########################################################
                #                        -***-                          #
                #          Department of theory and spectroscopy        #
                #                                                       #
                #                      Frank Neese                      #
                #                                                       #
                #     Directorship, Architecture, Infrastructure        #
                #                    SHARK, DRIVERS                     #
                #        Core code/Algorithms in most modules           #
                #                                                       #
                #        Max Planck Institute fuer Kohlenforschung      #
                #                Kaiser Wilhelm Platz 1                 #
                #                 D-45470 Muelheim/Ruhr                 #
                #                      Germany                          #
                #                                                       #
                #                  All rights reserved                  #
                #                        -***-                          #
                #########################################################


                         Program Version 6.1.1  -  RELEASE   -
                                (GIT: $487d211c$)
                          ($2025-11-21 10:33:24 +0100$)


 With contributions from (in alphabetic order):
[Max-Planck-Institut fuer Kohlenforschung]                               
  Daniel Aravena         : Magnetic Suceptibility                        
  Michael Atanasov       : Ab Initio Ligand Field Theory (pilot matlab implementation)
  Alexander A. Auer      : GIAO ZORA, VPT2 properties, NMR spectrum      
  Ute Becker             : All parallelization in ORCA, NUMFREQ, NUMCALC 
  Giovanni Bistoni       : ED, misc. LED, open-shell LED, HFLD           
  Dmytro Bykov           : pre 5.0 version of the SCF Hessian            
  Marcos Casanova-Páez   : Triplet and SCS-CIS(D). UHF-(DLPNO)-IP/EA/STEOM-CCSD. UHF-CVS-IP/STEOM-CCSD   
  Vijay G. Chilkuri      : MRCI spin determinant printing, contributions to CSF-ICE 
  Pauline Colinet        : FMM embedding                                 
  Dipayan Datta          : RHF DLPNO-CCSD density                        
  Achintya Kumar Dutta   : EOM-CC, STEOM-CC                              
  Nicolas Foglia         : Exact transition moments, OPA infrastructure, MCD improvements    
  Dmitry Ganyushin       : Spin-Orbit,Spin-Spin,Magnetic field MRCI      
  Miquel Garcia-Rates    : C-PCM and meta-GGA Hessian, CCSD/C-PCM, Gaussian charge scheme 
  Tiago L. C. Gouveia    : GS-ROHF, GS-ROCIS                             
  Yang Guo               : DLPNO-NEVPT2, F12-NEVPT2, CIM, IAO-localization        
  Andreas Hansen         : Spin unrestricted coupled pair/coupled cluster methods 
  Ingolf Harden          : AUTO-CI MPn and infrastructure                
  Benjamin Helmich-Paris : MC-RPA, TRAH-(SCF,CASSCF), AVAS, COSX integrals, SCF dyn. polar., MC-PDFT, srDFT 
  Lee Huntington         : MR-EOM, pCC                                   
  Robert Izsak           : Overlap fitted RIJCOSX, COSX-SCS-MP3, EOM     
  Riya Kayal             : Wick's Theorem for AUTO-CI, AUTO-CI UHF-CCSDT 
  Emily Kempfer          : AUTO-CI RHF CISDT and CCSDT, approximate NEVPT4
  Christian Kollmar      : KDIIS, OOCD, Brueckner-CCSD(T), CCSD density, CASPT2, CASPT2-K, improved NEVPT2 
  Axel Koslowski         : Symmetry handling                             
  Simone Kossmann        : meta-GGA functionals, TD-DFT gradient, OOMP2, (MP2 Hessian; deprecated post 5.0) 
  Lucas Lang             : DCDCAS, Hyperfine gauge corrections, ICE-SOC+SSC
  Marvin Lechner         : AUTO-CI (C++ implementation), FIC-MRCC        
  Spencer Leger          : CASSCF response                               
  Dagmar Lenk            : GEPOL surface, SMD, ORCA-2-JSON               
  Dimitrios Liakos       : Extrapolation schemes; Compound Job, Property file
  Dimitrios Manganas     : Further ROCIS development; embedding schemes. LFT, Crystal Embedding 
  Dimitrios Pantazis     : SARC Basis sets                               
  Anastasios Papadopoulos: AUTO-CI, single reference methods and gradients 
  Taras Petrenko         : pre 6.0 DFT Hessian and TD-DFT gradient,  ECA, NRVS 
  Petra Pikulova         : Analytic Raman intensities                    
  Peter Pinski           : DLPNO-MP2, DLPNO-MP2 Gradient                 
  Shashank Vittal Rao    : ES-AILFT, MagRelax                            
  Christoph Reimann      : Effective Core Potentials                     
  Marius Retegan         : Local ZFS, SOC                                
  Christoph Riplinger    : Optimizer, TS searches, QM/MM, DLPNO-CCSD(T), (RO)-DLPNO pert. Triples 
  Michael Roemelt        : Original ROCIS implementation, recursive CI coupling coefficients
  Masaaki Saitow         : Open-shell DLPNO-CCSD energy and density      
  Barbara Sandhoefer     : DKH picture change effects                    
  Yorick L. A. Schmerwitz: GMF and freeze-and-release deltaSCF, NEB S-IDPP initial path                    
  Kantharuban Sivalingam : CASSCF convergence/infrastructure, NEVPT2, NEVPT3, NEVPT4(SD), FIC-MRCI and CEPA variants
  Bernardo de Souza      : ESD, SOC TD-DFT                               
  Georgi L. Stoychev     : AutoAux, RI-MP2 NMR, DLPNO-MP2 response, X2C  
  Van Anh Tran           : RI-MP2 g-tensors                              
  Willem Van den Heuvel  : Paramagnetic NMR                              
  Zikuan Wang            : NOTCH, Electric field optimization            
  Frank Wennmohs         : Technical directorship and infrastructure     
  Hang Xu                : AUTO-CI-Response properties                   
                                                                         
[FACCTs GmbH]                                                            
  Markus Bursch, Nicolas Foglia, Miquel Garcia-Rates, Ingolf Harden, Hagen Neugebauer, Anastasios Papadopoulos, 
  Christoph Riplinger, Bernardo de Souza, Georgi L. Stoychev                                                    
                                                                 
  APM, various basis sets, CI-OPT, improved COSX, DLPNO-Multilevel,           
  DOCKER, DRACO, updates on ESD, Fragmentator, GOAT, IRC, LR-CPCM, L-BFGS, MBIS, meta-GGA TD-DFT gradient, ML-optimized integration grids, 
  MM, NACMEs, nearIR, NEB, NEB-TS, NL-DFT gradient (VV10), 2- and 3-layer-ONIOM, interface openCOSMO-RS, QMMM,   
  Crystal-QMMM, RESP, rigid body optimization, SF, symmetry and pop. for TD-DFT, various functionals, SOLVATOR                                   
                                                                         
[Other institutions]                                                     
  V. Asgeirsson          : NEB                                           
  Christoph Bannwarth    : sTDA-DFT, sTD-DFT, PBEh-3c, B97-3c, D3        
  Giovanni Bistoni       : ETS/NOCV, ADLD/ADEX, COVALED                  
  Martin Brehm           : Molecular dynamics                            
  Ronald Cardenas        : ETS/NOCV                                      
  Martina Colucci        : COVALED                                       
  Sebastian Ehlert       : rSCAN, r2SCAN, r2SCAN-3c, D4, dhf basis sets  
  Marvin Friede          : D4 for Fr, Ra, Ac-Lr                          
  Lars Goerigk           : TD-DFT with DH, B97 family of functionals     
  Stefan Grimme          : VdW corrections, initial TS optimization, DFT functionals, gCP, sTDA/sTD-DF 
  Waldemar Hujo          : DFT-NL                                        
  H. Jonsson             : NEB                                           
  Holger Kruse           : gCP                                           
  Marcel Mueller         : wB97X-3c, vDZP basis set                      
  Hagen Neugebauer       : wr2SCAN, Native XTB                           
  Gianluca Regni         : ADLD/ADEX                                     
  Tobias Risthaus        : pre 6.0 range-separated hybrid DFT and stability analysis
  Lukas Wittmann         : regularized MP2, r2SCAN double-hybrids, wr2SCAN        
                                                                         
We gratefully acknowledge several colleagues who have allowed us to      
interface, adapt or use parts of their codes:                            
  Ed Valeev, F. Pavosevic, A. Kumar             : LibInt (2-el integral package), F12 methods 
  Garnet Chan, S. Sharma, J. Yang, R. Olivares  : DMRG                   
  Ulf Ekstrom                                   : XCFun DFT Library      
  Mihaly Kallay                                 : mrcc  (arbitrary order and MRCC methods)
  Frank Weinhold                                : gennbo (NPA and NBO analysis)           
  Simon Mueller                                 : openCOSMO-RS                            
  Christopher J. Cramer and Donald G. Truhlar   : smd solvation model                     
  S Lehtola, MJT Oliveira, MAL Marques          : LibXC Library                           
  Liviu Ungur et al                             : ANISO software                          


 Your calculation uses the libint2 library for the computation of 2-el integrals
 For citations please refer to: http://libint.valeyev.net

 Your ORCA version has been built with support for libXC version: 7.0.0
 For citations please refer to: https://libxc.gitlab.io

 This ORCA versions uses:
   CBLAS   interface :  Fast vector & matrix operations
   LAPACKE interface :  Fast linear algebra routines
   SCALAPACK package :  Parallel linear algebra routines
   Shared memory     :  Shared parallel matrices
   BLAS/LAPACK       :  OpenBLAS 0.3.29  USE64BITINT DYNAMIC_ARCH NO_AFFINITY Cooperlake SINGLE_THREADED
        Core in use  :  Cooperlake
   Copyright (c) 2011-2014, The OpenBLAS Project


  ***********************************
  * Starting time: Wed May 20 12:40:34 2026
  * Host name:     c1-5
  * Process ID:    989502
  * Working dir.:  /cluster/projects/nn14654k/ylvaos/basis_set_n_funcs/functionals/gga_c_pbe/SiH2/out
  ***********************************

Using LibXC functional ID 130 : Perdew, Burke & Ernzerhof
[ 1]  J. P. Perdew, K. Burke, and M. Ernzerhof.,  Phys. Rev. Lett. 77, 3865 (1996)
[ 2]  J. P. Perdew, K. Burke, and M. Ernzerhof.,  Phys. Rev. Lett. 78, 1396 (1997)
Using LibXC functional ID 130 : Perdew, Burke & Ernzerhof
[ 1]  J. P. Perdew, K. Burke, and M. Ernzerhof.,  Phys. Rev. Lett. 77, 3865 (1996)
[ 2]  J. P. Perdew, K. Burke, and M. Ernzerhof.,  Phys. Rev. Lett. 78, 1396 (1997)
Your calculation utilizes LibXC
by S. Lehtola, C. Steigemann, M. J. T. Oliveira & M. A. L. Marques
Please cite in your paper:
Lehtola, S.; Steigemann, C.; Oliveira, M.J.T.; Marques, M. A. L. Software X, 7, (2018), 1.
   

================================================================================

----- Orbital basis set information -----
Your calculation utilizes the basis: def2-QZVP
   F. Weigend and R. Ahlrichs, Phys. Chem. Chem. Phys. 7, 3297 (2005).

================================================================================
                                        WARNINGS
                       Please study these warnings very carefully!
================================================================================


================================================================================
                                       INPUT FILE
================================================================================
NAME = /cluster/projects/nn14654k/ylvaos/basis_set_n_funcs/functionals/gga_c_pbe/SiH2/inp/SiH2_gga_c_pbe_def2qzvp.inp
|  1> ! dft def2-QZVP TightSCF
|  2> %pal nprocs 8 end
|  3> 
|  4> %loc
|  5>   LocMet NewBoys
|  6>   Occ true
|  7> end
|  8> 
|  9> %method
| 10>   exchange None
| 11>   correlation gga_c_pbe
| 12> end
| 13> 
| 14> %elprop
| 15>   Dipole true
| 16>   Quadrupole true
| 17> end
| 18> 
| 19> * xyz 0 1
| 20> Si    0.000000000000   0.000000000000   0.000000000000
| 21> H    0.000000000000   0.000000000000  -1.514100000000
| 22> H    0.000000000000   1.513200000000   0.052800000000
| 23> *
| 24> 
| 25> 
| 26>                          ****END OF INPUT****
================================================================================

                       ****************************
                       * Single Point Calculation *
                       ****************************

---------------------------------
CARTESIAN COORDINATES (ANGSTROEM)
---------------------------------
  Si     0.000000    0.000000    0.000000
  H      0.000000    0.000000   -1.514100
  H      0.000000    1.513200    0.052800

----------------------------
CARTESIAN COORDINATES (A.U.)
----------------------------
  NO LB      ZA    FRAG     MASS         X           Y           Z
   0 Si   14.0000    0    28.086    0.000000    0.000000    0.000000
   1 H     1.0000    0     1.008    0.000000    0.000000   -2.861234
   2 H     1.0000    0     1.008    0.000000    2.859534    0.099778

--------------------------------
INTERNAL COORDINATES (ANGSTROEM)
--------------------------------
 Si     0   0   0     0.000000000000     0.00000000     0.00000000
 H      1   0   0     1.514100000000     0.00000000     0.00000000
 H      1   2   0     1.514120893456    91.99840755     0.00000000

---------------------------
INTERNAL COORDINATES (A.U.)
---------------------------
 Si     0   0   0     0.000000000000     0.00000000     0.00000000
 H      1   0   0     2.861234339370     0.00000000     0.00000000
 H      1   2   0     2.861273822280    91.99840755     0.00000000

---------------------
BASIS SET INFORMATION
---------------------
There are 2 groups of distinct atoms

 Group   1 Type Si  : 20s14p4d2f1g contracted to 9s6p4d2f1g pattern {1031111111/821111/1111/11/1}
 Group   2 Type H   : 7s3p2d1f contracted to 4s3p2d1f pattern {4111/111/11/1}

Atom   0Si   basis set group =>   1
Atom   1H    basis set group =>   2
Atom   2H    basis set group =>   2


           ************************************************************
           *        Program running with 8 parallel MPI-processes     *
           *              working on a common directory               *
           ************************************************************
------------------------------------------------------------------------------
                             ORCA STARTUP CALCULATIONS
------------------------------------------------------------------------------
------------------------------------------------------------------------------
                   ___                                                        
                  /   \      - P O W E R E D   B Y -                         
                 /     \                                                     
                 |  |  |   _    _      __       _____    __    __             
                 |  |  |  | |  | |    /  \     |  _  \  |  |  /  |          
                  \  \/   | |  | |   /    \    | | | |  |  | /  /          
                 / \  \   | |__| |  /  /\  \   | |_| |  |  |/  /          
                |  |  |   |  __  | /  /__\  \  |    /   |      \           
                |  |  |   | |  | | |   __   |  |    \   |  |\   \          
                \     /   | |  | | |  |  |  |  | |\  \  |  | \   \       
                 \___/    |_|  |_| |__|  |__|  |_| \__\ |__|  \__/        
                                                                              
                      - O R C A' S   B I G   F R I E N D -                    
                                      &                                       
                       - I N T E G R A L  F E E D E R -                       
                                                                              
 v1 FN, 2020, v2 2021, v3 2022-2024                                           
------------------------------------------------------------------------------


----------------------
SHARK INTEGRAL PACKAGE
----------------------

Number of atoms                             ...      3
Number of basis functions                   ...    130
Number of shells                            ...     42
Maximum angular momentum                    ...      4
Integral batch strategy                     ... SHARK/LIBINT Hybrid
RI-J (if used) integral strategy            ... SPLIT-RIJ (Revised 2003 algorithm where possible)
Printlevel                                  ...      1
Contraction scheme used                     ... SEGMENTED contraction
Prescreening option                         ... SCHWARTZ
   Thresh                                   ... 2.500e-11
   Tcut                                     ... 2.500e-12
   Tpresel                                  ... 2.500e-12 
Coulomb Range Separation                    ... NOT USED
Exchange Range Separation                   ... NOT USED
Multipole approximations                    ... NOT USED
Finite Nucleus Model                        ... NOT USED
CABS basis                                  ... NOT available
Auxiliary Coulomb fitting basis             ... NOT available
Auxiliary J/K fitting basis                 ... NOT available
Auxiliary Correlation fitting basis         ... NOT available
Auxiliary 'external' fitting basis          ... NOT available

Checking pre-screening integrals            ... done (  0.0 sec) Dimension = 42
   => SHARK Basis and OBASIS are compatible. Storing Pre-screening
Shell pair information
Shell pair cut-off parameter TPreSel        ...   2.5e-12
Total number of shell pairs                 ...       903
Shell pairs after pre-screening             ...       903
Total number of primitive shell pairs       ...      2367
Primitive shell pairs kept                  ...      2212
          la=0 lb=0:    153 shell pairs
          la=1 lb=0:    204 shell pairs
          la=1 lb=1:     78 shell pairs
          la=2 lb=0:    136 shell pairs
          la=2 lb=1:     96 shell pairs
          la=2 lb=2:     36 shell pairs
          la=3 lb=0:     68 shell pairs
          la=3 lb=1:     48 shell pairs
          la=3 lb=2:     32 shell pairs
          la=3 lb=3:     10 shell pairs
          la=4 lb=0:     17 shell pairs
          la=4 lb=1:     12 shell pairs
          la=4 lb=2:      8 shell pairs
          la=4 lb=3:      4 shell pairs
          la=4 lb=4:      1 shell pairs

Checking whether 4 symmetric matrices of dimension 130 fit in memory
:Max Core in MB      =   4096.00
 MB in use           =      4.34
 MB left             =   4091.66
 MB needed           =      0.26
 Data fit in memory  = YES
Calculating Nuclear repulsion               ... done (  0.0 sec) ENN=     10.028851096195 Eh

Diagonalization of the overlap matrix:
Smallest eigenvalue                        ... 3.573e-04
Time for diagonalization                   ...    0.001 sec
Threshold for overlap eigenvalues          ... 1.000e-07
Number of eigenvalues below threshold      ... 0
Time for construction of square roots      ...    0.002 sec
Total time needed                          ...    0.005 sec

-------------------
DFT GRID GENERATION
-------------------

General Integration Accuracy     IntAcc      ... 4.388
Radial Grid Type                 RadialGrid  ... OptM3 with GC (2021)
Angular Grid (max. ang.)         AngularGrid ... 4 (Lebedev-302)
Angular grid pruning method      GridPruning ... 4 (adaptive)
Weight generation scheme         WeightScheme... mBecke (2022)
Basis function cutoff            BFCut       ... 1.0000e-11
Integration weight cutoff        WCut        ... 1.0000e-14
Partially contracted basis set               ... off
Rotationally invariant grid construction     ... off
Angular grids for H and He will be reduced by one unit

Total number of grid points                  ...    13986
Total number of batches                      ...      220
Average number of points per batch           ...       63
Average number of grid points per atom       ...     4662
Grids setup in   0.0 sec
Initializing property integral containers    ... done (  0.0 sec)

SHARK setup successfully completed in   0.2 seconds

Maximum memory used throughout the entire STARTUP-calculation: 33.4 MB


           ************************************************************
           *        Program running with 8 parallel MPI-processes     *
           *              working on a common directory               *
           ************************************************************
-------------------------------------------------------------------------------
                                 ORCA GUESS
                   Start orbitals & Density for SCF / CASSCF
-------------------------------------------------------------------------------

------------
SCF SETTINGS
------------
Hamiltonian:
 Density Functional     Method          .... DFT(GTOs)
 Exchange Functional    Exchange        .... no Exchange
  Functional kind                       .... Correlation
  Functional name                       .... Perdew, Burke & Ernzerhof
  Functional family                     .... GGA
  Functional refs                              
    [ 0] J. P. Perdew, K. Burke, and M. Ernzerhof.,  Phys. Rev. Lett. 77, 3865 (1996), doi: 10.1103/PhysRevLett.77.3865
    [ 1] J. P. Perdew, K. Burke, and M. Ernzerhof.,  Phys. Rev. Lett. 78, 1396 (1997), doi: 10.1103/PhysRevLett.78.1396
  Functional external parameters        .... 3
    Parameter  0 _beta      =  6.672455e-02 : beta constant       
    Parameter  1 _gamma     =  3.109069e-02 : (1 - ln(2))/Pi^2 in the PBE
    Parameter  2 _B         =  1.000000e+00 : Multiplies the A t^2 term. Used in the SPBE functional
 Gradients option       PostSCFGGA      .... off


General Settings:
 Integral files         IntName         .... /cluster/projects/nn14654k/ylvaos/basis_set_n_funcs/functionals/gga_c_pbe/SiH2/inp/SiH2_gga_c_pbe_def2qzvp
 Hartree-Fock type      HFTyp           .... RHF
 Total Charge           Charge          ....    0
 Multiplicity           Mult            ....    1
 Number of Electrons    NEL             ....   16
 Basis Dimension        Dim             ....  130
 Nuclear Repulsion      ENuc            ....     10.0288510962 Eh

Convergence Acceleration:
 AO-DIIS                CNVDIIS         .... on
   Start iteration      DIISMaxIt       ....    12
   Startup error        DIISStart       ....  0.200000
   # of expansion vecs  DIISMaxEq       ....     5
   Bias factor          DIISBfac        ....   1.050
   Max. coefficient     DIISMaxC        ....  10.000
 MO-DIIS                CNVKDIIS        .... off
 Trust-Rad. Augm. Hess. CNVTRAH         .... auto
   Auto Start mean grad. ratio tolernc. ....  1.125000
   Auto Start start iteration           ....    50
   Auto Start num. interpolation iter.  ....    10
   Max. Number of Micro iterations      ....    24
   Max. Number of Macro iterations      .... Maxiter - #DIIS iter
   Number of Davidson start vectors     ....     2
   Converg. threshold    (grad. norm)   ....   1.000e-05
   Grad. Scal. Fac. for Micro threshold ....   0.100
   Minimum threshold for Micro iter.    ....   1.000e-02
   NR start threshold (gradient norm)   ....   1.000e-04
   Initial trust radius                 ....   0.400
   Minimum AH scaling param. (alpha)    ....   1.000
   Maximum AH scaling param. (alpha)    .... 1000.000
   Quad. conv. algorithm                .... NR
   White noise on init. David. guess    .... on
   Maximum white noise                  ....   0.010
   Pseudo random numbers                .... off
   Inactive MOs                         .... canonical
   Orbital update algorithm             .... Taylor
   Preconditioner                       .... Diag
   Full preconditioner red. dimension   ....   250
 SOSCF                 CNVSOSCF           .... on
   Start iteration     SOSCFMaxIt         ....   150
   Startup grad/error  SOSCFStart         ....  0.003300
   Hessian update      SOSCFHessUp        .... L-BFGS
   Autom. constraints  SOSCFAutoConstrain .... off
 Level Shifting         CNVShift        .... on
   Level shift para.    LevelShift      ....    0.2500
   Turn off err/grad.   ShiftErr        ....    0.0010
 Zerner damping         CNVZerner       .... off
 Static damping         CNVDamp         .... on
   Fraction old density DampFac         ....    0.7000
   Max. Damping (<1)    DampMax         ....    0.9800
   Min. Damping (>=0)   DampMin         ....    0.0000
   Turn off err/grad.   DampErr         ....    0.1000

SCF Procedure:
 Maximum # iterations   MaxIter         ....   125
 SCF integral mode      SCFMode         .... Direct
   Integral package                     .... SHARK and LIBINT hybrid scheme
 Reset frequency        DirectResetFreq ....    20
 Integral Threshold     Thresh          ....  2.500e-11 Eh
 Primitive CutOff       TCut            ....  2.500e-12 Eh

Convergence Tolerance:
 Convergence Check Mode ConvCheckMode   .... Total+1el-Energy
 Convergence forced     ConvForced      .... 0
 Energy Change          TolE            ....  1.000e-08 Eh
 1-El. energy change                    ....  1.000e-05 Eh
 Orbital Gradient       TolG            ....  1.000e-05
 Orbital Rotation angle TolX            ....  1.000e-05
 DIIS Error             TolErr          ....  5.000e-07

------------------------------
INITIAL GUESS: MODEL POTENTIAL
------------------------------
Loading Hartree-Fock densities                     ... done
Calculating cut-offs                               ... done
Initializing the effective Hamiltonian             ... done
Setting up the integral package (SHARK)            ... done
Starting the Coulomb interaction                   ... done (   0.0 sec)
Making the grid                                    ... done (   0.0 sec)
Mapping shells                                     ... done
Starting the XC term evaluation                    ... done (   0.0 sec)
  promolecular density results
     # of electrons  =     16.000312466
     EX              =      0.000000000
     EC              =     -0.555230770
     EX+EC           =     -0.555230770
Transforming the Hamiltonian                       ... done (   0.0 sec)
Diagonalizing the Hamiltonian                      ... done (   0.0 sec)
Back transforming the eigenvectors                 ... done (   0.0 sec)
Now organizing SCF variables                       ... done
                      ------------------
                      INITIAL GUESS DONE (   0.0 sec)
                      ------------------
             **** ENERGY FILE WAS UPDATED (/cluster/projects/nn14654k/ylvaos/basis_set_n_funcs/functionals/gga_c_pbe/SiH2/inp/SiH2_gga_c_pbe_def2qzvp.en.tmp) ****
Finished Guess after   0.2 sec
Maximum memory used throughout the entire GUESS-calculation: 10.2 MB


           ************************************************************
           *        Program running with 8 parallel MPI-processes     *
           *              working on a common directory               *
           ************************************************************

-------------------------------------------------------------------------------------------
                                      ORCA LEAN-SCF
                              memory conserving SCF solver
-------------------------------------------------------------------------------------------

----------------------------------------D-I-I-S--------------------------------------------
Iteration    Energy (Eh)           Delta-E    RMSDP     MaxDP     DIISErr   Damp  Time(sec)
-------------------------------------------------------------------------------------------
               ***  Starting incremental Fock matrix formation  ***
    1    -269.7665516764230915     0.00e+00  1.91e-02  1.99e-01  8.73e-01  0.700   0.2
Warning: op=0 Small HOMO/LUMO gap (   0.007) - skipping pre-diagonalization
         Will do a full diagonalization
    2    -269.9649989975753783    -1.98e-01  1.82e-02  2.01e-01  4.19e-01  0.700   0.3
                               ***Turning on AO-DIIS***
    3    -270.0518629660799093    -8.69e-02  1.21e-02  1.31e-01  1.84e-01  0.700   0.2
    4    -270.0995950018805161    -4.77e-02  8.04e-03  7.78e-02  1.15e-01  0.700   0.2
    5    -270.1311282082455705    -3.15e-02  5.18e-03  4.98e-02  7.65e-02  0.700   0.2
    6    -270.1527505793647492    -2.16e-02  1.07e-02  1.06e-01  5.28e-02  0.000   0.2
    7    -270.2024118932760075    -4.97e-02  1.24e-03  2.25e-02  5.79e-03  0.000   0.2
                              *** Initializing SOSCF ***
---------------------------------------S-O-S-C-F--------------------------------------
Iteration    Energy (Eh)           Delta-E    RMSDP     MaxDP     MaxGrad    Time(sec)
--------------------------------------------------------------------------------------
    8    -270.2025126258689625    -1.01e-04  6.15e-04  1.13e-02  1.56e-03     0.2
               *** Restarting incremental Fock matrix formation ***
    9    -270.2025181416649389    -5.52e-06  3.80e-04  6.65e-03  1.96e-04     0.2
   10    -270.2025187852004251    -6.44e-07  1.91e-04  3.62e-03  5.10e-05     0.2
   11    -270.2025188516794856    -6.65e-08  3.61e-05  6.78e-04  3.84e-05     0.2
   12    -270.2025188702851324    -1.86e-08  4.42e-06  8.31e-05  8.38e-06     0.3
   13    -270.2025188705846972    -3.00e-10  1.67e-06  3.16e-05  3.26e-06     0.2
                 **** Energy Check signals convergence ****

               *****************************************************
               *                     SUCCESS                       *
               *           SCF CONVERGED AFTER  13 CYCLES          *
               *****************************************************

             **** ENERGY FILE WAS UPDATED (/cluster/projects/nn14654k/ylvaos/basis_set_n_funcs/functionals/gga_c_pbe/SiH2/inp/SiH2_gga_c_pbe_def2qzvp.en.tmp) ****

----------------
TOTAL SCF ENERGY
----------------

Total Energy       :       -270.20251887063478 Eh           -7352.58434 eV

Components:
Nuclear Repulsion  :         10.02885109619548 Eh             272.89891 eV
Electronic Energy  :       -280.23136996683024 Eh           -7625.48325 eV
One Electron Energy:       -412.84879671745358 Eh          -11234.18689 eV
Two Electron Energy:        132.61742675062334 Eh            3608.70364 eV

Virial components:
Potential Energy   :       -540.56554693837302 Eh          -14709.53635 eV
Kinetic Energy     :        270.36302806773818 Eh            7356.95201 eV
Virial Ratio       :          1.99940631972407

DFT components:
N(Alpha)           :        8.000018995471 electrons
N(Beta)            :        8.000018995471 electrons
N(Total)           :       16.000037990942 electrons
E(X)               :        0.000000000000 Eh       
E(C)               :       -0.537949931902 Eh       
E(XC)              :       -0.537949931902 Eh       

---------------
SCF CONVERGENCE
---------------

  Last Energy change         ...    2.9956e-10  Tolerance :   1.0000e-08
  Last MAX-Density change    ...    3.1602e-05  Tolerance :   1.0000e-07
  Last RMS-Density change    ...    1.6722e-06  Tolerance :   5.0000e-09
  Last DIIS Error            ...    1.5602e-03  Tolerance :   5.0000e-07
  Last Orbital Gradient      ...    3.2615e-06  Tolerance :   1.0000e-05
  Last Orbital Rotation      ...    3.3031e-06  Tolerance :   1.0000e-05


----------------
ORBITAL ENERGIES
----------------

  NO   OCC          E(Eh)            E(eV) 
   0   2.0000     -61.441478     -1671.9076 
   1   2.0000      -4.113710      -111.9397 
   2   2.0000      -2.584796       -70.3359 
   3   2.0000      -2.573979       -70.0415 
   4   2.0000      -2.572696       -70.0066 
   5   2.0000      -0.245514        -6.6808 
   6   2.0000      -0.079915        -2.1746 
   7   2.0000      -0.023535        -0.6404 
   8   0.0000      -0.009095        -0.2475 
   9   0.0000       0.115771         3.1503 
  10   0.0000       0.128100         3.4858 
  11   0.0000       0.158935         4.3248 
  12   0.0000       0.188766         5.1366 
  13   0.0000       0.190039         5.1712 
  14   0.0000       0.210857         5.7377 
  15   0.0000       0.222769         6.0618 
  16   0.0000       0.230506         6.2724 
  17   0.0000       0.234200         6.3729 
  18   0.0000       0.303328         8.2540 
*Only the first 10 virtual orbitals were printed.

                    ********************************
                    * MULLIKEN POPULATION ANALYSIS *
                    ********************************

-----------------------
MULLIKEN ATOMIC CHARGES
-----------------------
   0 Si:   -0.213788
   1 H :    0.106902
   2 H :    0.106885
Sum of atomic charges:    0.0000000

--------------------------------
MULLIKEN REDUCED ORBITAL CHARGES
--------------------------------
  0 Sis       :     5.824283  s :     5.824283
      pz      :     3.137878  p :     8.286496
      px      :     1.999903
      py      :     3.148715
      dz2     :     0.063505  d :     0.103859
      dxz     :     0.000003
      dyz     :     0.006037
      dx2y2   :     0.034312
      dxy     :     0.000003
      f0      :    -0.000604  f :    -0.000868
      f+1     :     0.000000
      f-1     :     0.000995
      f+2     :     0.000057
      f-2     :     0.000000
      f+3     :     0.000001
      f-3     :    -0.001316
      g0      :    -0.000003  g :     0.000018
      g+1     :    -0.000000
      g-1     :    -0.000016
      g+2     :     0.000060
      g-2     :    -0.000000
      g+3     :     0.000000
      g-3     :     0.000002
      g+4     :    -0.000026
      g-4     :    -0.000000

  1 H s       :     0.890529  s :     0.890529
      pz      :    -0.002990  p :     0.002056
      px      :     0.000020
      py      :     0.005026
      dz2     :    -0.000022  d :     0.000476
      dxz     :     0.000021
      dyz     :     0.000456
      dx2y2   :     0.000021
      dxy     :     0.000000
      f0      :     0.000021  f :     0.000037
      f+1     :     0.000004
      f-1     :     0.000010
      f+2     :     0.000001
      f-2     :    -0.000000
      f+3     :    -0.000000
      f-3     :    -0.000000

  2 H s       :     0.890540  s :     0.890540
      pz      :     0.005547  p :     0.002061
      px      :     0.000020
      py      :    -0.003507
      dz2     :    -0.000041  d :     0.000477
      dxz     :     0.000000
      dyz     :     0.000488
      dx2y2   :     0.000009
      dxy     :     0.000021
      f0      :     0.000004  f :     0.000037
      f+1     :     0.000000
      f-1     :     0.000006
      f+2     :     0.000007
      f-2     :     0.000000
      f+3     :     0.000004
      f-3     :     0.000016



                     *******************************
                     * LOEWDIN POPULATION ANALYSIS *
                     *******************************

----------------------
LOEWDIN ATOMIC CHARGES
----------------------
   0 Si:    0.226707
   1 H :   -0.113357
   2 H :   -0.113350

-------------------------------
LOEWDIN REDUCED ORBITAL CHARGES
-------------------------------
  0 Sis       :     5.214594  s :     5.214594
      pz      :     3.193068  p :     8.400402
      px      :     1.998733
      py      :     3.208601
      dz2     :     0.083208  d :     0.138781
      dxz     :     0.000001
      dyz     :     0.001001
      dx2y2   :     0.054570
      dxy     :     0.000001
      f0      :     0.007563  f :     0.017269
      f+1     :     0.000002
      f-1     :     0.006094
      f+2     :     0.001112
      f-2     :     0.000000
      f+3     :     0.000003
      f-3     :     0.002496
      g0      :     0.001000  g :     0.002246
      g+1     :     0.000000
      g-1     :     0.000261
      g+2     :     0.000346
      g-2     :     0.000000
      g+3     :     0.000000
      g-3     :     0.000155
      g+4     :     0.000483
      g-4     :     0.000000

  1 H s       :     0.977218  s :     0.977218
      pz      :     0.073374  p :     0.119223
      px      :     0.000267
      py      :     0.045583
      dz2     :     0.009654  d :     0.015962
      dxz     :     0.000321
      dyz     :     0.005838
      dx2y2   :     0.000150
      dxy     :     0.000000
      f0      :     0.000680  f :     0.000954
      f+1     :     0.000043
      f-1     :     0.000220
      f+2     :     0.000011
      f-2     :     0.000000
      f+3     :     0.000000
      f-3     :     0.000000

  2 H s       :     0.977215  s :     0.977215
      pz      :     0.044860  p :     0.119220
      px      :     0.000267
      py      :     0.074094
      dz2     :     0.002871  d :     0.015961
      dxz     :     0.000000
      dyz     :     0.005718
      dx2y2   :     0.007051
      dxy     :     0.000320
      f0      :     0.000079  f :     0.000954
      f+1     :     0.000003
      f-1     :     0.000275
      f+2     :     0.000137
      f-2     :     0.000000
      f+3     :     0.000040
      f-3     :     0.000420



                      *****************************
                      * MAYER POPULATION ANALYSIS *
                      *****************************

  NA   - Mulliken gross atomic population
  ZA   - Total nuclear charge
  QA   - Mulliken gross atomic charge
  VA   - Mayer's total valence
  BVA  - Mayer's bonded valence
  FA   - Mayer's free valence

  ATOM       NA         ZA         QA         VA         BVA        FA
  0 Si    14.2138    14.0000    -0.2138     1.9406     1.9406    -0.0000
  1 H      0.8931     1.0000     0.1069     0.9652     0.9652     0.0000
  2 H      0.8931     1.0000     0.1069     0.9652     0.9652     0.0000

  Mayer bond orders larger than 0.100000
B(  0-Si,  1-H ) :   0.9703 B(  0-Si,  2-H ) :   0.9703 

-------
TIMINGS
-------

Total SCF time: 0 days 0 hours 0 min 3 sec 

Total time                  ....       3.159 sec
Sum of individual times     ....       3.085 sec  ( 97.6%)

SCF preparation             ....       0.083 sec  (  2.6%)
Fock matrix formation       ....       2.482 sec  ( 78.6%)
  Startup                   ....       0.012 sec  (  0.5% of F)
  Coulomb formation         ....       1.771 sec  ( 71.3% of F)
  XC integration            ....       0.427 sec  ( 17.2% of F)
    XC Preparation          ....       0.000 sec  (  0.0% of XC)
    Basis function eval.    ....       0.032 sec  (  7.6% of XC)
    Density eval.           ....       0.023 sec  (  5.5% of XC)
    XC-Functional eval.     ....       0.010 sec  (  2.3% of XC)
    XC-Potential eval.      ....       0.052 sec  ( 12.3% of XC)
Diagonalization             ....       0.000 sec  (  0.0%)
Density matrix formation    ....       0.085 sec  (  2.7%)
Total Energy calculation    ....       0.026 sec  (  0.8%)
Population analysis         ....       0.017 sec  (  0.5%)
Orbital Transformation      ....       0.128 sec  (  4.1%)
Orbital Orthonormalization  ....       0.000 sec  (  0.0%)
DIIS solution               ....       0.184 sec  (  5.8%)
SOSCF solution              ....       0.080 sec  (  2.5%)
Finished LeanSCF after   3.2 sec

Maximum memory used throughout the entire LEANSCF-calculation: 32.4 MB


           ************************************************************
           *        Program running with 8 parallel MPI-processes     *
           *              working on a common directory               *
           ************************************************************

------------------------------------------------------------------------------
                         ORCA PROPERTY INTEGRAL CALCULATIONS
------------------------------------------------------------------------------

GBWName                                   ... /cluster/projects/nn14654k/ylvaos/basis_set_n_funcs/functionals/gga_c_pbe/SiH2/inp/SiH2_gga_c_pbe_def2qzvp.gbw
Number of atoms                           ...      3
Number of basis functions                 ...    130
Max core memory                           ...   4096 MB

Dipole integrals                          ... YES
Quadrupole integrals                      ... YES
Linear momentum integrals                 ...  NO
Angular momentum integrals                ...  NO
Higher moments length integrals           ...  NO
Higher moments velocity integrals         ...  NO
Kinetic energy integrals                  ...  NO
GIAO right hand sides                     ...  NO
GIAO dipole derivative integrals          ...  NO
SOC integrals                             ...  NO
EPR diamagnetic integrals (GIAO)          ...  NO
EPR gauge integrals                       ...  NO
Field gradient integrals                  ...  NO (   0 nuclei)
Spin-dipole/Fermi contact integrals       ...  NO (   0 nuclei)
Contact density integrals                 ...  NO (   0 nuclei)
Nucleus-orbit integrals                   ...  NO (   0 nuclei)
Geometric perturbations                   ...  NO (   3 nuclei)

Choice of electric origin   ... Center of mass
Position of electric origin ... (  0.0000,  0.0958, -0.0925) 
Choice of magnetic origin   ... GIAO
Position of magnetic origin ... (  0.0000,  0.0000,  0.0000) 

Calculating integrals                     ... Electric Dipole (Length)     done (  0.0 sec)
Calculating integrals                     ... Electric Quadrupole (Length) done (  0.0 sec)

Property integrals calculated in   0.0 sec

Maximum memory used throughout the entire PROPINT-calculation: 10.6 MB
------------------------------------------------------------------------------
                           ORCA ORBITAL LOCALIZATION
------------------------------------------------------------------------------

Input orbitals are from                  ... /cluster/projects/nn14654k/ylvaos/basis_set_n_funcs/functionals/gga_c_pbe/SiH2/inp/SiH2_gga_c_pbe_def2qzvp.gbw
Output orbitals are to                   ... /cluster/projects/nn14654k/ylvaos/basis_set_n_funcs/functionals/gga_c_pbe/SiH2/inp/SiH2_gga_c_pbe_def2qzvp.loc
Max. number of iterations                ... 128
Localizations seeded randomly            ... on
Convergence tolerance                    ... 1.000e-06
Threshold for strong local MOs           ... 9.500e-01
Threshold for bond MOs                   ... 8.500e-01
Operator                                 ... 0
Orbital range for localization           ... 1 to 7
Localization criterion                   ... NEW-BOYS
Doing the dipole integrals               ... o.k.
Initial value of the localization sum :     5.127326
ITERATION   0 : L=   10.5907236389 DL=  5.46e+00 (AVERGE_DL)=    0.5100605555 
ITERATION   1 : L=   10.8226982097 DL=  2.32e-01 (AVERGE_DL)=    0.1051018940 
ITERATION   2 : L=   10.8248038975 DL=  2.11e-03 (AVERGE_DL)=    0.0100135332 
ITERATION   3 : L=   10.8248311447 DL=  2.72e-05 (AVERGE_DL)=    0.0011390727 
ITERATION   4 : L=   10.8248338574 DL=  2.71e-06 (AVERGE_DL)=    0.0003594127 
ITERATION   5 : L=   10.8248356861 DL=  1.83e-06 (AVERGE_DL)=    0.0002950962 
ITERATION   6 : L=   10.8248374496 DL=  1.76e-06 (AVERGE_DL)=    0.0002897841 
ITERATION   7 : L=   10.8248392708 DL=  1.82e-06 (AVERGE_DL)=    0.0002944853 
ITERATION   8 : L=   10.8248411609 DL=  1.89e-06 (AVERGE_DL)=    0.0003000113 
ITERATION   9 : L=   10.8248431367 DL=  1.98e-06 (AVERGE_DL)=    0.0003067356 
ITERATION  10 : L=   10.8248452163 DL=  2.08e-06 (AVERGE_DL)=    0.0003146855 
ITERATION  11 : L=   10.8248474199 DL=  2.20e-06 (AVERGE_DL)=    0.0003239324 
ITERATION  12 : L=   10.8248497704 DL=  2.35e-06 (AVERGE_DL)=    0.0003345584 
ITERATION  13 : L=   10.8248522941 DL=  2.52e-06 (AVERGE_DL)=    0.0003466654 
ITERATION  14 : L=   10.8248550203 DL=  2.73e-06 (AVERGE_DL)=    0.0003603043 
ITERATION  15 : L=   10.8248579827 DL=  2.96e-06 (AVERGE_DL)=    0.0003755895 
ITERATION  16 : L=   10.8248612191 DL=  3.24e-06 (AVERGE_DL)=    0.0003925749 
ITERATION  17 : L=   10.8248647728 DL=  3.55e-06 (AVERGE_DL)=    0.0004113678 
ITERATION  18 : L=   10.8248686924 DL=  3.92e-06 (AVERGE_DL)=    0.0004320268 
ITERATION  19 : L=   10.8248730336 DL=  4.34e-06 (AVERGE_DL)=    0.0004546671 
ITERATION  20 : L=   10.8248778590 DL=  4.83e-06 (AVERGE_DL)=    0.0004793534 
ITERATION  21 : L=   10.8248832398 DL=  5.38e-06 (AVERGE_DL)=    0.0005061909 
ITERATION  22 : L=   10.8248892564 DL=  6.02e-06 (AVERGE_DL)=    0.0005352604 
ITERATION  23 : L=   10.8248959998 DL=  6.74e-06 (AVERGE_DL)=    0.0005666719 
ITERATION  24 : L=   10.8249035726 DL=  7.57e-06 (AVERGE_DL)=    0.0006005063 
ITERATION  25 : L=   10.8249120903 DL=  8.52e-06 (AVERGE_DL)=    0.0006368706 
ITERATION  26 : L=   10.8249216832 DL=  9.59e-06 (AVERGE_DL)=    0.0006758744 
ITERATION  27 : L=   10.8249324967 DL=  1.08e-05 (AVERGE_DL)=    0.0007175848 
ITERATION  28 : L=   10.8249446943 DL=  1.22e-05 (AVERGE_DL)=    0.0007621272 
ITERATION  29 : L=   10.8249584578 DL=  1.38e-05 (AVERGE_DL)=    0.0008095719 
ITERATION  30 : L=   10.8249739895 DL=  1.55e-05 (AVERGE_DL)=    0.0008600021 
ITERATION  31 : L=   10.8249915131 DL=  1.75e-05 (AVERGE_DL)=    0.0009134875 
ITERATION  32 : L=   10.8250112746 DL=  1.98e-05 (AVERGE_DL)=    0.0009700624 
ITERATION  33 : L=   10.8250335434 DL=  2.23e-05 (AVERGE_DL)=    0.0010297674 
ITERATION  34 : L=   10.8250586123 DL=  2.51e-05 (AVERGE_DL)=    0.0010925926 
ITERATION  35 : L=   10.8250867979 DL=  2.82e-05 (AVERGE_DL)=    0.0011585201 
ITERATION  36 : L=   10.8251184364 DL=  3.16e-05 (AVERGE_DL)=    0.0012274350 
ITERATION  37 : L=   10.8251538837 DL=  3.54e-05 (AVERGE_DL)=    0.0012992179 
ITERATION  38 : L=   10.8251935105 DL=  3.96e-05 (AVERGE_DL)=    0.0013736769 
ITERATION  39 : L=   10.8252376959 DL=  4.42e-05 (AVERGE_DL)=    0.0014505395 
ITERATION  40 : L=   10.8252868199 DL=  4.91e-05 (AVERGE_DL)=    0.0015294577 
ITERATION  41 : L=   10.8253412536 DL=  5.44e-05 (AVERGE_DL)=    0.0016099935 
ITERATION  42 : L=   10.8254013463 DL=  6.01e-05 (AVERGE_DL)=    0.0016916137 
ITERATION  43 : L=   10.8254674107 DL=  6.61e-05 (AVERGE_DL)=    0.0017736759 
ITERATION  44 : L=   10.8255397060 DL=  7.23e-05 (AVERGE_DL)=    0.0018554336 
ITERATION  45 : L=   10.8256184190 DL=  7.87e-05 (AVERGE_DL)=    0.0019360360 
ITERATION  46 : L=   10.8257036439 DL=  8.52e-05 (AVERGE_DL)=    0.0020145300 
ITERATION  47 : L=   10.8257953634 DL=  9.17e-05 (AVERGE_DL)=    0.0020898794 
ITERATION  48 : L=   10.8258934296 DL=  9.81e-05 (AVERGE_DL)=    0.0021609757 
ITERATION  49 : L=   10.8259975494 DL=  1.04e-04 (AVERGE_DL)=    0.0022266758 
ITERATION  50 : L=   10.8261072743 DL=  1.10e-04 (AVERGE_DL)=    0.0022858256 
ITERATION  51 : L=   10.8262219975 DL=  1.15e-04 (AVERGE_DL)=    0.0023373079 
ITERATION  52 : L=   10.8263409578 DL=  1.19e-04 (AVERGE_DL)=    0.0023800791 
ITERATION  53 : L=   10.8264632544 DL=  1.22e-04 (AVERGE_DL)=    0.0024132229 
ITERATION  54 : L=   10.8265878691 DL=  1.25e-04 (AVERGE_DL)=    0.0024359873 
ITERATION  55 : L=   10.8267136980 DL=  1.26e-04 (AVERGE_DL)=    0.0024478263 
ITERATION  56 : L=   10.8268395890 DL=  1.26e-04 (AVERGE_DL)=    0.0024484304 
ITERATION  57 : L=   10.8269643835 DL=  1.25e-04 (AVERGE_DL)=    0.0024377436 
ITERATION  58 : L=   10.8270869581 DL=  1.23e-04 (AVERGE_DL)=    0.0024159652 
ITERATION  59 : L=   10.8272062657 DL=  1.19e-04 (AVERGE_DL)=    0.0023835499 
ITERATION  60 : L=   10.8273213690 DL=  1.15e-04 (AVERGE_DL)=    0.0023411774 
ITERATION  61 : L=   10.8274314673 DL=  1.10e-04 (AVERGE_DL)=    0.0022897104 
ITERATION  62 : L=   10.8275359139 DL=  1.04e-04 (AVERGE_DL)=    0.0022301683 
ITERATION  63 : L=   10.8276342257 DL=  9.83e-05 (AVERGE_DL)=    0.0021636806 
ITERATION  64 : L=   10.8277260810 DL=  9.19e-05 (AVERGE_DL)=    0.0020914256 
ITERATION  65 : L=   10.8278113113 DL=  8.52e-05 (AVERGE_DL)=    0.0020145939 
ITERATION  66 : L=   10.8278898877 DL=  7.86e-05 (AVERGE_DL)=    0.0019343549 
ITERATION  67 : L=   10.8279619011 DL=  7.20e-05 (AVERGE_DL)=    0.0018518132 
ITERATION  68 : L=   10.8280275427 DL=  6.56e-05 (AVERGE_DL)=    0.0017679899 
ITERATION  69 : L=   10.8280870820 DL=  5.95e-05 (AVERGE_DL)=    0.0016838064 
ITERATION  70 : L=   10.8281408468 DL=  5.38e-05 (AVERGE_DL)=    0.0016000720 
ITERATION  71 : L=   10.8281892044 DL=  4.84e-05 (AVERGE_DL)=    0.0015174791 
ITERATION  72 : L=   10.8282325452 DL=  4.33e-05 (AVERGE_DL)=    0.0014366099 
ITERATION  73 : L=   10.8282712690 DL=  3.87e-05 (AVERGE_DL)=    0.0013579367 
ITERATION  74 : L=   10.8283057740 DL=  3.45e-05 (AVERGE_DL)=    0.0012818321 
ITERATION  75 : L=   10.8283364479 DL=  3.07e-05 (AVERGE_DL)=    0.0012085783 
ITERATION  76 : L=   10.8283636619 DL=  2.72e-05 (AVERGE_DL)=    0.0011383773 
ITERATION  77 : L=   10.8283877660 DL=  2.41e-05 (AVERGE_DL)=    0.0010713630 
ITERATION  78 : L=   10.8284090867 DL=  2.13e-05 (AVERGE_DL)=    0.0010076067 
ITERATION  79 : L=   10.8284279251 DL=  1.88e-05 (AVERGE_DL)=    0.0009471342 
ITERATION  80 : L=   10.8284445567 DL=  1.66e-05 (AVERGE_DL)=    0.0008899343 
ITERATION  81 : L=   10.8284592316 DL=  1.47e-05 (AVERGE_DL)=    0.0008359449 
ITERATION  82 : L=   10.8284721761 DL=  1.29e-05 (AVERGE_DL)=    0.0007851158 
ITERATION  83 : L=   10.8284835919 DL=  1.14e-05 (AVERGE_DL)=    0.0007372965 
ITERATION  84 : L=   10.8284936614 DL=  1.01e-05 (AVERGE_DL)=    0.0006924591 
ITERATION  85 : L=   10.8285025448 DL=  8.88e-06 (AVERGE_DL)=    0.0006504010 
ITERATION  86 : L=   10.8285103861 DL=  7.84e-06 (AVERGE_DL)=    0.0006110595 
ITERATION  87 : L=   10.8285173116 DL=  6.93e-06 (AVERGE_DL)=    0.0005742691 
ITERATION  88 : L=   10.8285234326 DL=  6.12e-06 (AVERGE_DL)=    0.0005398884 
ITERATION  89 : L=   10.8285288478 DL=  5.42e-06 (AVERGE_DL)=    0.0005078030 
ITERATION  90 : L=   10.8285336434 DL=  4.80e-06 (AVERGE_DL)=    0.0004778725 
ITERATION  91 : L=   10.8285378954 DL=  4.25e-06 (AVERGE_DL)=    0.0004499757 
ITERATION  92 : L=   10.8285416701 DL=  3.77e-06 (AVERGE_DL)=    0.0004239650 
ITERATION  93 : L=   10.8285450257 DL=  3.36e-06 (AVERGE_DL)=    0.0003997411 
ITERATION  94 : L=   10.8285480132 DL=  2.99e-06 (AVERGE_DL)=    0.0003771732 
ITERATION  95 : L=   10.8285506769 DL=  2.66e-06 (AVERGE_DL)=    0.0003561485 
ITERATION  96 : L=   10.8285530557 DL=  2.38e-06 (AVERGE_DL)=    0.0003365650 
ITERATION  97 : L=   10.8285551836 DL=  2.13e-06 (AVERGE_DL)=    0.0003183253 
ITERATION  98 : L=   10.8285570903 DL=  1.91e-06 (AVERGE_DL)=    0.0003013186 
ITERATION  99 : L=   10.8285588017 DL=  1.71e-06 (AVERGE_DL)=    0.0002854770 
ITERATION 100 : L=   10.8285603403 DL=  1.54e-06 (AVERGE_DL)=    0.0002706810 
ITERATION 101 : L=   10.8285617262 DL=  1.39e-06 (AVERGE_DL)=    0.0002568888 
ITERATION 102 : L=   10.8285629764 DL=  1.25e-06 (AVERGE_DL)=    0.0002440011 
ITERATION 103 : L=   10.8285641064 DL=  1.13e-06 (AVERGE_DL)=    0.0002319634 
ITERATION 104 : L=   10.8285651291 DL=  1.02e-06 (AVERGE_DL)=    0.0002206847 
ITERATION 105 : L=   10.8285660563 DL=  9.27e-07 (AVERGE_DL)=    0.0002101257 
LOCALIZATION SUM CONVERGED


--------------------------------------------------------------------------------
                    LOCALIZED MOLECULAR ORBITAL COMPOSITIONS
--------------------------------------------------------------------------------

The Mulliken populations for each LMO on each atom are computed
The LMO`s will be ordered according to atom index and type
  (A) Strongly localized MO`s have populations of >=0.950 on one atom
  (B) Two center bond orbitals have populations of >=0.850 on two atoms
  (C) Other MO`s are considered to be `delocalized`

FOUND  -   5 strongly local MO`s
       -   2 two center bond MO`s
       -   0 significantly delocalized MO`s

Rather strongly localized orbitals:
MO   5:   0Si -   1.001391
MO   4:   0Si -   1.021933
MO   3:   0Si -   0.998755
MO   2:   0Si -   1.001511
MO   1:   0Si -   1.001423
Bond-like localized orbitals:
MO   7:   2H  -   0.471453  and   0Si -   0.540932
MO   6:   1H  -   0.471456  and   0Si -   0.540925
Localized MO's were stored in: /cluster/projects/nn14654k/ylvaos/basis_set_n_funcs/functionals/gga_c_pbe/SiH2/inp/SiH2_gga_c_pbe_def2qzvp.loc

-------------------------   --------------------
FINAL SINGLE POINT ENERGY      -270.202518870635
-------------------------   --------------------



           ************************************************************
           *        Program running with 8 parallel MPI-processes     *
           *              working on a common directory               *
           ************************************************************

------------------------------------------------------------------------------
                              ORCA PROPERTY CALCULATIONS
------------------------------------------------------------------------------

GBWName                                 ... /cluster/projects/nn14654k/ylvaos/basis_set_n_funcs/functionals/gga_c_pbe/SiH2/inp/SiH2_gga_c_pbe_def2qzvp.gbw
Number of atoms                         ...      3
Number of basis functions               ...    130
Max core memory                         ...   4096 MB

Electric properties:
Dipole moment                           ... YES
Quadrupole moment                       ... YES
Static polarizability (Dipole/Dipole)   ...  NO
Static polarizability (Dipole/Quad.)    ...  NO
Static polarizability (Quad./Quad.)     ...  NO
Static polarizability (Velocity)        ...  NO
Static hyperpolarizability              ...  NO

Atomic electric properties:
Dipole moment                           ...  NO
Quadrupole moment                       ...  NO
Static polarizability                   ...  NO

Choice of electric origin               ... Center of mass
Position of electric origin             ...     0.000000     0.095755    -0.092471

General magnetic properties:
Magnetizability                         ...  NO

EPR properties:
g-Tensor (aka g-matrix)                 ...  NO
Zero-Field splitting spin-orbit         ...  NO
Zero-field splitting spin-spin          ...  NO
Hyperfine couplings                     ...  NO (   0 nuclei)
Quadrupole couplings                    ...  NO (   0 nuclei)
Contact density                         ...  NO (   0 nuclei)

NMR properties:
Chemical shifts                         ...  NO (   0 nuclei)
Spin-rotation constants                 ...  NO (   0 nuclei)
Spin-spin couplings                     ...  NO (   0 nuclei,    0 pairs)

Choice of magnetic origin               ... GIAO
Position of magnetic origin             ...     0.000000     0.000000     0.000000

Properties with geometric perturbations:
SCF Hessian                             ...  NO
IR spectrum                             ...  NO
VCD spectrum                            ...  NO
X-ray spectroscopy properties:
SCF XES/XAS/RIXS spectra                ...  NO

SCF SOC stabilization energy            ...  NO
Diagonal Born-Oppenheimer correction    ...  NO

-------------
DIPOLE MOMENT
-------------

Method             : SCF
Type of density    : Electron Density
Multiplicity       :   1
Irrep              :   0
Energy             :  -270.2025188706347762 Eh
Basis              : AO
                                X                 Y                 Z
Electronic contribution:     -0.000000000      -0.997868308       0.963625507
Nuclear contribution   :      0.000000000       1.327457389      -1.281928022
                        -----------------------------------------
Total Dipole Moment    :     -0.000000000       0.329589081      -0.318302515
                        -----------------------------------------
Magnitude (a.u.)       :      0.458198050
Magnitude (Debye)      :      1.164646888



--------------------
Rotational spectrum 
--------------------
 
Rotational constants in cm-1:             8.101050             7.049111             3.769280 
Rotational constants in MHz :        242863.361200        211327.036298        113000.174884 

Dipole components along the rotational axes: 
x,y,z [a.u.] :    -0.000036    -0.458198    -0.000000 
x,y,z [Debye]:    -0.000091    -1.164647    -0.000000 

 

Dipole moment calculation done in   0.0 sec 

-----------------
QUADRUPOLE MOMENT
-----------------

Method             : SCF
Type of density    : Electron Density
Multiplicity       :   1
Irrep              :   0
Energy             :  -270.2025188706347762 Eh
Basis              : AO

                XX              YY              ZZ              XY              XZ              YZ
  NUC        0.000000000     7.776008003     7.822723490     0.000000000     0.000000000     0.672490579
  EL       -13.754858315   -26.293522341   -26.245737516     0.000000001    -0.000000001     0.681708807
  TOT      -13.754858315   -18.517514338   -18.423014027     0.000000001    -0.000000001     1.354199386 (a.u.)
           -18.500754850   -24.906690084   -24.779583933     0.000000001    -0.000000001     1.821444488 (Buckingham)

diagonalized tensor:
           -19.825287634   -17.115240731   -13.754858315 (a.u.)
           -26.665689893   -23.020584125   -18.500754850 (Buckingham)
           -11.810040811    -0.874723507    12.684764318 (traceless form in Buckingham)

             0.000000000     0.000000000     1.000000000
            -0.719329674     0.694668856     0.000000000
             0.694668856     0.719329674    -0.000000000
        
Isotropic quadrupole :   -16.898462227

Quadrupole moment calculation done in   0.0 sec (  0.0 sec for integrals)

Maximum memory used throughout the entire PROP-calculation: 5.4 MB

--------------------------------
SUGGESTED CITATIONS FOR THIS RUN
--------------------------------

Below you find a list of papers that are relevant to this ORCA run
We neither can nor want to force you to cite these papers, but we appreciate if you do
You receive ORCA, which is the product of decades of hard work by many enthusiastic individuals, for free
The only thing we kindly ask in return is that you cite our papers,
We deeply appreciate it, if you show your appreciation for ORCA by not just citing the generic ORCA reference.

Please note that relegating all ORCA citations to the supporting information does *not* help us.
SI sections are not indexed - citations you put there will not count into any citation statistics
But we need these citations in order to attract the funding resources that allow us to do what we are doing

Therefore, if you are a happy ORCA user, please consider citing a few of the papers listed below in the main body of your paper

In addition to the list printed below, the program has created the file /cluster/projects/nn14654k/ylvaos/basis_set_n_funcs/functionals/gga_c_pbe/SiH2/inp/SiH2_gga_c_pbe_def2qzvp.bibtex that contains the list in bibtex format
You can import this file easily into all common literature databanks and citation aid programs

It goes without saying that in many instances, there are alternative algorithms to achieve similar
results as the ones you have gotten from ORCA. It is, of course, also the case that in some instances
ORCA just re-implements algorithms worked out by others. We are fully aware of that and we are also
fully appreciative of our colleagues work. Hence this citation list should not be read as indicating
that the listed papers, which are focused on our own work, are the only ones worth citing. It simply
meant to make it easier for users to cite ORCA specific papers. It is not a substitute for doing your
own literature research and citing the relevant literature in a scientifically appropriate manner.

List of essential papers. We consider these as the minimum necessary citations

  1. Neese, F.
     Software update: the ORCA program system, version 6.0
     WIRES Comput. Molec. Sci. 2025 15(1), e70019
     doi.org/10.1002/wcms.70019

List of papers to cite with high priority. The work reported in these papers was absolutely
necessary for this run to complete.
Our perspective: the developers of density functionals and basis sets usually get cited in chemistry papers
Good! But without the algorithms to do something with them, the functionals or basis sets would not do anything.
Hence, in our opinion, the algorithm design and method developments papers are equally worthy of getting cited

  1. Lehtola, S.; Steigemann, C.; Oliveira, M.; Marques, M.
     Recent developments in Libxc - A comprehensive library of functionals for density functional theory
     Software X 2018 7 , 
     doi.org/10.1016/j.softx.2017.11.002
  2. Neese, F.
     The SHARK Integral Generation and Digestion System
     J. Comp. Chem. 2022 44(3), 381
     doi.org/10.1002/jcc.26942

List of suggested additional citations. These are papers that are important in the 'surrounding' of 
of this run, or papers that preceded the highly important papers. If you like your results we are grateful for a citation.

  1. Neese, F.
     The ORCA program system
     WIRES Comput. Molec. Sci. 2012 2(1), 73-78
     doi.org/10.1002/wcms.81
  2. Neese, F.
     Software update: the ORCA program system, version 4.0
     WIRES Comput. Molec. Sci. 2018 8(1), 1-6
     doi.org/10.1002/wcms.1327
  3. Neese, F.; Wennmohs, F.; Becker, U.; Riplinger, C.
     The ORCA quantum chemistry program package
     J. Chem. Phys. 2020 152(22), 224108
     doi.org/10.1063/5.0004608
  4. Neese, F.
     Software update: The ORCA program system—Version 5.0
     WIRES Comput. Molec. Sci. 2022 12(1), e1606
     doi.org/10.1002/wcms.1606

List of optional additional citations

  1. Neese, F.
     Approximate second-order SCF convergence for spin unrestricted wavefunctions
     Chem. Phys. Lett. 2000 325(1-3), 93-98
     doi.org/10.1016/s0009-2614(00)00662-x

Timings for individual modules:

Sum of individual times          ...        4.710 sec (=   0.078 min)
Startup calculation              ...        0.398 sec (=   0.007 min)   8.4 %
SCF iterations                   ...        3.781 sec (=   0.063 min)  80.3 %
Property integrals               ...        0.259 sec (=   0.004 min)   5.5 %
Property calculations            ...        0.268 sec (=   0.004 min)   5.7 %
Orbital localization             ...        0.004 sec (=   0.000 min)   0.1 %
                             ****ORCA TERMINATED NORMALLY****
TOTAL RUN TIME: 0 days 0 hours 0 minutes 5 seconds 488 msec
