
                                 *****************
                                 * O   R   C   A *
                                 *****************

                                            #,                                       
                                            ###                                      
                                            ####                                     
                                            #####                                    
                                            ######                                   
                                           ########,                                 
                                     ,,################,,,,,                         
                               ,,#################################,,                 
                          ,,##########################################,,             
                       ,#########################################, ''#####,          
                    ,#############################################,,   '####,        
                  ,##################################################,,,,####,       
                ,###########''''           ''''###############################       
              ,#####''   ,,,,##########,,,,          '''####'''          '####       
            ,##' ,,,,###########################,,,                        '##       
           ' ,,###''''                  '''############,,,                           
         ,,##''                                '''############,,,,        ,,,,,,###''
      ,#''                                            '''#######################'''  
     '                                                          ''''####''''         
             ,#######,   #######,   ,#######,      ##                                
            ,#'     '#,  ##    ##  ,#'     '#,    #''#        ,####,    ,#,          
            ##       ##  ##   ,#'  ##            #'  '#       #'       ,# #          
            ##       ##  #######   ##           ,######,      #####,      #          
            '#,     ,#'  ##    ##  '#,     ,#' ,#      #,     #,   #      #          
             '#######'   ##     ##  '#######'  #'      '#     '####' #    #          



                #########################################################
                #                        -***-                          #
                #          Department of theory and spectroscopy        #
                #                                                       #
                #                      Frank Neese                      #
                #                                                       #
                #     Directorship, Architecture, Infrastructure        #
                #                    SHARK, DRIVERS                     #
                #        Core code/Algorithms in most modules           #
                #                                                       #
                #        Max Planck Institute fuer Kohlenforschung      #
                #                Kaiser Wilhelm Platz 1                 #
                #                 D-45470 Muelheim/Ruhr                 #
                #                      Germany                          #
                #                                                       #
                #                  All rights reserved                  #
                #                        -***-                          #
                #########################################################


                         Program Version 6.1.1  -  RELEASE   -
                                (GIT: $487d211c$)
                          ($2025-11-21 10:33:24 +0100$)


 With contributions from (in alphabetic order):
[Max-Planck-Institut fuer Kohlenforschung]                               
  Daniel Aravena         : Magnetic Suceptibility                        
  Michael Atanasov       : Ab Initio Ligand Field Theory (pilot matlab implementation)
  Alexander A. Auer      : GIAO ZORA, VPT2 properties, NMR spectrum      
  Ute Becker             : All parallelization in ORCA, NUMFREQ, NUMCALC 
  Giovanni Bistoni       : ED, misc. LED, open-shell LED, HFLD           
  Dmytro Bykov           : pre 5.0 version of the SCF Hessian            
  Marcos Casanova-Páez   : Triplet and SCS-CIS(D). UHF-(DLPNO)-IP/EA/STEOM-CCSD. UHF-CVS-IP/STEOM-CCSD   
  Vijay G. Chilkuri      : MRCI spin determinant printing, contributions to CSF-ICE 
  Pauline Colinet        : FMM embedding                                 
  Dipayan Datta          : RHF DLPNO-CCSD density                        
  Achintya Kumar Dutta   : EOM-CC, STEOM-CC                              
  Nicolas Foglia         : Exact transition moments, OPA infrastructure, MCD improvements    
  Dmitry Ganyushin       : Spin-Orbit,Spin-Spin,Magnetic field MRCI      
  Miquel Garcia-Rates    : C-PCM and meta-GGA Hessian, CCSD/C-PCM, Gaussian charge scheme 
  Tiago L. C. Gouveia    : GS-ROHF, GS-ROCIS                             
  Yang Guo               : DLPNO-NEVPT2, F12-NEVPT2, CIM, IAO-localization        
  Andreas Hansen         : Spin unrestricted coupled pair/coupled cluster methods 
  Ingolf Harden          : AUTO-CI MPn and infrastructure                
  Benjamin Helmich-Paris : MC-RPA, TRAH-(SCF,CASSCF), AVAS, COSX integrals, SCF dyn. polar., MC-PDFT, srDFT 
  Lee Huntington         : MR-EOM, pCC                                   
  Robert Izsak           : Overlap fitted RIJCOSX, COSX-SCS-MP3, EOM     
  Riya Kayal             : Wick's Theorem for AUTO-CI, AUTO-CI UHF-CCSDT 
  Emily Kempfer          : AUTO-CI RHF CISDT and CCSDT, approximate NEVPT4
  Christian Kollmar      : KDIIS, OOCD, Brueckner-CCSD(T), CCSD density, CASPT2, CASPT2-K, improved NEVPT2 
  Axel Koslowski         : Symmetry handling                             
  Simone Kossmann        : meta-GGA functionals, TD-DFT gradient, OOMP2, (MP2 Hessian; deprecated post 5.0) 
  Lucas Lang             : DCDCAS, Hyperfine gauge corrections, ICE-SOC+SSC
  Marvin Lechner         : AUTO-CI (C++ implementation), FIC-MRCC        
  Spencer Leger          : CASSCF response                               
  Dagmar Lenk            : GEPOL surface, SMD, ORCA-2-JSON               
  Dimitrios Liakos       : Extrapolation schemes; Compound Job, Property file
  Dimitrios Manganas     : Further ROCIS development; embedding schemes. LFT, Crystal Embedding 
  Dimitrios Pantazis     : SARC Basis sets                               
  Anastasios Papadopoulos: AUTO-CI, single reference methods and gradients 
  Taras Petrenko         : pre 6.0 DFT Hessian and TD-DFT gradient,  ECA, NRVS 
  Petra Pikulova         : Analytic Raman intensities                    
  Peter Pinski           : DLPNO-MP2, DLPNO-MP2 Gradient                 
  Shashank Vittal Rao    : ES-AILFT, MagRelax                            
  Christoph Reimann      : Effective Core Potentials                     
  Marius Retegan         : Local ZFS, SOC                                
  Christoph Riplinger    : Optimizer, TS searches, QM/MM, DLPNO-CCSD(T), (RO)-DLPNO pert. Triples 
  Michael Roemelt        : Original ROCIS implementation, recursive CI coupling coefficients
  Masaaki Saitow         : Open-shell DLPNO-CCSD energy and density      
  Barbara Sandhoefer     : DKH picture change effects                    
  Yorick L. A. Schmerwitz: GMF and freeze-and-release deltaSCF, NEB S-IDPP initial path                    
  Kantharuban Sivalingam : CASSCF convergence/infrastructure, NEVPT2, NEVPT3, NEVPT4(SD), FIC-MRCI and CEPA variants
  Bernardo de Souza      : ESD, SOC TD-DFT                               
  Georgi L. Stoychev     : AutoAux, RI-MP2 NMR, DLPNO-MP2 response, X2C  
  Van Anh Tran           : RI-MP2 g-tensors                              
  Willem Van den Heuvel  : Paramagnetic NMR                              
  Zikuan Wang            : NOTCH, Electric field optimization            
  Frank Wennmohs         : Technical directorship and infrastructure     
  Hang Xu                : AUTO-CI-Response properties                   
                                                                         
[FACCTs GmbH]                                                            
  Markus Bursch, Nicolas Foglia, Miquel Garcia-Rates, Ingolf Harden, Hagen Neugebauer, Anastasios Papadopoulos, 
  Christoph Riplinger, Bernardo de Souza, Georgi L. Stoychev                                                    
                                                                 
  APM, various basis sets, CI-OPT, improved COSX, DLPNO-Multilevel,           
  DOCKER, DRACO, updates on ESD, Fragmentator, GOAT, IRC, LR-CPCM, L-BFGS, MBIS, meta-GGA TD-DFT gradient, ML-optimized integration grids, 
  MM, NACMEs, nearIR, NEB, NEB-TS, NL-DFT gradient (VV10), 2- and 3-layer-ONIOM, interface openCOSMO-RS, QMMM,   
  Crystal-QMMM, RESP, rigid body optimization, SF, symmetry and pop. for TD-DFT, various functionals, SOLVATOR                                   
                                                                         
[Other institutions]                                                     
  V. Asgeirsson          : NEB                                           
  Christoph Bannwarth    : sTDA-DFT, sTD-DFT, PBEh-3c, B97-3c, D3        
  Giovanni Bistoni       : ETS/NOCV, ADLD/ADEX, COVALED                  
  Martin Brehm           : Molecular dynamics                            
  Ronald Cardenas        : ETS/NOCV                                      
  Martina Colucci        : COVALED                                       
  Sebastian Ehlert       : rSCAN, r2SCAN, r2SCAN-3c, D4, dhf basis sets  
  Marvin Friede          : D4 for Fr, Ra, Ac-Lr                          
  Lars Goerigk           : TD-DFT with DH, B97 family of functionals     
  Stefan Grimme          : VdW corrections, initial TS optimization, DFT functionals, gCP, sTDA/sTD-DF 
  Waldemar Hujo          : DFT-NL                                        
  H. Jonsson             : NEB                                           
  Holger Kruse           : gCP                                           
  Marcel Mueller         : wB97X-3c, vDZP basis set                      
  Hagen Neugebauer       : wr2SCAN, Native XTB                           
  Gianluca Regni         : ADLD/ADEX                                     
  Tobias Risthaus        : pre 6.0 range-separated hybrid DFT and stability analysis
  Lukas Wittmann         : regularized MP2, r2SCAN double-hybrids, wr2SCAN        
                                                                         
We gratefully acknowledge several colleagues who have allowed us to      
interface, adapt or use parts of their codes:                            
  Ed Valeev, F. Pavosevic, A. Kumar             : LibInt (2-el integral package), F12 methods 
  Garnet Chan, S. Sharma, J. Yang, R. Olivares  : DMRG                   
  Ulf Ekstrom                                   : XCFun DFT Library      
  Mihaly Kallay                                 : mrcc  (arbitrary order and MRCC methods)
  Frank Weinhold                                : gennbo (NPA and NBO analysis)           
  Simon Mueller                                 : openCOSMO-RS                            
  Christopher J. Cramer and Donald G. Truhlar   : smd solvation model                     
  S Lehtola, MJT Oliveira, MAL Marques          : LibXC Library                           
  Liviu Ungur et al                             : ANISO software                          


 Your calculation uses the libint2 library for the computation of 2-el integrals
 For citations please refer to: http://libint.valeyev.net

 Your ORCA version has been built with support for libXC version: 7.0.0
 For citations please refer to: https://libxc.gitlab.io

 This ORCA versions uses:
   CBLAS   interface :  Fast vector & matrix operations
   LAPACKE interface :  Fast linear algebra routines
   SCALAPACK package :  Parallel linear algebra routines
   Shared memory     :  Shared parallel matrices
   BLAS/LAPACK       :  OpenBLAS 0.3.29  USE64BITINT DYNAMIC_ARCH NO_AFFINITY Cooperlake SINGLE_THREADED
        Core in use  :  Cooperlake
   Copyright (c) 2011-2014, The OpenBLAS Project


  ***********************************
  * Starting time: Wed May 20 12:37:04 2026
  * Host name:     c1-37
  * Process ID:    622726
  * Working dir.:  /cluster/projects/nn14654k/ylvaos/basis_set_n_funcs/functionals/gga_c_N12/PCl/out
  ***********************************

Using LibXC functional ID  80 : Minnesota N12 correlation functional
[ 1]  R. Peverati and D. G. Truhlar.,  J. Chem. Theory Comput. 8, 2310 (2012)
Using LibXC functional ID  80 : Minnesota N12 correlation functional
[ 1]  R. Peverati and D. G. Truhlar.,  J. Chem. Theory Comput. 8, 2310 (2012)
Your calculation utilizes LibXC
by S. Lehtola, C. Steigemann, M. J. T. Oliveira & M. A. L. Marques
Please cite in your paper:
Lehtola, S.; Steigemann, C.; Oliveira, M.J.T.; Marques, M. A. L. Software X, 7, (2018), 1.
   

================================================================================

----- Orbital basis set information -----
Your calculation utilizes the basis: cc-pVDZ 
       H, B-Ne : Obtained from the ccRepo (grant-hill.group.shef.ac.uk/ccrepo) Feb. 2017
                 T. H. Dunning, Jr., J. Chem. Phys. 90, 1007 (1989)
            He : Obtained from the ccRepo (grant-hill.group.shef.ac.uk/ccrepo) Feb. 2017
                 D. E. Woon, T. H. Dunning, Jr., J. Chem. Phys. 100, 2975 (1994)
  Li-Be, Na-Mg : Obtained from the ccRepo (grant-hill.group.shef.ac.uk/ccrepo) Feb. 2017
                 B. P. Prascher, D. E. Woon, K. A. Peterson, T. H. Dunning, Jr., A. K. Wilson, Theor. Chem. Acc. 128, 69 (2011)
         Al-Ar : Obtained from the ccRepo (grant-hill.group.shef.ac.uk/ccrepo) Feb. 2017
                 D. E. Woon, T. H. Dunning, Jr., J. Chem. Phys. 98, 1358 (1993)
            Ca : Obtained from the Peterson Research Group Website (tyr0.chem.wsu.edu/~kipeters) Feb. 2017
                 J. Koput, K. A. Peterson, J. Phys. Chem. 106, 9595 (2002)
         Sc-Zn : Obtained from the ccRepo (grant-hill.group.shef.ac.uk/ccrepo) Feb. 2017
                 N. B. Balabanov, K. A. Peterson, J. Chem. Phys. 123, 064107 (2005)
                 N. B. Balabanov, K. A. Peterson, J. Chem. Phys. 125, 074110 (2006)
         Ga-Kr : Obtained from the ccRepo (grant-hill.group.shef.ac.uk/ccrepo) Feb. 2017
                 A. K. Wilson, D. E. Woon, K. A. Peterson, T. H. Dunning, Jr., J. Chem. Phys. 110, 7667 (1999)

================================================================================
                                        WARNINGS
                       Please study these warnings very carefully!
================================================================================


WARNING: your system is open-shell and RHF/RKS was chosen
  ===> : WILL SWITCH to UHF/UKS


================================================================================
                                       INPUT FILE
================================================================================
NAME = /cluster/projects/nn14654k/ylvaos/basis_set_n_funcs/functionals/gga_c_N12/PCl/inp/PCl_gga_c_N12_ccpvdz.inp
|  1> ! dft cc-pVDZ TightSCF
|  2> %pal nprocs 8 end
|  3> 
|  4> %loc
|  5>   LocMet NewBoys
|  6>   Occ true
|  7> end
|  8> 
|  9> %method
| 10>   exchange None
| 11>   correlation gga_c_N12
| 12> end
| 13> 
| 14> %elprop
| 15>   Dipole true
| 16>   Quadrupole true
| 17> end
| 18> 
| 19> * xyz 0 3
| 20> P    0.000000000000   0.000000000000  -1.008800000000
| 21> Cl    0.000000000000   0.000000000000   1.008800000000
| 22> *
| 23> 
| 24> 
| 25>                          ****END OF INPUT****
================================================================================

                       ****************************
                       * Single Point Calculation *
                       ****************************

---------------------------------
CARTESIAN COORDINATES (ANGSTROEM)
---------------------------------
  P      0.000000    0.000000   -1.008800
  Cl     0.000000    0.000000    1.008800

----------------------------
CARTESIAN COORDINATES (A.U.)
----------------------------
  NO LB      ZA    FRAG     MASS         X           Y           Z
   0 P    15.0000    0    30.974    0.000000    0.000000   -1.906356
   1 Cl   17.0000    0    35.453    0.000000    0.000000    1.906356

--------------------------------
INTERNAL COORDINATES (ANGSTROEM)
--------------------------------
 P      0   0   0     0.000000000000     0.00000000     0.00000000
 Cl     1   0   0     2.017600000000     0.00000000     0.00000000

---------------------------
INTERNAL COORDINATES (A.U.)
---------------------------
 P      0   0   0     0.000000000000     0.00000000     0.00000000
 Cl     1   0   0     3.812711447800     0.00000000     0.00000000

---------------------
BASIS SET INFORMATION
---------------------
There are 2 groups of distinct atoms

 Group   1 Type P   : 34s15p1d contracted to 4s3p1d pattern {1111111/771/1}
 Group   2 Type Cl  : 34s15p1d contracted to 4s3p1d pattern {1111111/771/1}

Atom   0P    basis set group =>   1
Atom   1Cl   basis set group =>   2


           ************************************************************
           *        Program running with 8 parallel MPI-processes     *
           *              working on a common directory               *
           ************************************************************
------------------------------------------------------------------------------
                             ORCA STARTUP CALCULATIONS
------------------------------------------------------------------------------
------------------------------------------------------------------------------
                   ___                                                        
                  /   \      - P O W E R E D   B Y -                         
                 /     \                                                     
                 |  |  |   _    _      __       _____    __    __             
                 |  |  |  | |  | |    /  \     |  _  \  |  |  /  |          
                  \  \/   | |  | |   /    \    | | | |  |  | /  /          
                 / \  \   | |__| |  /  /\  \   | |_| |  |  |/  /          
                |  |  |   |  __  | /  /__\  \  |    /   |      \           
                |  |  |   | |  | | |   __   |  |    \   |  |\   \          
                \     /   | |  | | |  |  |  |  | |\  \  |  | \   \       
                 \___/    |_|  |_| |__|  |__|  |_| \__\ |__|  \__/        
                                                                              
                      - O R C A' S   B I G   F R I E N D -                    
                                      &                                       
                       - I N T E G R A L  F E E D E R -                       
                                                                              
 v1 FN, 2020, v2 2021, v3 2022-2024                                           
------------------------------------------------------------------------------


----------------------
SHARK INTEGRAL PACKAGE
----------------------

Number of atoms                             ...      2
Number of basis functions                   ...     82
Number of shells                            ...     42
Maximum angular momentum                    ...      2
Integral batch strategy                     ... SHARK/LIBINT Hybrid
RI-J (if used) integral strategy            ... SPLIT-RIJ (Revised 2003 algorithm where possible)
Printlevel                                  ...      1
Contraction scheme used                     ... PARTIAL GENERAL contraction
Prescreening option                         ... SCHWARTZ
   Thresh                                   ... 2.500e-11
   Tcut                                     ... 2.500e-12
   Tpresel                                  ... 2.500e-12 
Coulomb Range Separation                    ... NOT USED
Exchange Range Separation                   ... NOT USED
Multipole approximations                    ... NOT USED
Finite Nucleus Model                        ... NOT USED
CABS basis                                  ... NOT available
Auxiliary Coulomb fitting basis             ... NOT available
Auxiliary J/K fitting basis                 ... NOT available
Auxiliary Correlation fitting basis         ... NOT available
Auxiliary 'external' fitting basis          ... NOT available

Checking pre-screening integrals            ... done (  0.0 sec) Dimension = 42
Save PGC pre-screening integrals            ... done (  0.0 sec) Dimension = 42
Calculate PGC overlap integrals             ... done (  0.0 sec) Dimension = 16
Calculating pre-screening integrals (ORCA)  ... done (  0.0 sec) Dimension = 16
Shell pair information
Shell pair cut-off parameter TPreSel        ...   2.5e-12
Total number of shell pairs                 ...       903
Shell pairs after pre-screening             ...       689
Total number of primitive shell pairs       ...       903
Primitive shell pairs kept                  ...       689
          la=0 lb=0:    205 shell pairs
          la=1 lb=0:    289 shell pairs
          la=1 lb=1:    112 shell pairs
          la=2 lb=0:     48 shell pairs
          la=2 lb=1:     32 shell pairs
          la=2 lb=2:      3 shell pairs

Checking whether 4 symmetric matrices of dimension 82 fit in memory
:Max Core in MB      =   4096.00
 MB in use           =      1.88
 MB left             =   4094.12
 MB needed           =      0.10
 Data fit in memory  = YES
Calculating Nuclear repulsion               ... done (  0.0 sec) ENN=     66.881536536727 Eh

Diagonalization of the overlap matrix:
Smallest eigenvalue                        ... 2.610e-02
Time for diagonalization                   ...    0.000 sec
Threshold for overlap eigenvalues          ... 1.000e-07
Number of eigenvalues below threshold      ... 0
Time for construction of square roots      ...    0.001 sec
Total time needed                          ...    0.004 sec

-------------------
DFT GRID GENERATION
-------------------

General Integration Accuracy     IntAcc      ... 4.388
Radial Grid Type                 RadialGrid  ... OptM3 with GC (2021)
Angular Grid (max. ang.)         AngularGrid ... 4 (Lebedev-302)
Angular grid pruning method      GridPruning ... 4 (adaptive)
Weight generation scheme         WeightScheme... mBecke (2022)
Basis function cutoff            BFCut       ... 1.0000e-11
Integration weight cutoff        WCut        ... 1.0000e-14
Partially contracted basis set               ... off
Rotationally invariant grid construction     ... off
Angular grids for H and He will be reduced by one unit

Total number of grid points                  ...    14722
Total number of batches                      ...      231
Average number of points per batch           ...       63
Average number of grid points per atom       ...     7361

---------------------
SHARK GRID GENERATION
---------------------

General Integration Accuracy     IntAcc      ... 4.388
Radial Grid Type                 RadialGrid  ... OptM3 with GC (2021)
Angular Grid (max. ang.)         AngularGrid ... 4 (Lebedev-302)
Angular grid pruning method      GridPruning ... 4 (adaptive)
Weight generation scheme         WeightScheme... mBecke (2022)
Basis function cutoff            BFCut       ... 1.0000e-11
Integration weight cutoff        WCut        ... 1.0000e-14
Partially contracted basis set               ... off
Rotationally invariant grid construction     ... off
Angular grids for H and He will be reduced by one unit
Core-polarized basis detected: some atoms will have their core
                               angular grid increased.
Steep s-basis detected: some atoms will have their radial
                        grid points doubled.

Total number of grid points                  ...    38684
Total number of batches                      ...      605
Average number of points per batch           ...       63
Average number of grid points per atom       ...    19342
Grids setup in   0.4 sec
Initializing property integral containers    ... done (  0.0 sec)

SHARK setup successfully completed in   0.5 seconds

Maximum memory used throughout the entire STARTUP-calculation: 25.1 MB


           ************************************************************
           *        Program running with 8 parallel MPI-processes     *
           *              working on a common directory               *
           ************************************************************
-------------------------------------------------------------------------------
                                 ORCA GUESS
                   Start orbitals & Density for SCF / CASSCF
-------------------------------------------------------------------------------

------------
SCF SETTINGS
------------
Hamiltonian:
 Density Functional     Method          .... DFT(GTOs)
 Exchange Functional    Exchange        .... no Exchange
  Functional kind                       .... Correlation
  Functional name                       .... Minnesota N12 correlation functional
  Functional family                     .... GGA
  Functional refs                              
    [ 0] R. Peverati and D. G. Truhlar.,  J. Chem. Theory Comput. 8, 2310 (2012), doi: 10.1021/ct3002656
  Functional external parameters        .... 10
    Parameter  0 _css0      =  1.000000e+00 : u^0 coefficient for same-spin correlation
    Parameter  1 _css1      = -5.531700e+00 : u^1 coefficient for same-spin correlation
    Parameter  2 _css2      =  3.079580e+01 : u^2 coefficient for same-spin correlation
    Parameter  3 _css3      = -5.641960e+01 : u^3 coefficient for same-spin correlation
    Parameter  4 _css4      =  3.212500e+01 : u^4 coefficient for same-spin correlation
    Parameter  5 _cos0      =  1.000000e+00 : u^0 coefficient for opposite-spin correlation
    Parameter  6 _cos1      =  3.245110e+00 : u^1 coefficient for opposite-spin correlation
    Parameter  7 _cos2      = -2.528930e+01 : u^2 coefficient for opposite-spin correlation
    Parameter  8 _cos3      =  1.444070e+01 : u^3 coefficient for opposite-spin correlation
    Parameter  9 _cos4      =  1.968700e+01 : u^4 coefficient for opposite-spin correlation
 Gradients option       PostSCFGGA      .... off


General Settings:
 Integral files         IntName         .... /cluster/projects/nn14654k/ylvaos/basis_set_n_funcs/functionals/gga_c_N12/PCl/inp/PCl_gga_c_N12_ccpvdz
 Hartree-Fock type      HFTyp           .... UHF
 Total Charge           Charge          ....    0
 Multiplicity           Mult            ....    3
 Number of Electrons    NEL             ....   32
 Basis Dimension        Dim             ....   36
 Nuclear Repulsion      ENuc            ....     66.8815365367 Eh

Convergence Acceleration:
 AO-DIIS                CNVDIIS         .... on
   Start iteration      DIISMaxIt       ....    12
   Startup error        DIISStart       ....  0.200000
   # of expansion vecs  DIISMaxEq       ....     5
   Bias factor          DIISBfac        ....   1.050
   Max. coefficient     DIISMaxC        ....  10.000
 MO-DIIS                CNVKDIIS        .... off
 Trust-Rad. Augm. Hess. CNVTRAH         .... auto
   Auto Start mean grad. ratio tolernc. ....  1.125000
   Auto Start start iteration           ....    50
   Auto Start num. interpolation iter.  ....    10
   Max. Number of Micro iterations      ....    24
   Max. Number of Macro iterations      .... Maxiter - #DIIS iter
   Number of Davidson start vectors     ....     2
   Converg. threshold    (grad. norm)   ....   1.000e-05
   Grad. Scal. Fac. for Micro threshold ....   0.100
   Minimum threshold for Micro iter.    ....   1.000e-02
   NR start threshold (gradient norm)   ....   1.000e-04
   Initial trust radius                 ....   0.400
   Minimum AH scaling param. (alpha)    ....   1.000
   Maximum AH scaling param. (alpha)    .... 1000.000
   Quad. conv. algorithm                .... NR
   White noise on init. David. guess    .... on
   Maximum white noise                  ....   0.010
   Pseudo random numbers                .... off
   Inactive MOs                         .... canonical
   Orbital update algorithm             .... Taylor
   Preconditioner                       .... Diag
   Full preconditioner red. dimension   ....   250
 SOSCF                 CNVSOSCF           .... on
   Start iteration     SOSCFMaxIt         ....   150
   Startup grad/error  SOSCFStart         ....  0.003300
   Hessian update      SOSCFHessUp        .... L-BFGS
   Autom. constraints  SOSCFAutoConstrain .... off
 Level Shifting         CNVShift        .... on
   Level shift para.    LevelShift      ....    0.2500
   Turn off err/grad.   ShiftErr        ....    0.0010
 Zerner damping         CNVZerner       .... off
 Static damping         CNVDamp         .... on
   Fraction old density DampFac         ....    0.7000
   Max. Damping (<1)    DampMax         ....    0.9800
   Min. Damping (>=0)   DampMin         ....    0.0000
   Turn off err/grad.   DampErr         ....    0.1000

SCF Procedure:
 Maximum # iterations   MaxIter         ....   125
 SCF integral mode      SCFMode         .... Direct
   Integral package                     .... SHARK and LIBINT hybrid scheme
 Reset frequency        DirectResetFreq ....    20
 Integral Threshold     Thresh          ....  2.500e-11 Eh
 Primitive CutOff       TCut            ....  2.500e-12 Eh

Convergence Tolerance:
 Convergence Check Mode ConvCheckMode   .... Total+1el-Energy
 Convergence forced     ConvForced      .... 0
 Energy Change          TolE            ....  1.000e-08 Eh
 1-El. energy change                    ....  1.000e-05 Eh
 Orbital Gradient       TolG            ....  1.000e-05
 Orbital Rotation angle TolX            ....  1.000e-05
 DIIS Error             TolErr          ....  5.000e-07

------------------------------
INITIAL GUESS: MODEL POTENTIAL
------------------------------
Loading Hartree-Fock densities                     ... done
Calculating cut-offs                               ... done
Initializing the effective Hamiltonian             ... done
Setting up the integral package (SHARK)            ... done
Starting the Coulomb interaction                   ... done (   0.0 sec)
Making the grid                                    ... done (   0.0 sec)
Mapping shells                                     ... done
Starting the XC term evaluation                    ... done (   0.0 sec)
  promolecular density results
     # of electrons  =     32.000074388
     EX              =      0.000000000
     EC              =     -2.085912662
     EX+EC           =     -2.085912662
Transforming the Hamiltonian                       ... done (   0.0 sec)
Diagonalizing the Hamiltonian                      ... done (   0.0 sec)
Back transforming the eigenvectors                 ... done (   0.0 sec)
Now organizing SCF variables                       ... done
                      ------------------
                      INITIAL GUESS DONE (   0.0 sec)
                      ------------------
             **** ENERGY FILE WAS UPDATED (/cluster/projects/nn14654k/ylvaos/basis_set_n_funcs/functionals/gga_c_N12/PCl/inp/PCl_gga_c_N12_ccpvdz.en.tmp) ****
Finished Guess after   0.1 sec
Maximum memory used throughout the entire GUESS-calculation: 4.1 MB


           ************************************************************
           *        Program running with 8 parallel MPI-processes     *
           *              working on a common directory               *
           ************************************************************

-------------------------------------------------------------------------------------------
                                      ORCA LEAN-SCF
                              memory conserving SCF solver
-------------------------------------------------------------------------------------------

----------------------------------------D-I-I-S--------------------------------------------
Iteration    Energy (Eh)           Delta-E    RMSDP     MaxDP     DIISErr   Damp  Time(sec)
-------------------------------------------------------------------------------------------
               ***  Starting incremental Fock matrix formation  ***
    1    -752.0662565819455949     0.00e+00  4.78e-02  1.59e-01  2.79e-01  0.700   0.1
Warning: op=0 Small HOMO/LUMO gap (   0.089) - skipping pre-diagonalization
         Will do a full diagonalization
    2    -752.4415389907705958    -3.75e-01  3.05e-02  9.61e-02  1.14e-01  0.700   0.1
                               ***Turning on AO-DIIS***
    3    -752.5630770673435563    -1.22e-01  1.44e-02  4.75e-02  4.33e-02  0.700   0.1
    4    -752.6326484641596153    -6.96e-02  2.25e-02  8.19e-02  2.57e-02  0.000   0.1
    5    -752.7912851072708236    -1.59e-01  8.29e-03  4.90e-02  2.14e-02  0.000   0.1
    6    -752.7956880961170327    -4.40e-03  1.99e-03  7.35e-03  9.98e-03  0.000   0.1
                              *** Initializing SOSCF ***
---------------------------------------S-O-S-C-F--------------------------------------
Iteration    Energy (Eh)           Delta-E    RMSDP     MaxDP     MaxGrad    Time(sec)
--------------------------------------------------------------------------------------
    7    -752.7962749312388269    -5.87e-04  8.43e-04  3.36e-03  3.25e-03     0.1
               *** Restarting incremental Fock matrix formation ***
    8    -752.7963644935916818    -8.96e-05  1.47e-03  6.26e-03  2.24e-03     0.1
    9    -752.7962693096067142     9.52e-05  9.74e-04  2.97e-03  4.58e-03     0.1
   10    -752.7963924833775309    -1.23e-04  5.46e-04  3.86e-03  5.51e-04     0.1
   11    -752.7963933686158953    -8.85e-07  2.51e-04  1.85e-03  3.78e-04     0.1
   12    -752.7963953033754478    -1.93e-06  3.57e-05  1.28e-04  4.75e-05     0.1
   13    -752.7963953010190608     2.36e-09  2.09e-05  9.36e-05  5.91e-05     0.1
                 **** Energy Check signals convergence ****

               *****************************************************
               *                     SUCCESS                       *
               *           SCF CONVERGED AFTER  13 CYCLES          *
               *****************************************************

             **** ENERGY FILE WAS UPDATED (/cluster/projects/nn14654k/ylvaos/basis_set_n_funcs/functionals/gga_c_N12/PCl/inp/PCl_gga_c_N12_ccpvdz.en.tmp) ****

----------------
TOTAL SCF ENERGY
----------------

Total Energy       :       -752.79639532983458 Eh          -20484.63134 eV

Components:
Nuclear Repulsion  :         66.88153653672681 Eh            1819.93913 eV
Electronic Energy  :       -819.67793186656138 Eh          -22304.57047 eV
One Electron Energy:      -1223.84685201408456 Eh          -33302.56591 eV
Two Electron Energy:        404.16892014752318 Eh           10997.99544 eV

Virial components:
Potential Energy   :      -1535.25013905904279 Eh          -41776.28015 eV
Kinetic Energy     :        782.45374372920810 Eh           21291.64881 eV
Virial Ratio       :          1.96209699469514

DFT components:
N(Alpha)           :       16.999999640912 electrons
N(Beta)            :       14.999998884764 electrons
N(Total)           :       31.999998525676 electrons
E(X)               :        0.000000000000 Eh       
E(C)               :       -2.039781148116 Eh       
E(XC)              :       -2.039781148116 Eh       

---------------
SCF CONVERGENCE
---------------

  Last Energy change         ...   -2.3564e-09  Tolerance :   1.0000e-08
  Last MAX-Density change    ...    9.3635e-05  Tolerance :   1.0000e-07
  Last RMS-Density change    ...    2.0892e-05  Tolerance :   5.0000e-09
  Last DIIS Error            ...    3.2541e-03  Tolerance :   5.0000e-07
  Last Orbital Gradient      ...    5.9051e-05  Tolerance :   1.0000e-05
  Last Orbital Rotation      ...    4.9573e-05  Tolerance :   1.0000e-05


----------------------
UHF SPIN CONTAMINATION
----------------------

Warning: in a DFT calculation there is little theoretical justification to 
         calculate <S**2> as in Hartree-Fock theory. We will do it anyways
         but you should keep in mind that the values have only limited relevance

Expectation value of <S**2>     :     2.000323
Ideal value S*(S+1) for S=1.0   :     2.000000
Deviation                       :     0.000323

----------------
ORBITAL ENERGIES
----------------
                 SPIN UP ORBITALS
  NO   OCC          E(Eh)            E(eV) 
   0   1.0000     -95.012921     -2585.4330 
   1   1.0000     -71.331489     -1941.0285 
   2   1.0000      -7.809580      -212.5095 
   3   1.0000      -5.627113      -153.1215 
   4   1.0000      -5.620076      -152.9300 
   5   1.0000      -5.620076      -152.9300 
   6   1.0000      -5.080714      -138.2532 
   7   1.0000      -3.334500       -90.7364 
   8   1.0000      -3.326359       -90.5148 
   9   1.0000      -3.326359       -90.5148 
  10   1.0000      -0.484465       -13.1830 
  11   1.0000      -0.216431        -5.8894 
  12   1.0000      -0.071664        -1.9501 
  13   1.0000      -0.071664        -1.9501 
  14   1.0000      -0.054967        -1.4957 
  15   1.0000       0.092805         2.5253 
  16   1.0000       0.092805         2.5253 
  17   0.0000       0.201340         5.4787 
  18   0.0000       0.481046        13.0899 
  19   0.0000       0.580793        15.8042 
  20   0.0000       0.580793        15.8042 
  21   0.0000       0.613441        16.6926 
  22   0.0000       0.660090        17.9620 
  23   0.0000       0.660101        17.9623 
  24   0.0000       0.660356        17.9692 
  25   0.0000       0.675681        18.3862 
  26   0.0000       0.675681        18.3862 
  27   0.0000       0.761818        20.7301 

                 SPIN DOWN ORBITALS
  NO   OCC          E(Eh)            E(eV) 
   0   1.0000     -95.013330     -2585.4441 
   1   1.0000     -71.332425     -1941.0540 
   2   1.0000      -7.810670      -212.5391 
   3   1.0000      -5.627718      -153.1380 
   4   1.0000      -5.621457      -152.9676 
   5   1.0000      -5.621457      -152.9676 
   6   1.0000      -5.083394      -138.3262 
   7   1.0000      -3.336238       -90.7837 
   8   1.0000      -3.330510       -90.6278 
   9   1.0000      -3.330510       -90.6278 
  10   1.0000      -0.488672       -13.2975 
  11   1.0000      -0.228107        -6.2071 
  12   1.0000      -0.079505        -2.1634 
  13   1.0000      -0.079505        -2.1634 
  14   1.0000      -0.064944        -1.7672 
  15   0.0000       0.072525         1.9735 
  16   0.0000       0.072525         1.9735 
  17   0.0000       0.190624         5.1871 
  18   0.0000       0.463831        12.6215 
  19   0.0000       0.568741        15.4762 
  20   0.0000       0.568741        15.4762 
  21   0.0000       0.577266        15.7082 
  22   0.0000       0.648591        17.6491 
  23   0.0000       0.648591        17.6491 
  24   0.0000       0.652349        17.7513 
  25   0.0000       0.652365        17.7518 
*Only the first 10 virtual orbitals were printed.

                    ********************************
                    * MULLIKEN POPULATION ANALYSIS *
                    ********************************

--------------------------------------------
MULLIKEN ATOMIC CHARGES AND SPIN POPULATIONS
--------------------------------------------
   0 P :   -0.117914    1.567111
   1 Cl:    0.117914    0.432889
Sum of atomic charges         :   -0.0000000
Sum of atomic spin populations:    2.0000000

-----------------------------------------------------
MULLIKEN REDUCED ORBITAL CHARGES AND SPIN POPULATIONS
-----------------------------------------------------
CHARGE
  0 P s       :     5.935527  s :     5.935527
      pz      :     2.685351  p :     9.083040
      px      :     3.198845
      py      :     3.198845
      dz2     :     0.043380  d :     0.099347
      dxz     :     0.027984
      dyz     :     0.027984
      dx2y2   :     0.000000
      dxy     :     0.000000

  1 Cls       :     5.884319  s :     5.884319
      pz      :     3.437302  p :    10.957327
      px      :     3.760012
      py      :     3.760012
      dz2     :     0.014121  d :     0.040441
      dxz     :     0.013160
      dyz     :     0.013160
      dx2y2   :     0.000000
      dxy     :     0.000000


SPIN
  0 P s       :    -0.007578  s :    -0.007578
      pz      :    -0.001752  p :     1.576191
      px      :     0.788972
      py      :     0.788972
      dz2     :    -0.000602  d :    -0.001503
      dxz     :    -0.000450
      dyz     :    -0.000450
      dx2y2   :     0.000000
      dxy     :     0.000000

  1 Cls       :     0.002006  s :     0.002006
      pz      :     0.007780  p :     0.417961
      px      :     0.205090
      py      :     0.205090
      dz2     :     0.000146  d :     0.012922
      dxz     :     0.006388
      dyz     :     0.006388
      dx2y2   :    -0.000000
      dxy     :     0.000000



                     *******************************
                     * LOEWDIN POPULATION ANALYSIS *
                     *******************************

-------------------------------------------
LOEWDIN ATOMIC CHARGES AND SPIN POPULATIONS
-------------------------------------------
   0 P :   -0.240656    1.545504
   1 Cl:    0.240656    0.454496

----------------------------------------------------
LOEWDIN REDUCED ORBITAL CHARGES AND SPIN POPULATIONS
----------------------------------------------------
CHARGE
  0 P s       :     5.821561  s :     5.821561
      pz      :     2.869454  p :     9.264782
      px      :     3.197664
      py      :     3.197664
      dz2     :     0.075513  d :     0.154314
      dxz     :     0.039400
      dyz     :     0.039400
      dx2y2   :     0.000000
      dxy     :     0.000000

  1 Cls       :     5.756256  s :     5.756256
      pz      :     3.459115  p :    10.953533
      px      :     3.747209
      py      :     3.747209
      dz2     :     0.018101  d :     0.049555
      dxz     :     0.015727
      dyz     :     0.015727
      dx2y2   :     0.000000
      dxy     :     0.000000


SPIN
  0 P s       :    -0.003364  s :    -0.003364
      pz      :    -0.001056  p :     1.542931
      px      :     0.771993
      py      :     0.771993
      dz2     :    -0.000741  d :     0.005938
      dxz     :     0.003340
      dyz     :     0.003340
      dx2y2   :     0.000000
      dxy     :     0.000000

  1 Cls       :     0.000090  s :     0.000090
      pz      :     0.005069  p :     0.435409
      px      :     0.215170
      py      :     0.215170
      dz2     :     0.000004  d :     0.018997
      dxz     :     0.009497
      dyz     :     0.009497
      dx2y2   :    -0.000000
      dxy     :     0.000000



                      *****************************
                      * MAYER POPULATION ANALYSIS *
                      *****************************

  NA   - Mulliken gross atomic population
  ZA   - Total nuclear charge
  QA   - Mulliken gross atomic charge
  VA   - Mayer's total valence
  BVA  - Mayer's bonded valence
  FA   - Mayer's free valence

  ATOM       NA         ZA         QA         VA         BVA        FA
  0 P     15.1179    15.0000    -0.1179     2.8391     1.5944     1.2446
  1 Cl    16.8821    17.0000     0.1179     1.6829     1.5944     0.0884

  Mayer bond orders larger than 0.100000
B(  0-P ,  1-Cl) :   1.5944 

-------
TIMINGS
-------

Total SCF time: 0 days 0 hours 0 min 1 sec 

Total time                  ....       1.058 sec
Sum of individual times     ....       0.971 sec  ( 91.8%)

SCF preparation             ....       0.051 sec  (  4.8%)
Fock matrix formation       ....       0.523 sec  ( 49.4%)
  Startup                   ....       0.014 sec  (  2.7% of F)
  Coulomb formation         ....       0.063 sec  ( 12.1% of F)
  XC integration            ....       0.253 sec  ( 48.4% of F)
    XC Preparation          ....       0.000 sec  (  0.0% of XC)
    Basis function eval.    ....       0.019 sec  (  7.6% of XC)
    Density eval.           ....       0.007 sec  (  2.6% of XC)
    XC-Functional eval.     ....       0.014 sec  (  5.7% of XC)
    XC-Potential eval.      ....       0.011 sec  (  4.5% of XC)
Diagonalization             ....       0.000 sec  (  0.0%)
Density matrix formation    ....       0.096 sec  (  9.1%)
Total Energy calculation    ....       0.020 sec  (  1.9%)
Population analysis         ....       0.010 sec  (  0.9%)
Orbital Transformation      ....       0.015 sec  (  1.4%)
Orbital Orthonormalization  ....       0.000 sec  (  0.0%)
DIIS solution               ....       0.199 sec  ( 18.8%)
SOSCF solution              ....       0.058 sec  (  5.5%)
Finished LeanSCF after   1.1 sec

Maximum memory used throughout the entire LEANSCF-calculation: 6.1 MB


           ************************************************************
           *        Program running with 8 parallel MPI-processes     *
           *              working on a common directory               *
           ************************************************************

------------------------------------------------------------------------------
                         ORCA PROPERTY INTEGRAL CALCULATIONS
------------------------------------------------------------------------------

GBWName                                   ... /cluster/projects/nn14654k/ylvaos/basis_set_n_funcs/functionals/gga_c_N12/PCl/inp/PCl_gga_c_N12_ccpvdz.gbw
Number of atoms                           ...      2
Number of basis functions                 ...     82
Max core memory                           ...   4096 MB

Dipole integrals                          ... YES
Quadrupole integrals                      ... YES
Linear momentum integrals                 ...  NO
Angular momentum integrals                ...  NO
Higher moments length integrals           ...  NO
Higher moments velocity integrals         ...  NO
Kinetic energy integrals                  ...  NO
GIAO right hand sides                     ...  NO
GIAO dipole derivative integrals          ...  NO
SOC integrals                             ...  NO
EPR diamagnetic integrals (GIAO)          ...  NO
EPR gauge integrals                       ...  NO
Field gradient integrals                  ...  NO (   0 nuclei)
Spin-dipole/Fermi contact integrals       ...  NO (   0 nuclei)
Contact density integrals                 ...  NO (   0 nuclei)
Nucleus-orbit integrals                   ...  NO (   0 nuclei)
Geometric perturbations                   ...  NO (   2 nuclei)

Choice of electric origin   ... Center of mass
Position of electric origin ... (  0.0000,  0.0000,  0.1285) 
Choice of magnetic origin   ... GIAO
Position of magnetic origin ... (  0.0000,  0.0000,  0.0000) 

Calculating integrals                     ... Electric Dipole (Length)     done (  0.0 sec)
Calculating integrals                     ... Electric Quadrupole (Length) done (  0.0 sec)

Property integrals calculated in   0.0 sec

Maximum memory used throughout the entire PROPINT-calculation: 4.3 MB
------------------------------------------------------------------------------
                           ORCA ORBITAL LOCALIZATION
------------------------------------------------------------------------------

Input orbitals are from                  ... /cluster/projects/nn14654k/ylvaos/basis_set_n_funcs/functionals/gga_c_N12/PCl/inp/PCl_gga_c_N12_ccpvdz.gbw
Output orbitals are to                   ... /cluster/projects/nn14654k/ylvaos/basis_set_n_funcs/functionals/gga_c_N12/PCl/inp/PCl_gga_c_N12_ccpvdz.loc
Max. number of iterations                ... 128
Localizations seeded randomly            ... on
Convergence tolerance                    ... 1.000e-06
Threshold for strong local MOs           ... 9.500e-01
Threshold for bond MOs                   ... 8.500e-01
Operator                                 ... 0
Orbital range for localization           ... 7 to 16
Localization criterion                   ... NEW-BOYS
Doing the dipole integrals               ... o.k.
Initial value of the localization sum :    38.540261
ITERATION   0 : L=   44.8169336120 DL=  6.28e+00 (AVERGE_DL)=    0.3734723846 
ITERATION   1 : L=   46.1383334174 DL=  1.32e+00 (AVERGE_DL)=    0.1713605559 
ITERATION   2 : L=   46.1566281989 DL=  1.83e-02 (AVERGE_DL)=    0.0201631024 
ITERATION   3 : L=   46.1568551606 DL=  2.27e-04 (AVERGE_DL)=    0.0022457948 
ITERATION   4 : L=   46.1568730152 DL=  1.79e-05 (AVERGE_DL)=    0.0006298961 
ITERATION   5 : L=   46.1568737003 DL=  6.85e-07 (AVERGE_DL)=    0.0001233888 
LOCALIZATION SUM CONVERGED


--------------------------------------------------------------------------------
                    LOCALIZED MOLECULAR ORBITAL COMPOSITIONS
--------------------------------------------------------------------------------

The Mulliken populations for each LMO on each atom are computed
The LMO`s will be ordered according to atom index and type
  (A) Strongly localized MO`s have populations of >=0.950 on one atom
  (B) Two center bond orbitals have populations of >=0.850 on two atoms
  (C) Other MO`s are considered to be `delocalized`

FOUND  -   9 strongly local MO`s
       -   1 two center bond MO`s
       -   0 significantly delocalized MO`s

Rather strongly localized orbitals:
MO  15:   1Cl -   1.005345
MO  14:   1Cl -   1.005345
MO  13:   1Cl -   1.005347
MO  12:   0P  -   1.000640
MO  11:   0P  -   1.017784
MO  10:   0P  -   1.017784
MO   9:   0P  -   1.000641
MO   8:   0P  -   1.000639
MO   7:   0P  -   1.017784
Bond-like localized orbitals:
MO  16:   1Cl -   0.701160  and   0P  -   0.298840
Localized MO's were stored in: /cluster/projects/nn14654k/ylvaos/basis_set_n_funcs/functionals/gga_c_N12/PCl/inp/PCl_gga_c_N12_ccpvdz.loc
------------------------------------------------------------------------------
                           ORCA ORBITAL LOCALIZATION
------------------------------------------------------------------------------

Input orbitals are from                  ... /cluster/projects/nn14654k/ylvaos/basis_set_n_funcs/functionals/gga_c_N12/PCl/inp/PCl_gga_c_N12_ccpvdz.loc
Output orbitals are to                   ... /cluster/projects/nn14654k/ylvaos/basis_set_n_funcs/functionals/gga_c_N12/PCl/inp/PCl_gga_c_N12_ccpvdz.loc
Max. number of iterations                ... 128
Localizations seeded randomly            ... on
Convergence tolerance                    ... 1.000e-06
Threshold for strong local MOs           ... 9.500e-01
Threshold for bond MOs                   ... 8.500e-01
Operator                                 ... 1
Orbital range for localization           ... 7 to 14
Localization criterion                   ... NEW-BOYS
Doing the dipole integrals               ... o.k.
Initial value of the localization sum :    27.152900
ITERATION   0 : L=   28.3330508665 DL=  1.18e+00 (AVERGE_DL)=    0.2053003352 
ITERATION   1 : L=   28.9464673584 DL=  6.13e-01 (AVERGE_DL)=    0.1480126071 
ITERATION   2 : L=   29.3650873240 DL=  4.19e-01 (AVERGE_DL)=    0.1222731085 
ITERATION   3 : L=   29.5066613291 DL=  1.42e-01 (AVERGE_DL)=    0.0711070634 
ITERATION   4 : L=   29.5254038423 DL=  1.87e-02 (AVERGE_DL)=    0.0258722916 
ITERATION   5 : L=   29.5284880430 DL=  3.08e-03 (AVERGE_DL)=    0.0104952383 
ITERATION   6 : L=   29.5290046381 DL=  5.17e-04 (AVERGE_DL)=    0.0042953258 
ITERATION   7 : L=   29.5290899466 DL=  8.53e-05 (AVERGE_DL)=    0.0017454893 
ITERATION   8 : L=   29.5291029784 DL=  1.30e-05 (AVERGE_DL)=    0.0006822174 
ITERATION   9 : L=   29.5291048037 DL=  1.83e-06 (AVERGE_DL)=    0.0002553235 
ITERATION  10 : L=   29.5291050384 DL=  2.35e-07 (AVERGE_DL)=    0.0000915545 
LOCALIZATION SUM CONVERGED


--------------------------------------------------------------------------------
                    LOCALIZED MOLECULAR ORBITAL COMPOSITIONS
--------------------------------------------------------------------------------

The Mulliken populations for each LMO on each atom are computed
The LMO`s will be ordered according to atom index and type
  (A) Strongly localized MO`s have populations of >=0.950 on one atom
  (B) Two center bond orbitals have populations of >=0.850 on two atoms
  (C) Other MO`s are considered to be `delocalized`

FOUND  -   5 strongly local MO`s
       -   3 two center bond MO`s
       -   0 significantly delocalized MO`s

Rather strongly localized orbitals:
MO  11:   1Cl -   0.967674
MO  10:   0P  -   1.002451
MO   9:   0P  -   1.001182
MO   8:   0P  -   1.001183
MO   7:   0P  -   1.001183
Bond-like localized orbitals:
MO  14:   1Cl -   0.755766  and   0P  -   0.244234
MO  13:   1Cl -   0.755766  and   0P  -   0.244234
MO  12:   1Cl -   0.755749  and   0P  -   0.244251
Localized MO's were stored in: /cluster/projects/nn14654k/ylvaos/basis_set_n_funcs/functionals/gga_c_N12/PCl/inp/PCl_gga_c_N12_ccpvdz.loc

-------------------------   --------------------
FINAL SINGLE POINT ENERGY      -752.796395329835
-------------------------   --------------------



           ************************************************************
           *        Program running with 8 parallel MPI-processes     *
           *              working on a common directory               *
           ************************************************************

------------------------------------------------------------------------------
                              ORCA PROPERTY CALCULATIONS
------------------------------------------------------------------------------

GBWName                                 ... /cluster/projects/nn14654k/ylvaos/basis_set_n_funcs/functionals/gga_c_N12/PCl/inp/PCl_gga_c_N12_ccpvdz.gbw
Number of atoms                         ...      2
Number of basis functions               ...     82
Max core memory                         ...   4096 MB

Electric properties:
Dipole moment                           ... YES
Quadrupole moment                       ... YES
Static polarizability (Dipole/Dipole)   ...  NO
Static polarizability (Dipole/Quad.)    ...  NO
Static polarizability (Quad./Quad.)     ...  NO
Static polarizability (Velocity)        ...  NO
Static hyperpolarizability              ...  NO

Atomic electric properties:
Dipole moment                           ...  NO
Quadrupole moment                       ...  NO
Static polarizability                   ...  NO

Choice of electric origin               ... Center of mass
Position of electric origin             ...     0.000000     0.000000     0.128541

General magnetic properties:
Magnetizability                         ...  NO

EPR properties:
g-Tensor (aka g-matrix)                 ...  NO
Zero-Field splitting spin-orbit         ...  NO
Zero-field splitting spin-spin          ...  NO
Hyperfine couplings                     ...  NO (   0 nuclei)
Quadrupole couplings                    ...  NO (   0 nuclei)
Contact density                         ...  NO (   0 nuclei)

NMR properties:
Chemical shifts                         ...  NO (   0 nuclei)
Spin-rotation constants                 ...  NO (   0 nuclei)
Spin-spin couplings                     ...  NO (   0 nuclei,    0 pairs)

Choice of magnetic origin               ... GIAO
Position of magnetic origin             ...     0.000000     0.000000     0.000000

Properties with geometric perturbations:
SCF Hessian                             ...  NO
IR spectrum                             ...  NO
VCD spectrum                            ...  NO
X-ray spectroscopy properties:
SCF XES/XAS/RIXS spectra                ...  NO

SCF SOC stabilization energy            ...  NO
Diagonal Born-Oppenheimer correction    ...  NO

-------------
DIPOLE MOMENT
-------------

Method             : SCF
Type of density    : Electron Density
Multiplicity       :   3
Irrep              :   0
Energy             :  -752.7963953298345814 Eh
Basis              : AO
                                X                 Y                 Z
Electronic contribution:     -0.000000000      -0.000000000       0.945313571
Nuclear contribution   :      0.000000000       0.000000000      -0.300588162
                        -----------------------------------------
Total Dipole Moment    :     -0.000000000      -0.000000000       0.644725409
                        -----------------------------------------
Magnitude (a.u.)       :      0.644725409
Magnitude (Debye)      :      1.638761754



--------------------
Rotational spectrum 
--------------------
 
Rotational constants in cm-1:             0.000000             0.250508             0.250508 
Rotational constants in MHz :             0.000000          7510.026026          7510.026026 

Dipole components along the rotational axes: 
x,y,z [a.u.] :     0.644725    -0.000000    -0.000000 
x,y,z [Debye]:     1.638762    -0.000000    -0.000000 

 

Dipole moment calculation done in   0.0 sec 

-----------------
QUADRUPOLE MOMENT
-----------------

Method             : SCF
Type of density    : Electron Density
Multiplicity       :   3
Irrep              :   0
Energy             :  -752.7963953298345814 Eh
Basis              : AO

                XX              YY              ZZ              XY              XZ              YZ
  NUC        0.000000000     0.000000000   115.842698194     0.000000000     0.000000000     0.000000000
  EL       -23.889431291   -23.889431291  -139.291262390     0.000000000     0.000000000    -0.000000000
  TOT      -23.889431291   -23.889431291   -23.448564196     0.000000000     0.000000000    -0.000000000 (a.u.)
           -32.132102105   -32.132102105   -31.539120784     0.000000000     0.000000000    -0.000000000 (Buckingham)

diagonalized tensor:
           -23.889431291   -23.889431291   -23.448564196 (a.u.)
           -32.132102105   -32.132102105   -31.539120784 (Buckingham)
            -0.592981321    -0.592981320     1.185962641 (traceless form in Buckingham)

             0.077156189    -0.997019018     0.000000000
            -0.997019018    -0.077156189    -0.000000001
            -0.000000001     0.000000000     1.000000000
        
Isotropic quadrupole :   -23.742475592

Quadrupole moment calculation done in   0.0 sec (  0.0 sec for integrals)

Maximum memory used throughout the entire PROP-calculation: 2.0 MB

--------------------------------
SUGGESTED CITATIONS FOR THIS RUN
--------------------------------

Below you find a list of papers that are relevant to this ORCA run
We neither can nor want to force you to cite these papers, but we appreciate if you do
You receive ORCA, which is the product of decades of hard work by many enthusiastic individuals, for free
The only thing we kindly ask in return is that you cite our papers,
We deeply appreciate it, if you show your appreciation for ORCA by not just citing the generic ORCA reference.

Please note that relegating all ORCA citations to the supporting information does *not* help us.
SI sections are not indexed - citations you put there will not count into any citation statistics
But we need these citations in order to attract the funding resources that allow us to do what we are doing

Therefore, if you are a happy ORCA user, please consider citing a few of the papers listed below in the main body of your paper

In addition to the list printed below, the program has created the file /cluster/projects/nn14654k/ylvaos/basis_set_n_funcs/functionals/gga_c_N12/PCl/inp/PCl_gga_c_N12_ccpvdz.bibtex that contains the list in bibtex format
You can import this file easily into all common literature databanks and citation aid programs

It goes without saying that in many instances, there are alternative algorithms to achieve similar
results as the ones you have gotten from ORCA. It is, of course, also the case that in some instances
ORCA just re-implements algorithms worked out by others. We are fully aware of that and we are also
fully appreciative of our colleagues work. Hence this citation list should not be read as indicating
that the listed papers, which are focused on our own work, are the only ones worth citing. It simply
meant to make it easier for users to cite ORCA specific papers. It is not a substitute for doing your
own literature research and citing the relevant literature in a scientifically appropriate manner.

List of essential papers. We consider these as the minimum necessary citations

  1. Neese, F.
     Software update: the ORCA program system, version 6.0
     WIRES Comput. Molec. Sci. 2025 15(1), e70019
     doi.org/10.1002/wcms.70019

List of papers to cite with high priority. The work reported in these papers was absolutely
necessary for this run to complete.
Our perspective: the developers of density functionals and basis sets usually get cited in chemistry papers
Good! But without the algorithms to do something with them, the functionals or basis sets would not do anything.
Hence, in our opinion, the algorithm design and method developments papers are equally worthy of getting cited

  1. Lehtola, S.; Steigemann, C.; Oliveira, M.; Marques, M.
     Recent developments in Libxc - A comprehensive library of functionals for density functional theory
     Software X 2018 7 , 
     doi.org/10.1016/j.softx.2017.11.002
  2. Neese, F.
     The SHARK Integral Generation and Digestion System
     J. Comp. Chem. 2022 44(3), 381
     doi.org/10.1002/jcc.26942

List of suggested additional citations. These are papers that are important in the 'surrounding' of 
of this run, or papers that preceded the highly important papers. If you like your results we are grateful for a citation.

  1. Neese, F.
     The ORCA program system
     WIRES Comput. Molec. Sci. 2012 2(1), 73-78
     doi.org/10.1002/wcms.81
  2. Neese, F.
     Software update: the ORCA program system, version 4.0
     WIRES Comput. Molec. Sci. 2018 8(1), 1-6
     doi.org/10.1002/wcms.1327
  3. Neese, F.; Wennmohs, F.; Becker, U.; Riplinger, C.
     The ORCA quantum chemistry program package
     J. Chem. Phys. 2020 152(22), 224108
     doi.org/10.1063/5.0004608
  4. Neese, F.
     Software update: The ORCA program system—Version 5.0
     WIRES Comput. Molec. Sci. 2022 12(1), e1606
     doi.org/10.1002/wcms.1606

List of optional additional citations

  1. Neese, F.
     Approximate second-order SCF convergence for spin unrestricted wavefunctions
     Chem. Phys. Lett. 2000 325(1-3), 93-98
     doi.org/10.1016/s0009-2614(00)00662-x

Timings for individual modules:

Sum of individual times          ...        2.747 sec (=   0.046 min)
Startup calculation              ...        0.707 sec (=   0.012 min)  25.7 %
SCF iterations                   ...        1.580 sec (=   0.026 min)  57.5 %
Property integrals               ...        0.235 sec (=   0.004 min)   8.6 %
Property calculations            ...        0.218 sec (=   0.004 min)   7.9 %
Orbital localization             ...        0.006 sec (=   0.000 min)   0.2 %
                             ****ORCA TERMINATED NORMALLY****
TOTAL RUN TIME: 0 days 0 hours 0 minutes 3 seconds 480 msec
