
                                 *****************
                                 * O   R   C   A *
                                 *****************

                                            #,                                       
                                            ###                                      
                                            ####                                     
                                            #####                                    
                                            ######                                   
                                           ########,                                 
                                     ,,################,,,,,                         
                               ,,#################################,,                 
                          ,,##########################################,,             
                       ,#########################################, ''#####,          
                    ,#############################################,,   '####,        
                  ,##################################################,,,,####,       
                ,###########''''           ''''###############################       
              ,#####''   ,,,,##########,,,,          '''####'''          '####       
            ,##' ,,,,###########################,,,                        '##       
           ' ,,###''''                  '''############,,,                           
         ,,##''                                '''############,,,,        ,,,,,,###''
      ,#''                                            '''#######################'''  
     '                                                          ''''####''''         
             ,#######,   #######,   ,#######,      ##                                
            ,#'     '#,  ##    ##  ,#'     '#,    #''#        ,####,    ,#,          
            ##       ##  ##   ,#'  ##            #'  '#       #'       ,# #          
            ##       ##  #######   ##           ,######,      #####,      #          
            '#,     ,#'  ##    ##  '#,     ,#' ,#      #,     #,   #      #          
             '#######'   ##     ##  '#######'  #'      '#     '####' #    #          



                #########################################################
                #                        -***-                          #
                #          Department of theory and spectroscopy        #
                #                                                       #
                #                      Frank Neese                      #
                #                                                       #
                #     Directorship, Architecture, Infrastructure        #
                #                    SHARK, DRIVERS                     #
                #        Core code/Algorithms in most modules           #
                #                                                       #
                #        Max Planck Institute fuer Kohlenforschung      #
                #                Kaiser Wilhelm Platz 1                 #
                #                 D-45470 Muelheim/Ruhr                 #
                #                      Germany                          #
                #                                                       #
                #                  All rights reserved                  #
                #                        -***-                          #
                #########################################################


                         Program Version 6.1.1  -  RELEASE   -
                                (GIT: $487d211c$)
                          ($2025-11-21 10:33:24 +0100$)


 With contributions from (in alphabetic order):
[Max-Planck-Institut fuer Kohlenforschung]                               
  Daniel Aravena         : Magnetic Suceptibility                        
  Michael Atanasov       : Ab Initio Ligand Field Theory (pilot matlab implementation)
  Alexander A. Auer      : GIAO ZORA, VPT2 properties, NMR spectrum      
  Ute Becker             : All parallelization in ORCA, NUMFREQ, NUMCALC 
  Giovanni Bistoni       : ED, misc. LED, open-shell LED, HFLD           
  Dmytro Bykov           : pre 5.0 version of the SCF Hessian            
  Marcos Casanova-Páez   : Triplet and SCS-CIS(D). UHF-(DLPNO)-IP/EA/STEOM-CCSD. UHF-CVS-IP/STEOM-CCSD   
  Vijay G. Chilkuri      : MRCI spin determinant printing, contributions to CSF-ICE 
  Pauline Colinet        : FMM embedding                                 
  Dipayan Datta          : RHF DLPNO-CCSD density                        
  Achintya Kumar Dutta   : EOM-CC, STEOM-CC                              
  Nicolas Foglia         : Exact transition moments, OPA infrastructure, MCD improvements    
  Dmitry Ganyushin       : Spin-Orbit,Spin-Spin,Magnetic field MRCI      
  Miquel Garcia-Rates    : C-PCM and meta-GGA Hessian, CCSD/C-PCM, Gaussian charge scheme 
  Tiago L. C. Gouveia    : GS-ROHF, GS-ROCIS                             
  Yang Guo               : DLPNO-NEVPT2, F12-NEVPT2, CIM, IAO-localization        
  Andreas Hansen         : Spin unrestricted coupled pair/coupled cluster methods 
  Ingolf Harden          : AUTO-CI MPn and infrastructure                
  Benjamin Helmich-Paris : MC-RPA, TRAH-(SCF,CASSCF), AVAS, COSX integrals, SCF dyn. polar., MC-PDFT, srDFT 
  Lee Huntington         : MR-EOM, pCC                                   
  Robert Izsak           : Overlap fitted RIJCOSX, COSX-SCS-MP3, EOM     
  Riya Kayal             : Wick's Theorem for AUTO-CI, AUTO-CI UHF-CCSDT 
  Emily Kempfer          : AUTO-CI RHF CISDT and CCSDT, approximate NEVPT4
  Christian Kollmar      : KDIIS, OOCD, Brueckner-CCSD(T), CCSD density, CASPT2, CASPT2-K, improved NEVPT2 
  Axel Koslowski         : Symmetry handling                             
  Simone Kossmann        : meta-GGA functionals, TD-DFT gradient, OOMP2, (MP2 Hessian; deprecated post 5.0) 
  Lucas Lang             : DCDCAS, Hyperfine gauge corrections, ICE-SOC+SSC
  Marvin Lechner         : AUTO-CI (C++ implementation), FIC-MRCC        
  Spencer Leger          : CASSCF response                               
  Dagmar Lenk            : GEPOL surface, SMD, ORCA-2-JSON               
  Dimitrios Liakos       : Extrapolation schemes; Compound Job, Property file
  Dimitrios Manganas     : Further ROCIS development; embedding schemes. LFT, Crystal Embedding 
  Dimitrios Pantazis     : SARC Basis sets                               
  Anastasios Papadopoulos: AUTO-CI, single reference methods and gradients 
  Taras Petrenko         : pre 6.0 DFT Hessian and TD-DFT gradient,  ECA, NRVS 
  Petra Pikulova         : Analytic Raman intensities                    
  Peter Pinski           : DLPNO-MP2, DLPNO-MP2 Gradient                 
  Shashank Vittal Rao    : ES-AILFT, MagRelax                            
  Christoph Reimann      : Effective Core Potentials                     
  Marius Retegan         : Local ZFS, SOC                                
  Christoph Riplinger    : Optimizer, TS searches, QM/MM, DLPNO-CCSD(T), (RO)-DLPNO pert. Triples 
  Michael Roemelt        : Original ROCIS implementation, recursive CI coupling coefficients
  Masaaki Saitow         : Open-shell DLPNO-CCSD energy and density      
  Barbara Sandhoefer     : DKH picture change effects                    
  Yorick L. A. Schmerwitz: GMF and freeze-and-release deltaSCF, NEB S-IDPP initial path                    
  Kantharuban Sivalingam : CASSCF convergence/infrastructure, NEVPT2, NEVPT3, NEVPT4(SD), FIC-MRCI and CEPA variants
  Bernardo de Souza      : ESD, SOC TD-DFT                               
  Georgi L. Stoychev     : AutoAux, RI-MP2 NMR, DLPNO-MP2 response, X2C  
  Van Anh Tran           : RI-MP2 g-tensors                              
  Willem Van den Heuvel  : Paramagnetic NMR                              
  Zikuan Wang            : NOTCH, Electric field optimization            
  Frank Wennmohs         : Technical directorship and infrastructure     
  Hang Xu                : AUTO-CI-Response properties                   
                                                                         
[FACCTs GmbH]                                                            
  Markus Bursch, Nicolas Foglia, Miquel Garcia-Rates, Ingolf Harden, Hagen Neugebauer, Anastasios Papadopoulos, 
  Christoph Riplinger, Bernardo de Souza, Georgi L. Stoychev                                                    
                                                                 
  APM, various basis sets, CI-OPT, improved COSX, DLPNO-Multilevel,           
  DOCKER, DRACO, updates on ESD, Fragmentator, GOAT, IRC, LR-CPCM, L-BFGS, MBIS, meta-GGA TD-DFT gradient, ML-optimized integration grids, 
  MM, NACMEs, nearIR, NEB, NEB-TS, NL-DFT gradient (VV10), 2- and 3-layer-ONIOM, interface openCOSMO-RS, QMMM,   
  Crystal-QMMM, RESP, rigid body optimization, SF, symmetry and pop. for TD-DFT, various functionals, SOLVATOR                                   
                                                                         
[Other institutions]                                                     
  V. Asgeirsson          : NEB                                           
  Christoph Bannwarth    : sTDA-DFT, sTD-DFT, PBEh-3c, B97-3c, D3        
  Giovanni Bistoni       : ETS/NOCV, ADLD/ADEX, COVALED                  
  Martin Brehm           : Molecular dynamics                            
  Ronald Cardenas        : ETS/NOCV                                      
  Martina Colucci        : COVALED                                       
  Sebastian Ehlert       : rSCAN, r2SCAN, r2SCAN-3c, D4, dhf basis sets  
  Marvin Friede          : D4 for Fr, Ra, Ac-Lr                          
  Lars Goerigk           : TD-DFT with DH, B97 family of functionals     
  Stefan Grimme          : VdW corrections, initial TS optimization, DFT functionals, gCP, sTDA/sTD-DF 
  Waldemar Hujo          : DFT-NL                                        
  H. Jonsson             : NEB                                           
  Holger Kruse           : gCP                                           
  Marcel Mueller         : wB97X-3c, vDZP basis set                      
  Hagen Neugebauer       : wr2SCAN, Native XTB                           
  Gianluca Regni         : ADLD/ADEX                                     
  Tobias Risthaus        : pre 6.0 range-separated hybrid DFT and stability analysis
  Lukas Wittmann         : regularized MP2, r2SCAN double-hybrids, wr2SCAN        
                                                                         
We gratefully acknowledge several colleagues who have allowed us to      
interface, adapt or use parts of their codes:                            
  Ed Valeev, F. Pavosevic, A. Kumar             : LibInt (2-el integral package), F12 methods 
  Garnet Chan, S. Sharma, J. Yang, R. Olivares  : DMRG                   
  Ulf Ekstrom                                   : XCFun DFT Library      
  Mihaly Kallay                                 : mrcc  (arbitrary order and MRCC methods)
  Frank Weinhold                                : gennbo (NPA and NBO analysis)           
  Simon Mueller                                 : openCOSMO-RS                            
  Christopher J. Cramer and Donald G. Truhlar   : smd solvation model                     
  S Lehtola, MJT Oliveira, MAL Marques          : LibXC Library                           
  Liviu Ungur et al                             : ANISO software                          


 Your calculation uses the libint2 library for the computation of 2-el integrals
 For citations please refer to: http://libint.valeyev.net

 Your ORCA version has been built with support for libXC version: 7.0.0
 For citations please refer to: https://libxc.gitlab.io

 This ORCA versions uses:
   CBLAS   interface :  Fast vector & matrix operations
   LAPACKE interface :  Fast linear algebra routines
   SCALAPACK package :  Parallel linear algebra routines
   Shared memory     :  Shared parallel matrices
   BLAS/LAPACK       :  OpenBLAS 0.3.29  USE64BITINT DYNAMIC_ARCH NO_AFFINITY Cooperlake SINGLE_THREADED
        Core in use  :  Cooperlake
   Copyright (c) 2011-2014, The OpenBLAS Project


  ***********************************
  * Starting time: Wed May 20 12:37:04 2026
  * Host name:     c1-44
  * Process ID:    2374637
  * Working dir.:  /cluster/projects/nn14654k/ylvaos/basis_set_n_funcs/functionals/gga_c_N12/PCl/out
  ***********************************

Using LibXC functional ID  80 : Minnesota N12 correlation functional
[ 1]  R. Peverati and D. G. Truhlar.,  J. Chem. Theory Comput. 8, 2310 (2012)
Using LibXC functional ID  80 : Minnesota N12 correlation functional
[ 1]  R. Peverati and D. G. Truhlar.,  J. Chem. Theory Comput. 8, 2310 (2012)
Your calculation utilizes LibXC
by S. Lehtola, C. Steigemann, M. J. T. Oliveira & M. A. L. Marques
Please cite in your paper:
Lehtola, S.; Steigemann, C.; Oliveira, M.J.T.; Marques, M. A. L. Software X, 7, (2018), 1.
   

================================================================================

----- Orbital basis set information -----
Your calculation utilizes the basis: pc-2
   H, C-F              : F. Jensen, J. Chem. Phys. 115, 9113 (2001).
                         F. Jensen, J. Chem. Phys. 116, 7372 (2002).
                         F. Jensen, J. Chem. Phys. 117, 9234 (2002).
   Si-Cl               : F. Jensen, T. Helgaker, J. Chem. Phys. 121, 3463 (2004).
   He-B, Ne-Mg, Al, Ar : F. Jensen, J. Phys. Chem. A 111, 11198 (2007).
   K, Ca, Ga-Kr        : F. Jensen, J. Chem. Phys. 136, 094110 (2012).
   Sc-Zn               : F. Jensen, J. Chem. Phys. 138, 014107 (2013).

================================================================================
                                        WARNINGS
                       Please study these warnings very carefully!
================================================================================


WARNING: your system is open-shell and RHF/RKS was chosen
  ===> : WILL SWITCH to UHF/UKS


================================================================================
                                       INPUT FILE
================================================================================
NAME = /cluster/projects/nn14654k/ylvaos/basis_set_n_funcs/functionals/gga_c_N12/PCl/inp/PCl_gga_c_N12_pc2.inp
|  1> ! dft pc-2 TightSCF
|  2> %pal nprocs 8 end
|  3> 
|  4> %loc
|  5>   LocMet NewBoys
|  6>   Occ true
|  7> end
|  8> 
|  9> %method
| 10>   exchange None
| 11>   correlation gga_c_N12
| 12> end
| 13> 
| 14> %elprop
| 15>   Dipole true
| 16>   Quadrupole true
| 17> end
| 18> 
| 19> * xyz 0 3
| 20> P    0.000000000000   0.000000000000  -1.008800000000
| 21> Cl    0.000000000000   0.000000000000   1.008800000000
| 22> *
| 23> 
| 24> 
| 25>                          ****END OF INPUT****
================================================================================

                       ****************************
                       * Single Point Calculation *
                       ****************************

---------------------------------
CARTESIAN COORDINATES (ANGSTROEM)
---------------------------------
  P      0.000000    0.000000   -1.008800
  Cl     0.000000    0.000000    1.008800

----------------------------
CARTESIAN COORDINATES (A.U.)
----------------------------
  NO LB      ZA    FRAG     MASS         X           Y           Z
   0 P    15.0000    0    30.974    0.000000    0.000000   -1.906356
   1 Cl   17.0000    0    35.453    0.000000    0.000000    1.906356

--------------------------------
INTERNAL COORDINATES (ANGSTROEM)
--------------------------------
 P      0   0   0     0.000000000000     0.00000000     0.00000000
 Cl     1   0   0     2.017600000000     0.00000000     0.00000000

---------------------------
INTERNAL COORDINATES (A.U.)
---------------------------
 P      0   0   0     0.000000000000     0.00000000     0.00000000
 Cl     1   0   0     3.812711447800     0.00000000     0.00000000

---------------------
BASIS SET INFORMATION
---------------------
There are 2 groups of distinct atoms

 Group   1 Type P   : 29s16p2d1f contracted to 5s4p2d1f pattern {99911/7711/11/1}
 Group   2 Type Cl  : 29s16p2d1f contracted to 5s4p2d1f pattern {99911/7711/11/1}

Atom   0P    basis set group =>   1
Atom   1Cl   basis set group =>   2


           ************************************************************
           *        Program running with 8 parallel MPI-processes     *
           *              working on a common directory               *
           ************************************************************
------------------------------------------------------------------------------
                             ORCA STARTUP CALCULATIONS
------------------------------------------------------------------------------
------------------------------------------------------------------------------
                   ___                                                        
                  /   \      - P O W E R E D   B Y -                         
                 /     \                                                     
                 |  |  |   _    _      __       _____    __    __             
                 |  |  |  | |  | |    /  \     |  _  \  |  |  /  |          
                  \  \/   | |  | |   /    \    | | | |  |  | /  /          
                 / \  \   | |__| |  /  /\  \   | |_| |  |  |/  /          
                |  |  |   |  __  | /  /__\  \  |    /   |      \           
                |  |  |   | |  | | |   __   |  |    \   |  |\   \          
                \     /   | |  | | |  |  |  |  | |\  \  |  | \   \       
                 \___/    |_|  |_| |__|  |__|  |_| \__\ |__|  \__/        
                                                                              
                      - O R C A' S   B I G   F R I E N D -                    
                                      &                                       
                       - I N T E G R A L  F E E D E R -                       
                                                                              
 v1 FN, 2020, v2 2021, v3 2022-2024                                           
------------------------------------------------------------------------------


----------------------
SHARK INTEGRAL PACKAGE
----------------------

Number of atoms                             ...      2
Number of basis functions                   ...     68
Number of shells                            ...     24
Maximum angular momentum                    ...      3
Integral batch strategy                     ... SHARK/LIBINT Hybrid
RI-J (if used) integral strategy            ... SPLIT-RIJ (Revised 2003 algorithm where possible)
Printlevel                                  ...      1
Contraction scheme used                     ... SEGMENTED contraction
Prescreening option                         ... SCHWARTZ
   Thresh                                   ... 2.500e-11
   Tcut                                     ... 2.500e-12
   Tpresel                                  ... 2.500e-12 
Coulomb Range Separation                    ... NOT USED
Exchange Range Separation                   ... NOT USED
Multipole approximations                    ... NOT USED
Finite Nucleus Model                        ... NOT USED
CABS basis                                  ... NOT available
Auxiliary Coulomb fitting basis             ... NOT available
Auxiliary J/K fitting basis                 ... NOT available
Auxiliary Correlation fitting basis         ... NOT available
Auxiliary 'external' fitting basis          ... NOT available

Checking pre-screening integrals            ... done (  0.0 sec) Dimension = 24
   => SHARK Basis and OBASIS are compatible. Storing Pre-screening
Shell pair information
Shell pair cut-off parameter TPreSel        ...   2.5e-12
Total number of shell pairs                 ...       300
Shell pairs after pre-screening             ...       294
Total number of primitive shell pairs       ...      4956
Primitive shell pairs kept                  ...      3473
          la=0 lb=0:     50 shell pairs
          la=1 lb=0:     79 shell pairs
          la=1 lb=1:     36 shell pairs
          la=2 lb=0:     40 shell pairs
          la=2 lb=1:     32 shell pairs
          la=2 lb=2:     10 shell pairs
          la=3 lb=0:     20 shell pairs
          la=3 lb=1:     16 shell pairs
          la=3 lb=2:      8 shell pairs
          la=3 lb=3:      3 shell pairs

Checking whether 4 symmetric matrices of dimension 68 fit in memory
:Max Core in MB      =   4096.00
 MB in use           =      2.67
 MB left             =   4093.33
 MB needed           =      0.07
 Data fit in memory  = YES
Calculating Nuclear repulsion               ... done (  0.0 sec) ENN=     66.881536536727 Eh

Diagonalization of the overlap matrix:
Smallest eigenvalue                        ... 1.527e-02
Time for diagonalization                   ...    0.001 sec
Threshold for overlap eigenvalues          ... 1.000e-07
Number of eigenvalues below threshold      ... 0
Time for construction of square roots      ...    0.001 sec
Total time needed                          ...    0.005 sec

-------------------
DFT GRID GENERATION
-------------------

General Integration Accuracy     IntAcc      ... 4.388
Radial Grid Type                 RadialGrid  ... OptM3 with GC (2021)
Angular Grid (max. ang.)         AngularGrid ... 4 (Lebedev-302)
Angular grid pruning method      GridPruning ... 4 (adaptive)
Weight generation scheme         WeightScheme... mBecke (2022)
Basis function cutoff            BFCut       ... 1.0000e-11
Integration weight cutoff        WCut        ... 1.0000e-14
Partially contracted basis set               ... off
Rotationally invariant grid construction     ... off
Angular grids for H and He will be reduced by one unit

Total number of grid points                  ...    14722
Total number of batches                      ...      231
Average number of points per batch           ...       63
Average number of grid points per atom       ...     7361
Grids setup in   0.1 sec
Initializing property integral containers    ... done (  0.0 sec)

SHARK setup successfully completed in   0.2 seconds

Maximum memory used throughout the entire STARTUP-calculation: 19.1 MB


           ************************************************************
           *        Program running with 8 parallel MPI-processes     *
           *              working on a common directory               *
           ************************************************************
-------------------------------------------------------------------------------
                                 ORCA GUESS
                   Start orbitals & Density for SCF / CASSCF
-------------------------------------------------------------------------------

------------
SCF SETTINGS
------------
Hamiltonian:
 Density Functional     Method          .... DFT(GTOs)
 Exchange Functional    Exchange        .... no Exchange
  Functional kind                       .... Correlation
  Functional name                       .... Minnesota N12 correlation functional
  Functional family                     .... GGA
  Functional refs                              
    [ 0] R. Peverati and D. G. Truhlar.,  J. Chem. Theory Comput. 8, 2310 (2012), doi: 10.1021/ct3002656
  Functional external parameters        .... 10
    Parameter  0 _css0      =  1.000000e+00 : u^0 coefficient for same-spin correlation
    Parameter  1 _css1      = -5.531700e+00 : u^1 coefficient for same-spin correlation
    Parameter  2 _css2      =  3.079580e+01 : u^2 coefficient for same-spin correlation
    Parameter  3 _css3      = -5.641960e+01 : u^3 coefficient for same-spin correlation
    Parameter  4 _css4      =  3.212500e+01 : u^4 coefficient for same-spin correlation
    Parameter  5 _cos0      =  1.000000e+00 : u^0 coefficient for opposite-spin correlation
    Parameter  6 _cos1      =  3.245110e+00 : u^1 coefficient for opposite-spin correlation
    Parameter  7 _cos2      = -2.528930e+01 : u^2 coefficient for opposite-spin correlation
    Parameter  8 _cos3      =  1.444070e+01 : u^3 coefficient for opposite-spin correlation
    Parameter  9 _cos4      =  1.968700e+01 : u^4 coefficient for opposite-spin correlation
 Gradients option       PostSCFGGA      .... off


General Settings:
 Integral files         IntName         .... /cluster/projects/nn14654k/ylvaos/basis_set_n_funcs/functionals/gga_c_N12/PCl/inp/PCl_gga_c_N12_pc2
 Hartree-Fock type      HFTyp           .... UHF
 Total Charge           Charge          ....    0
 Multiplicity           Mult            ....    3
 Number of Electrons    NEL             ....   32
 Basis Dimension        Dim             ....   68
 Nuclear Repulsion      ENuc            ....     66.8815365367 Eh

Convergence Acceleration:
 AO-DIIS                CNVDIIS         .... on
   Start iteration      DIISMaxIt       ....    12
   Startup error        DIISStart       ....  0.200000
   # of expansion vecs  DIISMaxEq       ....     5
   Bias factor          DIISBfac        ....   1.050
   Max. coefficient     DIISMaxC        ....  10.000
 MO-DIIS                CNVKDIIS        .... off
 Trust-Rad. Augm. Hess. CNVTRAH         .... auto
   Auto Start mean grad. ratio tolernc. ....  1.125000
   Auto Start start iteration           ....    50
   Auto Start num. interpolation iter.  ....    10
   Max. Number of Micro iterations      ....    24
   Max. Number of Macro iterations      .... Maxiter - #DIIS iter
   Number of Davidson start vectors     ....     2
   Converg. threshold    (grad. norm)   ....   1.000e-05
   Grad. Scal. Fac. for Micro threshold ....   0.100
   Minimum threshold for Micro iter.    ....   1.000e-02
   NR start threshold (gradient norm)   ....   1.000e-04
   Initial trust radius                 ....   0.400
   Minimum AH scaling param. (alpha)    ....   1.000
   Maximum AH scaling param. (alpha)    .... 1000.000
   Quad. conv. algorithm                .... NR
   White noise on init. David. guess    .... on
   Maximum white noise                  ....   0.010
   Pseudo random numbers                .... off
   Inactive MOs                         .... canonical
   Orbital update algorithm             .... Taylor
   Preconditioner                       .... Diag
   Full preconditioner red. dimension   ....   250
 SOSCF                 CNVSOSCF           .... on
   Start iteration     SOSCFMaxIt         ....   150
   Startup grad/error  SOSCFStart         ....  0.003300
   Hessian update      SOSCFHessUp        .... L-BFGS
   Autom. constraints  SOSCFAutoConstrain .... off
 Level Shifting         CNVShift        .... on
   Level shift para.    LevelShift      ....    0.2500
   Turn off err/grad.   ShiftErr        ....    0.0010
 Zerner damping         CNVZerner       .... off
 Static damping         CNVDamp         .... on
   Fraction old density DampFac         ....    0.7000
   Max. Damping (<1)    DampMax         ....    0.9800
   Min. Damping (>=0)   DampMin         ....    0.0000
   Turn off err/grad.   DampErr         ....    0.1000

SCF Procedure:
 Maximum # iterations   MaxIter         ....   125
 SCF integral mode      SCFMode         .... Direct
   Integral package                     .... SHARK and LIBINT hybrid scheme
 Reset frequency        DirectResetFreq ....    20
 Integral Threshold     Thresh          ....  2.500e-11 Eh
 Primitive CutOff       TCut            ....  2.500e-12 Eh

Convergence Tolerance:
 Convergence Check Mode ConvCheckMode   .... Total+1el-Energy
 Convergence forced     ConvForced      .... 0
 Energy Change          TolE            ....  1.000e-08 Eh
 1-El. energy change                    ....  1.000e-05 Eh
 Orbital Gradient       TolG            ....  1.000e-05
 Orbital Rotation angle TolX            ....  1.000e-05
 DIIS Error             TolErr          ....  5.000e-07

------------------------------
INITIAL GUESS: MODEL POTENTIAL
------------------------------
Loading Hartree-Fock densities                     ... done
Calculating cut-offs                               ... done
Initializing the effective Hamiltonian             ... done
Setting up the integral package (SHARK)            ... done
Starting the Coulomb interaction                   ... done (   0.0 sec)
Making the grid                                    ... done (   0.0 sec)
Mapping shells                                     ... done
Starting the XC term evaluation                    ... done (   0.0 sec)
  promolecular density results
     # of electrons  =     32.000075437
     EX              =      0.000000000
     EC              =     -2.085912670
     EX+EC           =     -2.085912670
Transforming the Hamiltonian                       ... done (   0.0 sec)
Diagonalizing the Hamiltonian                      ... done (   0.0 sec)
Back transforming the eigenvectors                 ... done (   0.0 sec)
Now organizing SCF variables                       ... done
                      ------------------
                      INITIAL GUESS DONE (   0.1 sec)
                      ------------------
             **** ENERGY FILE WAS UPDATED (/cluster/projects/nn14654k/ylvaos/basis_set_n_funcs/functionals/gga_c_N12/PCl/inp/PCl_gga_c_N12_pc2.en.tmp) ****
Finished Guess after   0.2 sec
Maximum memory used throughout the entire GUESS-calculation: 6.4 MB


           ************************************************************
           *        Program running with 8 parallel MPI-processes     *
           *              working on a common directory               *
           ************************************************************

-------------------------------------------------------------------------------------------
                                      ORCA LEAN-SCF
                              memory conserving SCF solver
-------------------------------------------------------------------------------------------

----------------------------------------D-I-I-S--------------------------------------------
Iteration    Energy (Eh)           Delta-E    RMSDP     MaxDP     DIISErr   Damp  Time(sec)
-------------------------------------------------------------------------------------------
               ***  Starting incremental Fock matrix formation  ***
    1    -751.7774182114306996     0.00e+00  3.54e-02  2.43e-01  2.70e-01  0.700   0.2
Warning: op=0 Small HOMO/LUMO gap (   0.079) - skipping pre-diagonalization
         Will do a full diagonalization
    2    -752.4280550578639577    -6.51e-01  2.44e-02  1.97e-01  1.35e-01  0.700   0.2
                               ***Turning on AO-DIIS***
    3    -752.6380523392856503    -2.10e-01  1.26e-02  1.15e-01  7.08e-02  0.700   0.2
    4    -752.7540691036175531    -1.16e-01  2.00e-02  1.54e-01  3.95e-02  0.000   0.2
    5    -753.0219330840551493    -2.68e-01  7.43e-03  7.49e-02  2.11e-02  0.000   0.3
    6    -753.0302954893483047    -8.36e-03  2.49e-03  3.06e-02  6.02e-03  0.000   0.2
    7    -753.0310479710462914    -7.52e-04  8.07e-04  7.60e-03  3.48e-03  0.000   0.2
                              *** Initializing SOSCF ***
---------------------------------------S-O-S-C-F--------------------------------------
Iteration    Energy (Eh)           Delta-E    RMSDP     MaxDP     MaxGrad    Time(sec)
--------------------------------------------------------------------------------------
    8    -753.0311576439656847    -1.10e-04  4.23e-04  4.83e-03  1.79e-03     0.2
               *** Restarting incremental Fock matrix formation ***
    9    -753.0311941762748802    -3.65e-05  4.88e-04  5.85e-03  7.54e-04     0.1
   10    -753.0311925873616019     1.59e-06  2.02e-04  1.52e-03  7.32e-04     0.1
   11    -753.0312010629820634    -8.48e-06  2.67e-04  3.03e-03  3.97e-04     0.1
   12    -753.0312000098043654     1.05e-06  1.38e-04  1.45e-03  4.78e-04     0.1
   13    -753.0312026062936184    -2.60e-06  5.14e-05  4.63e-04  6.83e-05     0.2
   14    -753.0312026415434730    -3.52e-08  2.90e-05  3.14e-04  6.90e-05     0.2
   15    -753.0312027244872297    -8.29e-08  3.72e-06  2.87e-05  1.03e-05     0.3
   16    -753.0312027249473203    -4.60e-10  1.44e-06  9.21e-06  5.53e-06     0.2
                 **** Energy Check signals convergence ****

               *****************************************************
               *                     SUCCESS                       *
               *           SCF CONVERGED AFTER  16 CYCLES          *
               *****************************************************

             **** ENERGY FILE WAS UPDATED (/cluster/projects/nn14654k/ylvaos/basis_set_n_funcs/functionals/gga_c_N12/PCl/inp/PCl_gga_c_N12_pc2.en.tmp) ****

----------------
TOTAL SCF ENERGY
----------------

Total Energy       :       -753.03120272535989 Eh          -20491.02077 eV

Components:
Nuclear Repulsion  :         66.88153653672681 Eh            1819.93913 eV
Electronic Energy  :       -819.91273926208669 Eh          -22310.95990 eV
One Electron Energy:      -1220.66938495544082 Eh          -33216.10264 eV
Two Electron Energy:        400.75664569335413 Eh           10905.14274 eV

Virial components:
Potential Energy   :      -1530.68616627852020 Eh          -41652.08814 eV
Kinetic Energy     :        777.65496355316031 Eh           21161.06737 eV
Virial Ratio       :          1.96833587904423

DFT components:
N(Alpha)           :       16.999992251174 electrons
N(Beta)            :       15.000000199675 electrons
N(Total)           :       31.999992450849 electrons
E(X)               :        0.000000000000 Eh       
E(C)               :       -2.023417700336 Eh       
E(XC)              :       -2.023417700336 Eh       

---------------
SCF CONVERGENCE
---------------

  Last Energy change         ...    4.6009e-10  Tolerance :   1.0000e-08
  Last MAX-Density change    ...    9.2109e-06  Tolerance :   1.0000e-07
  Last RMS-Density change    ...    1.4412e-06  Tolerance :   5.0000e-09
  Last DIIS Error            ...    1.7923e-03  Tolerance :   5.0000e-07
  Last Orbital Gradient      ...    5.5260e-06  Tolerance :   1.0000e-05
  Last Orbital Rotation      ...    8.2719e-06  Tolerance :   1.0000e-05


----------------------
UHF SPIN CONTAMINATION
----------------------

Warning: in a DFT calculation there is little theoretical justification to 
         calculate <S**2> as in Hartree-Fock theory. We will do it anyways
         but you should keep in mind that the values have only limited relevance

Expectation value of <S**2>     :     2.000648
Ideal value S*(S+1) for S=1.0   :     2.000000
Deviation                       :     0.000648

----------------
ORBITAL ENERGIES
----------------
                 SPIN UP ORBITALS
  NO   OCC          E(Eh)            E(eV) 
   0   1.0000     -95.261754     -2592.2041 
   1   1.0000     -71.584609     -1947.9162 
   2   1.0000      -7.940554      -216.0735 
   3   1.0000      -5.765385      -156.8841 
   4   1.0000      -5.760286      -156.7453 
   5   1.0000      -5.760286      -156.7453 
   6   1.0000      -5.216762      -141.9553 
   7   1.0000      -3.469094       -94.3989 
   8   1.0000      -3.463684       -94.2516 
   9   1.0000      -3.463684       -94.2516 
  10   1.0000      -0.521913       -14.2020 
  11   1.0000      -0.256161        -6.9705 
  12   1.0000      -0.109506        -2.9798 
  13   1.0000      -0.109506        -2.9798 
  14   1.0000      -0.090400        -2.4599 
  15   1.0000       0.048379         1.3165 
  16   1.0000       0.048379         1.3165 
  17   0.0000       0.132159         3.5962 
  18   0.0000       0.270988         7.3740 
  19   0.0000       0.282502         7.6873 
  20   0.0000       0.282502         7.6873 
  21   0.0000       0.351348         9.5607 
  22   0.0000       0.384417        10.4605 
  23   0.0000       0.384417        10.4605 
  24   0.0000       0.520675        14.1683 
  25   0.0000       0.544594        14.8192 
  26   0.0000       0.544594        14.8192 
  27   0.0000       0.632371        17.2077 

                 SPIN DOWN ORBITALS
  NO   OCC          E(Eh)            E(eV) 
   0   1.0000     -95.262170     -2592.2154 
   1   1.0000     -71.585555     -1947.9420 
   2   1.0000      -7.941879      -216.1095 
   3   1.0000      -5.766115      -156.9040 
   4   1.0000      -5.761985      -156.7916 
   5   1.0000      -5.761985      -156.7916 
   6   1.0000      -5.219428      -142.0278 
   7   1.0000      -3.471117       -94.4539 
   8   1.0000      -3.468380       -94.3794 
   9   1.0000      -3.468380       -94.3794 
  10   1.0000      -0.525328       -14.2949 
  11   1.0000      -0.266977        -7.2648 
  12   1.0000      -0.116214        -3.1624 
  13   1.0000      -0.116214        -3.1624 
  14   1.0000      -0.099748        -2.7143 
  15   0.0000       0.037387         1.0173 
  16   0.0000       0.037387         1.0173 
  17   0.0000       0.135853         3.6968 
  18   0.0000       0.277895         7.5619 
  19   0.0000       0.321521         8.7490 
  20   0.0000       0.321521         8.7490 
  21   0.0000       0.358411         9.7529 
  22   0.0000       0.401662        10.9298 
  23   0.0000       0.401662        10.9298 
  24   0.0000       0.492039        13.3891 
  25   0.0000       0.543205        14.7814 
*Only the first 10 virtual orbitals were printed.

                    ********************************
                    * MULLIKEN POPULATION ANALYSIS *
                    ********************************

--------------------------------------------
MULLIKEN ATOMIC CHARGES AND SPIN POPULATIONS
--------------------------------------------
   0 P :   -0.073008    1.623379
   1 Cl:    0.073008    0.376621
Sum of atomic charges         :   -0.0000000
Sum of atomic spin populations:    2.0000000

-----------------------------------------------------
MULLIKEN REDUCED ORBITAL CHARGES AND SPIN POPULATIONS
-----------------------------------------------------
CHARGE
  0 P s       :     5.970821  s :     5.970821
      pz      :     2.640707  p :     9.010240
      px      :     3.184766
      py      :     3.184766
      dz2     :     0.035838  d :     0.084435
      dxz     :     0.024299
      dyz     :     0.024299
      dx2y2   :     0.000000
      dxy     :     0.000000
      f0      :     0.002683  f :     0.007512
      f+1     :     0.002414
      f-1     :     0.002414
      f+2     :     0.000000
      f-2     :     0.000000
      f+3     :     0.000000
      f-3     :     0.000000

  1 Cls       :     5.898900  s :     5.898900
      pz      :     3.431386  p :    10.972445
      px      :     3.770530
      py      :     3.770530
      dz2     :     0.018628  d :     0.052790
      dxz     :     0.017081
      dyz     :     0.017081
      dx2y2   :     0.000000
      dxy     :     0.000000
      f0      :     0.001036  f :     0.002857
      f+1     :     0.000910
      f-1     :     0.000910
      f+2     :     0.000000
      f-2     :     0.000000
      f+3     :     0.000000
      f-3     :     0.000000


SPIN
  0 P s       :    -0.012070  s :    -0.012070
      pz      :     0.004003  p :     1.635691
      px      :     0.815844
      py      :     0.815844
      dz2     :    -0.000449  d :    -0.000260
      dxz     :     0.000095
      dyz     :     0.000095
      dx2y2   :    -0.000000
      dxy     :    -0.000000
      f0      :     0.000076  f :     0.000018
      f+1     :    -0.000029
      f-1     :    -0.000029
      f+2     :     0.000000
      f-2     :    -0.000000
      f+3     :     0.000000
      f-3     :     0.000000

  1 Cls       :     0.002525  s :     0.002525
      pz      :     0.005485  p :     0.357039
      px      :     0.175777
      py      :     0.175777
      dz2     :     0.000380  d :     0.016568
      dxz     :     0.008094
      dyz     :     0.008094
      dx2y2   :    -0.000000
      dxy     :    -0.000000
      f0      :     0.000051  f :     0.000489
      f+1     :     0.000219
      f-1     :     0.000219
      f+2     :    -0.000000
      f-2     :    -0.000000
      f+3     :    -0.000000
      f-3     :    -0.000000



                     *******************************
                     * LOEWDIN POPULATION ANALYSIS *
                     *******************************

-------------------------------------------
LOEWDIN ATOMIC CHARGES AND SPIN POPULATIONS
-------------------------------------------
   0 P :   -0.180788    1.558975
   1 Cl:    0.180788    0.441025

----------------------------------------------------
LOEWDIN REDUCED ORBITAL CHARGES AND SPIN POPULATIONS
----------------------------------------------------
CHARGE
  0 P s       :     5.768745  s :     5.768745
      pz      :     2.895938  p :     9.259007
      px      :     3.181535
      py      :     3.181535
      dz2     :     0.069574  d :     0.131378
      dxz     :     0.030902
      dyz     :     0.030902
      dx2y2   :     0.000000
      dxy     :     0.000000
      f0      :     0.011121  f :     0.021657
      f+1     :     0.005268
      f-1     :     0.005268
      f+2     :     0.000000
      f-2     :     0.000000
      f+3     :     0.000000
      f-3     :     0.000000

  1 Cls       :     5.714941  s :     5.714941
      pz      :     3.508350  p :    11.031206
      px      :     3.761428
      py      :     3.761428
      dz2     :     0.028569  d :     0.067211
      dxz     :     0.019321
      dyz     :     0.019321
      dx2y2   :     0.000000
      dxy     :     0.000000
      f0      :     0.002761  f :     0.005854
      f+1     :     0.001546
      f-1     :     0.001546
      f+2     :     0.000000
      f-2     :     0.000000
      f+3     :     0.000000
      f-3     :     0.000000


SPIN
  0 P s       :    -0.004999  s :    -0.004999
      pz      :     0.002228  p :     1.557679
      px      :     0.777726
      py      :     0.777726
      dz2     :    -0.000892  d :     0.004882
      dxz     :     0.002887
      dyz     :     0.002887
      dx2y2   :    -0.000000
      dxy     :    -0.000000
      f0      :     0.000104  f :     0.001412
      f+1     :     0.000654
      f-1     :     0.000654
      f+2     :    -0.000000
      f-2     :    -0.000000
      f+3     :     0.000000
      f-3     :     0.000000

  1 Cls       :     0.000441  s :     0.000441
      pz      :     0.002864  p :     0.415744
      px      :     0.206440
      py      :     0.206440
      dz2     :     0.000218  d :     0.023144
      dxz     :     0.011463
      dyz     :     0.011463
      dx2y2   :    -0.000000
      dxy     :    -0.000000
      f0      :     0.000035  f :     0.001697
      f+1     :     0.000831
      f-1     :     0.000831
      f+2     :    -0.000000
      f-2     :    -0.000000
      f+3     :    -0.000000
      f-3     :    -0.000000



                      *****************************
                      * MAYER POPULATION ANALYSIS *
                      *****************************

  NA   - Mulliken gross atomic population
  ZA   - Total nuclear charge
  QA   - Mulliken gross atomic charge
  VA   - Mayer's total valence
  BVA  - Mayer's bonded valence
  FA   - Mayer's free valence

  ATOM       NA         ZA         QA         VA         BVA        FA
  0 P     15.0730    15.0000    -0.0730     2.7450     1.4183     1.3267
  1 Cl    16.9270    17.0000     0.0730     1.4904     1.4183     0.0722

  Mayer bond orders larger than 0.100000
B(  0-P ,  1-Cl) :   1.4183 

-------
TIMINGS
-------

Total SCF time: 0 days 0 hours 0 min 3 sec 

Total time                  ....       3.302 sec
Sum of individual times     ....       3.113 sec  ( 94.3%)

SCF preparation             ....       0.215 sec  (  6.5%)
Fock matrix formation       ....       2.080 sec  ( 63.0%)
  Startup                   ....       0.022 sec  (  1.0% of F)
  Coulomb formation         ....       0.990 sec  ( 47.6% of F)
  XC integration            ....       0.635 sec  ( 30.5% of F)
    XC Preparation          ....       0.000 sec  (  0.0% of XC)
    Basis function eval.    ....       0.024 sec  (  3.8% of XC)
    Density eval.           ....       0.014 sec  (  2.2% of XC)
    XC-Functional eval.     ....       0.017 sec  (  2.7% of XC)
    XC-Potential eval.      ....       0.035 sec  (  5.4% of XC)
Diagonalization             ....       0.000 sec  (  0.0%)
Density matrix formation    ....       0.260 sec  (  7.9%)
Total Energy calculation    ....       0.032 sec  (  1.0%)
Population analysis         ....       0.016 sec  (  0.5%)
Orbital Transformation      ....       0.023 sec  (  0.7%)
Orbital Orthonormalization  ....       0.000 sec  (  0.0%)
DIIS solution               ....       0.272 sec  (  8.2%)
SOSCF solution              ....       0.215 sec  (  6.5%)
Finished LeanSCF after   3.4 sec

Maximum memory used throughout the entire LEANSCF-calculation: 18.7 MB


           ************************************************************
           *        Program running with 8 parallel MPI-processes     *
           *              working on a common directory               *
           ************************************************************

------------------------------------------------------------------------------
                         ORCA PROPERTY INTEGRAL CALCULATIONS
------------------------------------------------------------------------------

GBWName                                   ... /cluster/projects/nn14654k/ylvaos/basis_set_n_funcs/functionals/gga_c_N12/PCl/inp/PCl_gga_c_N12_pc2.gbw
Number of atoms                           ...      2
Number of basis functions                 ...     68
Max core memory                           ...   4096 MB

Dipole integrals                          ... YES
Quadrupole integrals                      ... YES
Linear momentum integrals                 ...  NO
Angular momentum integrals                ...  NO
Higher moments length integrals           ...  NO
Higher moments velocity integrals         ...  NO
Kinetic energy integrals                  ...  NO
GIAO right hand sides                     ...  NO
GIAO dipole derivative integrals          ...  NO
SOC integrals                             ...  NO
EPR diamagnetic integrals (GIAO)          ...  NO
EPR gauge integrals                       ...  NO
Field gradient integrals                  ...  NO (   0 nuclei)
Spin-dipole/Fermi contact integrals       ...  NO (   0 nuclei)
Contact density integrals                 ...  NO (   0 nuclei)
Nucleus-orbit integrals                   ...  NO (   0 nuclei)
Geometric perturbations                   ...  NO (   2 nuclei)

Choice of electric origin   ... Center of mass
Position of electric origin ... (  0.0000,  0.0000,  0.1285) 
Choice of magnetic origin   ... GIAO
Position of magnetic origin ... (  0.0000,  0.0000,  0.0000) 

Calculating integrals                     ... Electric Dipole (Length)     done (  0.0 sec)
Calculating integrals                     ... Electric Quadrupole (Length) done (  0.0 sec)

Property integrals calculated in   0.0 sec

Maximum memory used throughout the entire PROPINT-calculation: 6.6 MB
------------------------------------------------------------------------------
                           ORCA ORBITAL LOCALIZATION
------------------------------------------------------------------------------

Input orbitals are from                  ... /cluster/projects/nn14654k/ylvaos/basis_set_n_funcs/functionals/gga_c_N12/PCl/inp/PCl_gga_c_N12_pc2.gbw
Output orbitals are to                   ... /cluster/projects/nn14654k/ylvaos/basis_set_n_funcs/functionals/gga_c_N12/PCl/inp/PCl_gga_c_N12_pc2.loc
Max. number of iterations                ... 128
Localizations seeded randomly            ... on
Convergence tolerance                    ... 1.000e-06
Threshold for strong local MOs           ... 9.500e-01
Threshold for bond MOs                   ... 8.500e-01
Operator                                 ... 0
Orbital range for localization           ... 7 to 16
Localization criterion                   ... NEW-BOYS
Doing the dipole integrals               ... o.k.
Initial value of the localization sum :    36.188097
ITERATION   0 : L=   44.9264620447 DL=  8.74e+00 (AVERGE_DL)=    0.4406652764 
ITERATION   1 : L=   46.6640607303 DL=  1.74e+00 (AVERGE_DL)=    0.1965026822 
ITERATION   2 : L=   46.7521142850 DL=  8.81e-02 (AVERGE_DL)=    0.0442351179 
ITERATION   3 : L=   46.7532095299 DL=  1.10e-03 (AVERGE_DL)=    0.0049334345 
ITERATION   4 : L=   46.7532615452 DL=  5.20e-05 (AVERGE_DL)=    0.0010751260 
ITERATION   5 : L=   46.7532630928 DL=  1.55e-06 (AVERGE_DL)=    0.0001854485 
ITERATION   6 : L=   46.7532631530 DL=  6.01e-08 (AVERGE_DL)=    0.0000365569 
LOCALIZATION SUM CONVERGED


--------------------------------------------------------------------------------
                    LOCALIZED MOLECULAR ORBITAL COMPOSITIONS
--------------------------------------------------------------------------------

The Mulliken populations for each LMO on each atom are computed
The LMO`s will be ordered according to atom index and type
  (A) Strongly localized MO`s have populations of >=0.950 on one atom
  (B) Two center bond orbitals have populations of >=0.850 on two atoms
  (C) Other MO`s are considered to be `delocalized`

FOUND  -   9 strongly local MO`s
       -   1 two center bond MO`s
       -   0 significantly delocalized MO`s

Rather strongly localized orbitals:
MO  15:   1Cl -   1.012766
MO  14:   1Cl -   1.012766
MO  13:   1Cl -   1.012768
MO  12:   0P  -   1.000084
MO  11:   0P  -   1.036800
MO  10:   0P  -   1.036799
MO   9:   0P  -   1.036800
MO   8:   0P  -   1.000084
MO   7:   0P  -   1.000084
Bond-like localized orbitals:
MO  16:   1Cl -   0.727203  and   0P  -   0.272797
Localized MO's were stored in: /cluster/projects/nn14654k/ylvaos/basis_set_n_funcs/functionals/gga_c_N12/PCl/inp/PCl_gga_c_N12_pc2.loc
------------------------------------------------------------------------------
                           ORCA ORBITAL LOCALIZATION
------------------------------------------------------------------------------

Input orbitals are from                  ... /cluster/projects/nn14654k/ylvaos/basis_set_n_funcs/functionals/gga_c_N12/PCl/inp/PCl_gga_c_N12_pc2.loc
Output orbitals are to                   ... /cluster/projects/nn14654k/ylvaos/basis_set_n_funcs/functionals/gga_c_N12/PCl/inp/PCl_gga_c_N12_pc2.loc
Max. number of iterations                ... 128
Localizations seeded randomly            ... on
Convergence tolerance                    ... 1.000e-06
Threshold for strong local MOs           ... 9.500e-01
Threshold for bond MOs                   ... 8.500e-01
Operator                                 ... 1
Orbital range for localization           ... 7 to 14
Localization criterion                   ... NEW-BOYS
Doing the dipole integrals               ... o.k.
Initial value of the localization sum :    26.007164
ITERATION   0 : L=   28.2472504008 DL=  2.24e+00 (AVERGE_DL)=    0.2828481984 
ITERATION   1 : L=   28.9205569528 DL=  6.73e-01 (AVERGE_DL)=    0.1550698635 
ITERATION   2 : L=   29.2013217461 DL=  2.81e-01 (AVERGE_DL)=    0.1001364771 
ITERATION   3 : L=   29.2962191746 DL=  9.49e-02 (AVERGE_DL)=    0.0582167834 
ITERATION   4 : L=   29.3124688119 DL=  1.62e-02 (AVERGE_DL)=    0.0240903339 
ITERATION   5 : L=   29.3157449873 DL=  3.28e-03 (AVERGE_DL)=    0.0108169433 
ITERATION   6 : L=   29.3164081579 DL=  6.63e-04 (AVERGE_DL)=    0.0048666895 
ITERATION   7 : L=   29.3165411089 DL=  1.33e-04 (AVERGE_DL)=    0.0021790476 
ITERATION   8 : L=   29.3165663132 DL=  2.52e-05 (AVERGE_DL)=    0.0009487651 
ITERATION   9 : L=   29.3165707873 DL=  4.47e-06 (AVERGE_DL)=    0.0003997353 
ITERATION  10 : L=   29.3165715319 DL=  7.45e-07 (AVERGE_DL)=    0.0001630704 
LOCALIZATION SUM CONVERGED


--------------------------------------------------------------------------------
                    LOCALIZED MOLECULAR ORBITAL COMPOSITIONS
--------------------------------------------------------------------------------

The Mulliken populations for each LMO on each atom are computed
The LMO`s will be ordered according to atom index and type
  (A) Strongly localized MO`s have populations of >=0.950 on one atom
  (B) Two center bond orbitals have populations of >=0.850 on two atoms
  (C) Other MO`s are considered to be `delocalized`

FOUND  -   5 strongly local MO`s
       -   3 two center bond MO`s
       -   0 significantly delocalized MO`s

Rather strongly localized orbitals:
MO  11:   1Cl -   0.960553
MO  10:   0P  -   1.022485
MO   9:   0P  -   1.000579
MO   8:   0P  -   1.000579
MO   7:   0P  -   1.000580
Bond-like localized orbitals:
MO  14:   1Cl -   0.780633  and   0P  -   0.219367
MO  13:   1Cl -   0.780636  and   0P  -   0.219364
MO  12:   1Cl -   0.780596  and   0P  -   0.219404
Localized MO's were stored in: /cluster/projects/nn14654k/ylvaos/basis_set_n_funcs/functionals/gga_c_N12/PCl/inp/PCl_gga_c_N12_pc2.loc

-------------------------   --------------------
FINAL SINGLE POINT ENERGY      -753.031202725360
-------------------------   --------------------



           ************************************************************
           *        Program running with 8 parallel MPI-processes     *
           *              working on a common directory               *
           ************************************************************

------------------------------------------------------------------------------
                              ORCA PROPERTY CALCULATIONS
------------------------------------------------------------------------------

GBWName                                 ... /cluster/projects/nn14654k/ylvaos/basis_set_n_funcs/functionals/gga_c_N12/PCl/inp/PCl_gga_c_N12_pc2.gbw
Number of atoms                         ...      2
Number of basis functions               ...     68
Max core memory                         ...   4096 MB

Electric properties:
Dipole moment                           ... YES
Quadrupole moment                       ... YES
Static polarizability (Dipole/Dipole)   ...  NO
Static polarizability (Dipole/Quad.)    ...  NO
Static polarizability (Quad./Quad.)     ...  NO
Static polarizability (Velocity)        ...  NO
Static hyperpolarizability              ...  NO

Atomic electric properties:
Dipole moment                           ...  NO
Quadrupole moment                       ...  NO
Static polarizability                   ...  NO

Choice of electric origin               ... Center of mass
Position of electric origin             ...     0.000000     0.000000     0.128541

General magnetic properties:
Magnetizability                         ...  NO

EPR properties:
g-Tensor (aka g-matrix)                 ...  NO
Zero-Field splitting spin-orbit         ...  NO
Zero-field splitting spin-spin          ...  NO
Hyperfine couplings                     ...  NO (   0 nuclei)
Quadrupole couplings                    ...  NO (   0 nuclei)
Contact density                         ...  NO (   0 nuclei)

NMR properties:
Chemical shifts                         ...  NO (   0 nuclei)
Spin-rotation constants                 ...  NO (   0 nuclei)
Spin-spin couplings                     ...  NO (   0 nuclei,    0 pairs)

Choice of magnetic origin               ... GIAO
Position of magnetic origin             ...     0.000000     0.000000     0.000000

Properties with geometric perturbations:
SCF Hessian                             ...  NO
IR spectrum                             ...  NO
VCD spectrum                            ...  NO
X-ray spectroscopy properties:
SCF XES/XAS/RIXS spectra                ...  NO

SCF SOC stabilization energy            ...  NO
Diagonal Born-Oppenheimer correction    ...  NO

-------------
DIPOLE MOMENT
-------------

Method             : SCF
Type of density    : Electron Density
Multiplicity       :   3
Irrep              :   0
Energy             :  -753.0312027253598899 Eh
Basis              : AO
                                X                 Y                 Z
Electronic contribution:      0.000000000       0.000000000       0.945285795
Nuclear contribution   :      0.000000000       0.000000000      -0.300588162
                        -----------------------------------------
Total Dipole Moment    :      0.000000000       0.000000000       0.644697632
                        -----------------------------------------
Magnitude (a.u.)       :      0.644697632
Magnitude (Debye)      :      1.638691153



--------------------
Rotational spectrum 
--------------------
 
Rotational constants in cm-1:             0.000000             0.250508             0.250508 
Rotational constants in MHz :             0.000000          7510.026026          7510.026026 

Dipole components along the rotational axes: 
x,y,z [a.u.] :     0.644698     0.000000     0.000000 
x,y,z [Debye]:     1.638691     0.000000     0.000000 

 

Dipole moment calculation done in   0.0 sec 

-----------------
QUADRUPOLE MOMENT
-----------------

Method             : SCF
Type of density    : Electron Density
Multiplicity       :   3
Irrep              :   0
Energy             :  -753.0312027253598899 Eh
Basis              : AO

                XX              YY              ZZ              XY              XZ              YZ
  NUC        0.000000000     0.000000000   115.842698194     0.000000000     0.000000000     0.000000000
  EL       -26.052911651   -26.052911651  -141.146495686    -0.000000000     0.000000000    -0.000000000
  TOT      -26.052911651   -26.052911651   -25.303797492    -0.000000000     0.000000000    -0.000000000 (a.u.)
           -35.042057180   -35.042057180   -34.034473017    -0.000000000     0.000000000    -0.000000000 (Buckingham)

diagonalized tensor:
           -26.052911651   -26.052911650   -25.303797492 (a.u.)
           -35.042057180   -35.042057179   -34.034473017 (Buckingham)
            -1.007584164    -1.007584162     2.015168325 (traceless form in Buckingham)

            -0.527166759    -0.849761854     0.000000000
            -0.849761854     0.527166759    -0.000000000
            -0.000000000     0.000000000     1.000000000
        
Isotropic quadrupole :   -25.803206931

Quadrupole moment calculation done in   0.0 sec (  0.0 sec for integrals)

Maximum memory used throughout the entire PROP-calculation: 3.1 MB

--------------------------------
SUGGESTED CITATIONS FOR THIS RUN
--------------------------------

Below you find a list of papers that are relevant to this ORCA run
We neither can nor want to force you to cite these papers, but we appreciate if you do
You receive ORCA, which is the product of decades of hard work by many enthusiastic individuals, for free
The only thing we kindly ask in return is that you cite our papers,
We deeply appreciate it, if you show your appreciation for ORCA by not just citing the generic ORCA reference.

Please note that relegating all ORCA citations to the supporting information does *not* help us.
SI sections are not indexed - citations you put there will not count into any citation statistics
But we need these citations in order to attract the funding resources that allow us to do what we are doing

Therefore, if you are a happy ORCA user, please consider citing a few of the papers listed below in the main body of your paper

In addition to the list printed below, the program has created the file /cluster/projects/nn14654k/ylvaos/basis_set_n_funcs/functionals/gga_c_N12/PCl/inp/PCl_gga_c_N12_pc2.bibtex that contains the list in bibtex format
You can import this file easily into all common literature databanks and citation aid programs

It goes without saying that in many instances, there are alternative algorithms to achieve similar
results as the ones you have gotten from ORCA. It is, of course, also the case that in some instances
ORCA just re-implements algorithms worked out by others. We are fully aware of that and we are also
fully appreciative of our colleagues work. Hence this citation list should not be read as indicating
that the listed papers, which are focused on our own work, are the only ones worth citing. It simply
meant to make it easier for users to cite ORCA specific papers. It is not a substitute for doing your
own literature research and citing the relevant literature in a scientifically appropriate manner.

List of essential papers. We consider these as the minimum necessary citations

  1. Neese, F.
     Software update: the ORCA program system, version 6.0
     WIRES Comput. Molec. Sci. 2025 15(1), e70019
     doi.org/10.1002/wcms.70019

List of papers to cite with high priority. The work reported in these papers was absolutely
necessary for this run to complete.
Our perspective: the developers of density functionals and basis sets usually get cited in chemistry papers
Good! But without the algorithms to do something with them, the functionals or basis sets would not do anything.
Hence, in our opinion, the algorithm design and method developments papers are equally worthy of getting cited

  1. Lehtola, S.; Steigemann, C.; Oliveira, M.; Marques, M.
     Recent developments in Libxc - A comprehensive library of functionals for density functional theory
     Software X 2018 7 , 
     doi.org/10.1016/j.softx.2017.11.002
  2. Neese, F.
     The SHARK Integral Generation and Digestion System
     J. Comp. Chem. 2022 44(3), 381
     doi.org/10.1002/jcc.26942

List of suggested additional citations. These are papers that are important in the 'surrounding' of 
of this run, or papers that preceded the highly important papers. If you like your results we are grateful for a citation.

  1. Neese, F.
     The ORCA program system
     WIRES Comput. Molec. Sci. 2012 2(1), 73-78
     doi.org/10.1002/wcms.81
  2. Neese, F.
     Software update: the ORCA program system, version 4.0
     WIRES Comput. Molec. Sci. 2018 8(1), 1-6
     doi.org/10.1002/wcms.1327
  3. Neese, F.; Wennmohs, F.; Becker, U.; Riplinger, C.
     The ORCA quantum chemistry program package
     J. Chem. Phys. 2020 152(22), 224108
     doi.org/10.1063/5.0004608
  4. Neese, F.
     Software update: The ORCA program system—Version 5.0
     WIRES Comput. Molec. Sci. 2022 12(1), e1606
     doi.org/10.1002/wcms.1606

List of optional additional citations

  1. Neese, F.
     Approximate second-order SCF convergence for spin unrestricted wavefunctions
     Chem. Phys. Lett. 2000 325(1-3), 93-98
     doi.org/10.1016/s0009-2614(00)00662-x

Timings for individual modules:

Sum of individual times          ...        4.770 sec (=   0.080 min)
Startup calculation              ...        0.397 sec (=   0.007 min)   8.3 %
SCF iterations                   ...        3.924 sec (=   0.065 min)  82.3 %
Property integrals               ...        0.224 sec (=   0.004 min)   4.7 %
Property calculations            ...        0.218 sec (=   0.004 min)   4.6 %
Orbital localization             ...        0.007 sec (=   0.000 min)   0.1 %
                             ****ORCA TERMINATED NORMALLY****
TOTAL RUN TIME: 0 days 0 hours 0 minutes 5 seconds 735 msec
