
                                 *****************
                                 * O   R   C   A *
                                 *****************

                                            #,                                       
                                            ###                                      
                                            ####                                     
                                            #####                                    
                                            ######                                   
                                           ########,                                 
                                     ,,################,,,,,                         
                               ,,#################################,,                 
                          ,,##########################################,,             
                       ,#########################################, ''#####,          
                    ,#############################################,,   '####,        
                  ,##################################################,,,,####,       
                ,###########''''           ''''###############################       
              ,#####''   ,,,,##########,,,,          '''####'''          '####       
            ,##' ,,,,###########################,,,                        '##       
           ' ,,###''''                  '''############,,,                           
         ,,##''                                '''############,,,,        ,,,,,,###''
      ,#''                                            '''#######################'''  
     '                                                          ''''####''''         
             ,#######,   #######,   ,#######,      ##                                
            ,#'     '#,  ##    ##  ,#'     '#,    #''#        ,####,    ,#,          
            ##       ##  ##   ,#'  ##            #'  '#       #'       ,# #          
            ##       ##  #######   ##           ,######,      #####,      #          
            '#,     ,#'  ##    ##  '#,     ,#' ,#      #,     #,   #      #          
             '#######'   ##     ##  '#######'  #'      '#     '####' #    #          



                #########################################################
                #                        -***-                          #
                #          Department of theory and spectroscopy        #
                #                                                       #
                #                      Frank Neese                      #
                #                                                       #
                #     Directorship, Architecture, Infrastructure        #
                #                    SHARK, DRIVERS                     #
                #        Core code/Algorithms in most modules           #
                #                                                       #
                #        Max Planck Institute fuer Kohlenforschung      #
                #                Kaiser Wilhelm Platz 1                 #
                #                 D-45470 Muelheim/Ruhr                 #
                #                      Germany                          #
                #                                                       #
                #                  All rights reserved                  #
                #                        -***-                          #
                #########################################################


                         Program Version 6.1.1  -  RELEASE   -
                                (GIT: $487d211c$)
                          ($2025-11-21 10:33:24 +0100$)


 With contributions from (in alphabetic order):
[Max-Planck-Institut fuer Kohlenforschung]                               
  Daniel Aravena         : Magnetic Suceptibility                        
  Michael Atanasov       : Ab Initio Ligand Field Theory (pilot matlab implementation)
  Alexander A. Auer      : GIAO ZORA, VPT2 properties, NMR spectrum      
  Ute Becker             : All parallelization in ORCA, NUMFREQ, NUMCALC 
  Giovanni Bistoni       : ED, misc. LED, open-shell LED, HFLD           
  Dmytro Bykov           : pre 5.0 version of the SCF Hessian            
  Marcos Casanova-Páez   : Triplet and SCS-CIS(D). UHF-(DLPNO)-IP/EA/STEOM-CCSD. UHF-CVS-IP/STEOM-CCSD   
  Vijay G. Chilkuri      : MRCI spin determinant printing, contributions to CSF-ICE 
  Pauline Colinet        : FMM embedding                                 
  Dipayan Datta          : RHF DLPNO-CCSD density                        
  Achintya Kumar Dutta   : EOM-CC, STEOM-CC                              
  Nicolas Foglia         : Exact transition moments, OPA infrastructure, MCD improvements    
  Dmitry Ganyushin       : Spin-Orbit,Spin-Spin,Magnetic field MRCI      
  Miquel Garcia-Rates    : C-PCM and meta-GGA Hessian, CCSD/C-PCM, Gaussian charge scheme 
  Tiago L. C. Gouveia    : GS-ROHF, GS-ROCIS                             
  Yang Guo               : DLPNO-NEVPT2, F12-NEVPT2, CIM, IAO-localization        
  Andreas Hansen         : Spin unrestricted coupled pair/coupled cluster methods 
  Ingolf Harden          : AUTO-CI MPn and infrastructure                
  Benjamin Helmich-Paris : MC-RPA, TRAH-(SCF,CASSCF), AVAS, COSX integrals, SCF dyn. polar., MC-PDFT, srDFT 
  Lee Huntington         : MR-EOM, pCC                                   
  Robert Izsak           : Overlap fitted RIJCOSX, COSX-SCS-MP3, EOM     
  Riya Kayal             : Wick's Theorem for AUTO-CI, AUTO-CI UHF-CCSDT 
  Emily Kempfer          : AUTO-CI RHF CISDT and CCSDT, approximate NEVPT4
  Christian Kollmar      : KDIIS, OOCD, Brueckner-CCSD(T), CCSD density, CASPT2, CASPT2-K, improved NEVPT2 
  Axel Koslowski         : Symmetry handling                             
  Simone Kossmann        : meta-GGA functionals, TD-DFT gradient, OOMP2, (MP2 Hessian; deprecated post 5.0) 
  Lucas Lang             : DCDCAS, Hyperfine gauge corrections, ICE-SOC+SSC
  Marvin Lechner         : AUTO-CI (C++ implementation), FIC-MRCC        
  Spencer Leger          : CASSCF response                               
  Dagmar Lenk            : GEPOL surface, SMD, ORCA-2-JSON               
  Dimitrios Liakos       : Extrapolation schemes; Compound Job, Property file
  Dimitrios Manganas     : Further ROCIS development; embedding schemes. LFT, Crystal Embedding 
  Dimitrios Pantazis     : SARC Basis sets                               
  Anastasios Papadopoulos: AUTO-CI, single reference methods and gradients 
  Taras Petrenko         : pre 6.0 DFT Hessian and TD-DFT gradient,  ECA, NRVS 
  Petra Pikulova         : Analytic Raman intensities                    
  Peter Pinski           : DLPNO-MP2, DLPNO-MP2 Gradient                 
  Shashank Vittal Rao    : ES-AILFT, MagRelax                            
  Christoph Reimann      : Effective Core Potentials                     
  Marius Retegan         : Local ZFS, SOC                                
  Christoph Riplinger    : Optimizer, TS searches, QM/MM, DLPNO-CCSD(T), (RO)-DLPNO pert. Triples 
  Michael Roemelt        : Original ROCIS implementation, recursive CI coupling coefficients
  Masaaki Saitow         : Open-shell DLPNO-CCSD energy and density      
  Barbara Sandhoefer     : DKH picture change effects                    
  Yorick L. A. Schmerwitz: GMF and freeze-and-release deltaSCF, NEB S-IDPP initial path                    
  Kantharuban Sivalingam : CASSCF convergence/infrastructure, NEVPT2, NEVPT3, NEVPT4(SD), FIC-MRCI and CEPA variants
  Bernardo de Souza      : ESD, SOC TD-DFT                               
  Georgi L. Stoychev     : AutoAux, RI-MP2 NMR, DLPNO-MP2 response, X2C  
  Van Anh Tran           : RI-MP2 g-tensors                              
  Willem Van den Heuvel  : Paramagnetic NMR                              
  Zikuan Wang            : NOTCH, Electric field optimization            
  Frank Wennmohs         : Technical directorship and infrastructure     
  Hang Xu                : AUTO-CI-Response properties                   
                                                                         
[FACCTs GmbH]                                                            
  Markus Bursch, Nicolas Foglia, Miquel Garcia-Rates, Ingolf Harden, Hagen Neugebauer, Anastasios Papadopoulos, 
  Christoph Riplinger, Bernardo de Souza, Georgi L. Stoychev                                                    
                                                                 
  APM, various basis sets, CI-OPT, improved COSX, DLPNO-Multilevel,           
  DOCKER, DRACO, updates on ESD, Fragmentator, GOAT, IRC, LR-CPCM, L-BFGS, MBIS, meta-GGA TD-DFT gradient, ML-optimized integration grids, 
  MM, NACMEs, nearIR, NEB, NEB-TS, NL-DFT gradient (VV10), 2- and 3-layer-ONIOM, interface openCOSMO-RS, QMMM,   
  Crystal-QMMM, RESP, rigid body optimization, SF, symmetry and pop. for TD-DFT, various functionals, SOLVATOR                                   
                                                                         
[Other institutions]                                                     
  V. Asgeirsson          : NEB                                           
  Christoph Bannwarth    : sTDA-DFT, sTD-DFT, PBEh-3c, B97-3c, D3        
  Giovanni Bistoni       : ETS/NOCV, ADLD/ADEX, COVALED                  
  Martin Brehm           : Molecular dynamics                            
  Ronald Cardenas        : ETS/NOCV                                      
  Martina Colucci        : COVALED                                       
  Sebastian Ehlert       : rSCAN, r2SCAN, r2SCAN-3c, D4, dhf basis sets  
  Marvin Friede          : D4 for Fr, Ra, Ac-Lr                          
  Lars Goerigk           : TD-DFT with DH, B97 family of functionals     
  Stefan Grimme          : VdW corrections, initial TS optimization, DFT functionals, gCP, sTDA/sTD-DF 
  Waldemar Hujo          : DFT-NL                                        
  H. Jonsson             : NEB                                           
  Holger Kruse           : gCP                                           
  Marcel Mueller         : wB97X-3c, vDZP basis set                      
  Hagen Neugebauer       : wr2SCAN, Native XTB                           
  Gianluca Regni         : ADLD/ADEX                                     
  Tobias Risthaus        : pre 6.0 range-separated hybrid DFT and stability analysis
  Lukas Wittmann         : regularized MP2, r2SCAN double-hybrids, wr2SCAN        
                                                                         
We gratefully acknowledge several colleagues who have allowed us to      
interface, adapt or use parts of their codes:                            
  Ed Valeev, F. Pavosevic, A. Kumar             : LibInt (2-el integral package), F12 methods 
  Garnet Chan, S. Sharma, J. Yang, R. Olivares  : DMRG                   
  Ulf Ekstrom                                   : XCFun DFT Library      
  Mihaly Kallay                                 : mrcc  (arbitrary order and MRCC methods)
  Frank Weinhold                                : gennbo (NPA and NBO analysis)           
  Simon Mueller                                 : openCOSMO-RS                            
  Christopher J. Cramer and Donald G. Truhlar   : smd solvation model                     
  S Lehtola, MJT Oliveira, MAL Marques          : LibXC Library                           
  Liviu Ungur et al                             : ANISO software                          


 Your calculation uses the libint2 library for the computation of 2-el integrals
 For citations please refer to: http://libint.valeyev.net

 Your ORCA version has been built with support for libXC version: 7.0.0
 For citations please refer to: https://libxc.gitlab.io

 This ORCA versions uses:
   CBLAS   interface :  Fast vector & matrix operations
   LAPACKE interface :  Fast linear algebra routines
   SCALAPACK package :  Parallel linear algebra routines
   Shared memory     :  Shared parallel matrices
   BLAS/LAPACK       :  OpenBLAS 0.3.29  USE64BITINT DYNAMIC_ARCH NO_AFFINITY Cooperlake SINGLE_THREADED
        Core in use  :  Cooperlake
   Copyright (c) 2011-2014, The OpenBLAS Project


  ***********************************
  * Starting time: Wed May 20 12:38:34 2026
  * Host name:     c1-41
  * Process ID:    4104520
  * Working dir.:  /cluster/projects/nn14654k/ylvaos/basis_set_n_funcs/functionals/gga_c_N12/PO2/out
  ***********************************

Using LibXC functional ID  80 : Minnesota N12 correlation functional
[ 1]  R. Peverati and D. G. Truhlar.,  J. Chem. Theory Comput. 8, 2310 (2012)
Using LibXC functional ID  80 : Minnesota N12 correlation functional
[ 1]  R. Peverati and D. G. Truhlar.,  J. Chem. Theory Comput. 8, 2310 (2012)
Your calculation utilizes LibXC
by S. Lehtola, C. Steigemann, M. J. T. Oliveira & M. A. L. Marques
Please cite in your paper:
Lehtola, S.; Steigemann, C.; Oliveira, M.J.T.; Marques, M. A. L. Software X, 7, (2018), 1.
   

================================================================================

----- Orbital basis set information -----
Your calculation utilizes the basis: pcseg-2
   F. Jensen, J. Chem. Theory Comput. 10, 1074 (2014).

================================================================================
                                        WARNINGS
                       Please study these warnings very carefully!
================================================================================


WARNING: your system is open-shell and RHF/RKS was chosen
  ===> : WILL SWITCH to UHF/UKS


================================================================================
                                       INPUT FILE
================================================================================
NAME = /cluster/projects/nn14654k/ylvaos/basis_set_n_funcs/functionals/gga_c_N12/PO2/inp/PO2_gga_c_N12_pcseg2.inp
|  1> ! dft pcseg-2 TightSCF
|  2> %pal nprocs 8 end
|  3> 
|  4> %loc
|  5>   LocMet NewBoys
|  6>   Occ true
|  7> end
|  8> 
|  9> %method
| 10>   exchange None
| 11>   correlation gga_c_N12
| 12> end
| 13> 
| 14> %elprop
| 15>   Dipole true
| 16>   Quadrupole true
| 17> end
| 18> 
| 19> * xyz 0 2
| 20> P    0.000000000000   0.000000000000   0.287900000000
| 21> O    0.000000000000   1.356300000000  -0.269900000000
| 22> O    0.000000000000  -1.356300000000  -0.269900000000
| 23> *
| 24> 
| 25> 
| 26>                          ****END OF INPUT****
================================================================================

                       ****************************
                       * Single Point Calculation *
                       ****************************

---------------------------------
CARTESIAN COORDINATES (ANGSTROEM)
---------------------------------
  P      0.000000    0.000000    0.287900
  O      0.000000    1.356300   -0.269900
  O      0.000000   -1.356300   -0.269900

----------------------------
CARTESIAN COORDINATES (A.U.)
----------------------------
  NO LB      ZA    FRAG     MASS         X           Y           Z
   0 P    15.0000    0    30.974    0.000000    0.000000    0.544052
   1 O     8.0000    0    15.999    0.000000    2.563036   -0.510037
   2 O     8.0000    0    15.999    0.000000   -2.563036   -0.510037

--------------------------------
INTERNAL COORDINATES (ANGSTROEM)
--------------------------------
 P      0   0   0     0.000000000000     0.00000000     0.00000000
 O      1   0   0     1.466523279733     0.00000000     0.00000000
 O      1   2   0     1.466523279733   135.28860674     0.00000000

---------------------------
INTERNAL COORDINATES (A.U.)
---------------------------
 P      0   0   0     0.000000000000     0.00000000     0.00000000
 O      1   0   0     2.771327367716     0.00000000     0.00000000
 O      1   2   0     2.771327367716   135.28860674     0.00000000

---------------------
BASIS SET INFORMATION
---------------------
There are 2 groups of distinct atoms

 Group   1 Type P   : 15s11p2d1f contracted to 5s4p2d1f pattern {83211/7211/11/1}
 Group   2 Type O   : 11s6p2d1f contracted to 4s3p2d1f pattern {7211/411/11/1}

Atom   0P    basis set group =>   1
Atom   1O    basis set group =>   2
Atom   2O    basis set group =>   2


           ************************************************************
           *        Program running with 8 parallel MPI-processes     *
           *              working on a common directory               *
           ************************************************************
------------------------------------------------------------------------------
                             ORCA STARTUP CALCULATIONS
------------------------------------------------------------------------------
------------------------------------------------------------------------------
                   ___                                                        
                  /   \      - P O W E R E D   B Y -                         
                 /     \                                                     
                 |  |  |   _    _      __       _____    __    __             
                 |  |  |  | |  | |    /  \     |  _  \  |  |  /  |          
                  \  \/   | |  | |   /    \    | | | |  |  | /  /          
                 / \  \   | |__| |  /  /\  \   | |_| |  |  |/  /          
                |  |  |   |  __  | /  /__\  \  |    /   |      \           
                |  |  |   | |  | | |   __   |  |    \   |  |\   \          
                \     /   | |  | | |  |  |  |  | |\  \  |  | \   \       
                 \___/    |_|  |_| |__|  |__|  |_| \__\ |__|  \__/        
                                                                              
                      - O R C A' S   B I G   F R I E N D -                    
                                      &                                       
                       - I N T E G R A L  F E E D E R -                       
                                                                              
 v1 FN, 2020, v2 2021, v3 2022-2024                                           
------------------------------------------------------------------------------


----------------------
SHARK INTEGRAL PACKAGE
----------------------

Number of atoms                             ...      3
Number of basis functions                   ...     94
Number of shells                            ...     32
Maximum angular momentum                    ...      3
Integral batch strategy                     ... SHARK/LIBINT Hybrid
RI-J (if used) integral strategy            ... SPLIT-RIJ (Revised 2003 algorithm where possible)
Printlevel                                  ...      1
Contraction scheme used                     ... SEGMENTED contraction
Prescreening option                         ... SCHWARTZ
   Thresh                                   ... 2.500e-11
   Tcut                                     ... 2.500e-12
   Tpresel                                  ... 2.500e-12 
Coulomb Range Separation                    ... NOT USED
Exchange Range Separation                   ... NOT USED
Multipole approximations                    ... NOT USED
Finite Nucleus Model                        ... NOT USED
CABS basis                                  ... NOT available
Auxiliary Coulomb fitting basis             ... NOT available
Auxiliary J/K fitting basis                 ... NOT available
Auxiliary Correlation fitting basis         ... NOT available
Auxiliary 'external' fitting basis          ... NOT available

Checking pre-screening integrals            ... done (  0.0 sec) Dimension = 32
   => SHARK Basis and OBASIS are compatible. Storing Pre-screening
Shell pair information
Shell pair cut-off parameter TPreSel        ...   2.5e-12
Total number of shell pairs                 ...       528
Shell pairs after pre-screening             ...       521
Total number of primitive shell pairs       ...      2525
Primitive shell pairs kept                  ...      2014
          la=0 lb=0:     88 shell pairs
          la=1 lb=0:    128 shell pairs
          la=1 lb=1:     55 shell pairs
          la=2 lb=0:     76 shell pairs
          la=2 lb=1:     60 shell pairs
          la=2 lb=2:     21 shell pairs
          la=3 lb=0:     39 shell pairs
          la=3 lb=1:     30 shell pairs
          la=3 lb=2:     18 shell pairs
          la=3 lb=3:      6 shell pairs

Checking whether 4 symmetric matrices of dimension 94 fit in memory
:Max Core in MB      =   4096.00
 MB in use           =      2.67
 MB left             =   4093.33
 MB needed           =      0.14
 Data fit in memory  = YES
Calculating Nuclear repulsion               ... done (  0.0 sec) ENN=     99.086296046297 Eh

Diagonalization of the overlap matrix:
Smallest eigenvalue                        ... 5.487e-03
Time for diagonalization                   ...    0.001 sec
Threshold for overlap eigenvalues          ... 1.000e-07
Number of eigenvalues below threshold      ... 0
Time for construction of square roots      ...    0.006 sec
Total time needed                          ...    0.016 sec

-------------------
DFT GRID GENERATION
-------------------

General Integration Accuracy     IntAcc      ... 4.388
Radial Grid Type                 RadialGrid  ... OptM3 with GC (2021)
Angular Grid (max. ang.)         AngularGrid ... 4 (Lebedev-302)
Angular grid pruning method      GridPruning ... 4 (adaptive)
Weight generation scheme         WeightScheme... mBecke (2022)
Basis function cutoff            BFCut       ... 1.0000e-11
Integration weight cutoff        WCut        ... 1.0000e-14
Partially contracted basis set               ... off
Rotationally invariant grid construction     ... off
Angular grids for H and He will be reduced by one unit
Diffuse basis detected: some atoms will have their outermost
                        angular grid increased by 1.

Total number of grid points                  ...    20254
Total number of batches                      ...      318
Average number of points per batch           ...       63
Average number of grid points per atom       ...     6751
Grids setup in   0.1 sec
Initializing property integral containers    ... done (  0.0 sec)

SHARK setup successfully completed in   0.2 seconds

Maximum memory used throughout the entire STARTUP-calculation: 16.0 MB


           ************************************************************
           *        Program running with 8 parallel MPI-processes     *
           *              working on a common directory               *
           ************************************************************
-------------------------------------------------------------------------------
                                 ORCA GUESS
                   Start orbitals & Density for SCF / CASSCF
-------------------------------------------------------------------------------

------------
SCF SETTINGS
------------
Hamiltonian:
 Density Functional     Method          .... DFT(GTOs)
 Exchange Functional    Exchange        .... no Exchange
  Functional kind                       .... Correlation
  Functional name                       .... Minnesota N12 correlation functional
  Functional family                     .... GGA
  Functional refs                              
    [ 0] R. Peverati and D. G. Truhlar.,  J. Chem. Theory Comput. 8, 2310 (2012), doi: 10.1021/ct3002656
  Functional external parameters        .... 10
    Parameter  0 _css0      =  1.000000e+00 : u^0 coefficient for same-spin correlation
    Parameter  1 _css1      = -5.531700e+00 : u^1 coefficient for same-spin correlation
    Parameter  2 _css2      =  3.079580e+01 : u^2 coefficient for same-spin correlation
    Parameter  3 _css3      = -5.641960e+01 : u^3 coefficient for same-spin correlation
    Parameter  4 _css4      =  3.212500e+01 : u^4 coefficient for same-spin correlation
    Parameter  5 _cos0      =  1.000000e+00 : u^0 coefficient for opposite-spin correlation
    Parameter  6 _cos1      =  3.245110e+00 : u^1 coefficient for opposite-spin correlation
    Parameter  7 _cos2      = -2.528930e+01 : u^2 coefficient for opposite-spin correlation
    Parameter  8 _cos3      =  1.444070e+01 : u^3 coefficient for opposite-spin correlation
    Parameter  9 _cos4      =  1.968700e+01 : u^4 coefficient for opposite-spin correlation
 Gradients option       PostSCFGGA      .... off


General Settings:
 Integral files         IntName         .... /cluster/projects/nn14654k/ylvaos/basis_set_n_funcs/functionals/gga_c_N12/PO2/inp/PO2_gga_c_N12_pcseg2
 Hartree-Fock type      HFTyp           .... UHF
 Total Charge           Charge          ....    0
 Multiplicity           Mult            ....    2
 Number of Electrons    NEL             ....   31
 Basis Dimension        Dim             ....   94
 Nuclear Repulsion      ENuc            ....     99.0862960463 Eh

Convergence Acceleration:
 AO-DIIS                CNVDIIS         .... on
   Start iteration      DIISMaxIt       ....    12
   Startup error        DIISStart       ....  0.200000
   # of expansion vecs  DIISMaxEq       ....     5
   Bias factor          DIISBfac        ....   1.050
   Max. coefficient     DIISMaxC        ....  10.000
 MO-DIIS                CNVKDIIS        .... off
 Trust-Rad. Augm. Hess. CNVTRAH         .... auto
   Auto Start mean grad. ratio tolernc. ....  1.125000
   Auto Start start iteration           ....    50
   Auto Start num. interpolation iter.  ....    10
   Max. Number of Micro iterations      ....    24
   Max. Number of Macro iterations      .... Maxiter - #DIIS iter
   Number of Davidson start vectors     ....     2
   Converg. threshold    (grad. norm)   ....   1.000e-05
   Grad. Scal. Fac. for Micro threshold ....   0.100
   Minimum threshold for Micro iter.    ....   1.000e-02
   NR start threshold (gradient norm)   ....   1.000e-04
   Initial trust radius                 ....   0.400
   Minimum AH scaling param. (alpha)    ....   1.000
   Maximum AH scaling param. (alpha)    .... 1000.000
   Quad. conv. algorithm                .... NR
   White noise on init. David. guess    .... on
   Maximum white noise                  ....   0.010
   Pseudo random numbers                .... off
   Inactive MOs                         .... canonical
   Orbital update algorithm             .... Taylor
   Preconditioner                       .... Diag
   Full preconditioner red. dimension   ....   250
 SOSCF                 CNVSOSCF           .... on
   Start iteration     SOSCFMaxIt         ....   150
   Startup grad/error  SOSCFStart         ....  0.003300
   Hessian update      SOSCFHessUp        .... L-BFGS
   Autom. constraints  SOSCFAutoConstrain .... off
 Level Shifting         CNVShift        .... on
   Level shift para.    LevelShift      ....    0.2500
   Turn off err/grad.   ShiftErr        ....    0.0010
 Zerner damping         CNVZerner       .... off
 Static damping         CNVDamp         .... on
   Fraction old density DampFac         ....    0.7000
   Max. Damping (<1)    DampMax         ....    0.9800
   Min. Damping (>=0)   DampMin         ....    0.0000
   Turn off err/grad.   DampErr         ....    0.1000

SCF Procedure:
 Maximum # iterations   MaxIter         ....   125
 SCF integral mode      SCFMode         .... Direct
   Integral package                     .... SHARK and LIBINT hybrid scheme
 Reset frequency        DirectResetFreq ....    20
 Integral Threshold     Thresh          ....  2.500e-11 Eh
 Primitive CutOff       TCut            ....  2.500e-12 Eh

Convergence Tolerance:
 Convergence Check Mode ConvCheckMode   .... Total+1el-Energy
 Convergence forced     ConvForced      .... 0
 Energy Change          TolE            ....  1.000e-08 Eh
 1-El. energy change                    ....  1.000e-05 Eh
 Orbital Gradient       TolG            ....  1.000e-05
 Orbital Rotation angle TolX            ....  1.000e-05
 DIIS Error             TolErr          ....  5.000e-07

------------------------------
INITIAL GUESS: MODEL POTENTIAL
------------------------------
Loading Hartree-Fock densities                     ... done
Calculating cut-offs                               ... done
Initializing the effective Hamiltonian             ... done
Setting up the integral package (SHARK)            ... done
Starting the Coulomb interaction                   ... done (   0.0 sec)
Making the grid                                    ... done (   0.0 sec)
Mapping shells                                     ... done
Starting the XC term evaluation                    ... done (   0.0 sec)
  promolecular density results
     # of electrons  =     31.000270344
     EX              =      0.000000000
     EC              =     -1.877191769
     EX+EC           =     -1.877191769
Transforming the Hamiltonian                       ... done (   0.0 sec)
Diagonalizing the Hamiltonian                      ... done (   0.0 sec)
Back transforming the eigenvectors                 ... done (   0.0 sec)
Now organizing SCF variables                       ... done
                      ------------------
                      INITIAL GUESS DONE (   0.2 sec)
                      ------------------
             **** ENERGY FILE WAS UPDATED (/cluster/projects/nn14654k/ylvaos/basis_set_n_funcs/functionals/gga_c_N12/PO2/inp/PO2_gga_c_N12_pcseg2.en.tmp) ****
Finished Guess after   0.3 sec
Maximum memory used throughout the entire GUESS-calculation: 6.5 MB


           ************************************************************
           *        Program running with 8 parallel MPI-processes     *
           *              working on a common directory               *
           ************************************************************

-------------------------------------------------------------------------------------------
                                      ORCA LEAN-SCF
                              memory conserving SCF solver
-------------------------------------------------------------------------------------------

----------------------------------------D-I-I-S--------------------------------------------
Iteration    Energy (Eh)           Delta-E    RMSDP     MaxDP     DIISErr   Damp  Time(sec)
-------------------------------------------------------------------------------------------
               ***  Starting incremental Fock matrix formation  ***
    1    -452.3245728070148175     0.00e+00  6.15e-02  1.40e+00  4.25e-01  0.700   0.4
Warning: op=0 Small HOMO/LUMO gap (   0.077) - skipping pre-diagonalization
         Will do a full diagonalization
    2    -453.3065850317087211    -9.82e-01  4.37e-02  1.02e+00  1.43e-01  0.700   0.3
                               ***Turning on AO-DIIS***
    3    -453.5950410368552070    -2.88e-01  2.50e-02  5.62e-01  6.74e-02  0.700   0.3
    4    -453.7646290238129154    -1.70e-01  4.29e-02  8.45e-01  4.45e-02  0.000   0.3
    5    -454.1518208421185250    -3.87e-01  1.05e-02  2.67e-01  3.33e-02  0.000   0.2
    6    -454.1677777316888864    -1.60e-02  4.91e-03  1.19e-01  1.39e-02  0.000   0.3
                              *** Initializing SOSCF ***
---------------------------------------S-O-S-C-F--------------------------------------
Iteration    Energy (Eh)           Delta-E    RMSDP     MaxDP     MaxGrad    Time(sec)
--------------------------------------------------------------------------------------
    7    -454.1704364952647097    -2.66e-03  1.15e-03  2.04e-02  1.86e-03     0.4
               *** Restarting incremental Fock matrix formation ***
    8    -454.1705905631786777    -1.54e-04  9.45e-04  1.93e-02  1.40e-03     0.3
    9    -454.1705961688172124    -5.61e-06  3.26e-04  2.38e-03  1.79e-03     0.3
   10    -454.1706135433052509    -1.74e-05  4.77e-04  1.05e-02  8.69e-04     0.3
   11    -454.1706211901063739    -7.65e-06  2.17e-04  5.32e-03  6.07e-04     0.5
   12    -454.1706252700767550    -4.08e-06  5.24e-05  4.23e-04  1.86e-04     0.4
   13    -454.1706257214145239    -4.51e-07  1.82e-05  2.51e-04  4.30e-05     0.4
   14    -454.1706257657489800    -4.43e-08  4.03e-06  8.29e-05  1.47e-05     0.4
   15    -454.1706257676002565    -1.85e-09  3.19e-06  8.47e-05  6.20e-06     0.5
                 **** Energy Check signals convergence ****

               *****************************************************
               *                     SUCCESS                       *
               *           SCF CONVERGED AFTER  15 CYCLES          *
               *****************************************************

             **** ENERGY FILE WAS UPDATED (/cluster/projects/nn14654k/ylvaos/basis_set_n_funcs/functionals/gga_c_N12/PO2/inp/PO2_gga_c_N12_pcseg2.en.tmp) ****

----------------
TOTAL SCF ENERGY
----------------

Total Energy       :       -454.17062576802624 Eh          -12358.61103 eV

Components:
Nuclear Repulsion  :         99.08629604629714 Eh            2696.27519 eV
Electronic Energy  :       -553.25692181432350 Eh          -15054.88622 eV
One Electron Energy:       -860.01332501551315 Eh          -23402.15232 eV
Two Electron Energy:        306.75640320118970 Eh            8347.26610 eV

Virial components:
Potential Energy   :       -927.43017184389498 Eh          -25236.65798 eV
Kinetic Energy     :        473.25954607586874 Eh           12878.04696 eV
Virial Ratio       :          1.95966500735987

DFT components:
N(Alpha)           :       16.000033516425 electrons
N(Beta)            :       15.000041318182 electrons
N(Total)           :       31.000074834608 electrons
E(X)               :        0.000000000000 Eh       
E(C)               :       -1.825184001001 Eh       
E(XC)              :       -1.825184001001 Eh       

---------------
SCF CONVERGENCE
---------------

  Last Energy change         ...    1.8513e-09  Tolerance :   1.0000e-08
  Last MAX-Density change    ...    8.4746e-05  Tolerance :   1.0000e-07
  Last RMS-Density change    ...    3.1933e-06  Tolerance :   5.0000e-09
  Last DIIS Error            ...    1.8584e-03  Tolerance :   5.0000e-07
  Last Orbital Gradient      ...    6.2020e-06  Tolerance :   1.0000e-05
  Last Orbital Rotation      ...    1.0562e-05  Tolerance :   1.0000e-05


----------------------
UHF SPIN CONTAMINATION
----------------------

Warning: in a DFT calculation there is little theoretical justification to 
         calculate <S**2> as in Hartree-Fock theory. We will do it anyways
         but you should keep in mind that the values have only limited relevance

Expectation value of <S**2>     :     0.750359
Ideal value S*(S+1) for S=0.5   :     0.750000
Deviation                       :     0.000359

----------------
ORBITAL ENERGIES
----------------
                 SPIN UP ORBITALS
  NO   OCC          E(Eh)            E(eV) 
   0   1.0000     -71.614947     -1948.7418 
   1   1.0000     -16.652451      -453.1362 
   2   1.0000     -16.652362      -453.1338 
   3   1.0000      -5.237460      -142.5185 
   4   1.0000      -3.491153       -94.9991 
   5   1.0000      -3.487523       -94.9003 
   6   1.0000      -3.485747       -94.8520 
   7   1.0000      -0.638581       -17.3767 
   8   1.0000      -0.581641       -15.8273 
   9   1.0000      -0.188163        -5.1202 
  10   1.0000      -0.137953        -3.7539 
  11   1.0000      -0.129514        -3.5243 
  12   1.0000      -0.101916        -2.7733 
  13   1.0000      -0.062267        -1.6944 
  14   1.0000      -0.048530        -1.3206 
  15   1.0000       0.020868         0.5678 
  16   0.0000       0.130997         3.5646 
  17   0.0000       0.178829         4.8662 
  18   0.0000       0.202906         5.5214 
  19   0.0000       0.307545         8.3687 
  20   0.0000       0.334788         9.1101 
  21   0.0000       0.422550        11.4982 
  22   0.0000       0.435145        11.8409 
  23   0.0000       0.477692        12.9987 
  24   0.0000       0.485483        13.2107 
  25   0.0000       0.517723        14.0879 
  26   0.0000       0.529716        14.4143 

                 SPIN DOWN ORBITALS
  NO   OCC          E(Eh)            E(eV) 
   0   1.0000     -71.615144     -1948.7471 
   1   1.0000     -16.654270      -453.1857 
   2   1.0000     -16.654179      -453.1833 
   3   1.0000      -5.238609      -142.5498 
   4   1.0000      -3.492057       -95.0237 
   5   1.0000      -3.489079       -94.9427 
   6   1.0000      -3.487963       -94.9123 
   7   1.0000      -0.642032       -17.4706 
   8   1.0000      -0.584855       -15.9147 
   9   1.0000      -0.194997        -5.3061 
  10   1.0000      -0.141939        -3.8624 
  11   1.0000      -0.133773        -3.6401 
  12   1.0000      -0.107955        -2.9376 
  13   1.0000      -0.064479        -1.7546 
  14   1.0000      -0.051069        -1.3897 
  15   0.0000       0.007417         0.2018 
  16   0.0000       0.125144         3.4053 
  17   0.0000       0.179815         4.8930 
  18   0.0000       0.201392         5.4802 
  19   0.0000       0.311292         8.4707 
  20   0.0000       0.333370         9.0715 
  21   0.0000       0.424534        11.5522 
  22   0.0000       0.436716        11.8837 
  23   0.0000       0.474226        12.9043 
  24   0.0000       0.474409        12.9093 
  25   0.0000       0.514839        14.0095 
*Only the first 10 virtual orbitals were printed.

                    ********************************
                    * MULLIKEN POPULATION ANALYSIS *
                    ********************************

--------------------------------------------
MULLIKEN ATOMIC CHARGES AND SPIN POPULATIONS
--------------------------------------------
   0 P :    0.306316    0.715852
   1 O :   -0.153158    0.142074
   2 O :   -0.153158    0.142074
Sum of atomic charges         :   -0.0000000
Sum of atomic spin populations:    1.0000000

-----------------------------------------------------
MULLIKEN REDUCED ORBITAL CHARGES AND SPIN POPULATIONS
-----------------------------------------------------
CHARGE
  0 P s       :     5.750055  s :     5.750055
      pz      :     2.868872  p :     8.455446
      px      :     2.861695
      py      :     2.724879
      dz2     :     0.056238  d :     0.454972
      dxz     :     0.011948
      dyz     :     0.148311
      dx2y2   :     0.098004
      dxy     :     0.140471
      f0      :     0.001887  f :     0.033211
      f+1     :     0.000051
      f-1     :     0.011732
      f+2     :     0.004420
      f-2     :     0.004906
      f+3     :     0.005159
      f-3     :     0.005056

  1 O s       :     3.707525  s :     3.707525
      pz      :     1.469915  p :     4.431732
      px      :     1.479221
      py      :     1.482595
      dz2     :     0.002869  d :     0.014386
      dxz     :     0.001104
      dyz     :     0.002933
      dx2y2   :     0.000322
      dxy     :     0.007157
      f0      :    -0.000223  f :    -0.000485
      f+1     :     0.000004
      f-1     :     0.000262
      f+2     :    -0.000454
      f-2     :     0.000153
      f+3     :     0.000246
      f-3     :    -0.000472

  2 O s       :     3.707525  s :     3.707525
      pz      :     1.469915  p :     4.431732
      px      :     1.479221
      py      :     1.482595
      dz2     :     0.002869  d :     0.014386
      dxz     :     0.001104
      dyz     :     0.002933
      dx2y2   :     0.000322
      dxy     :     0.007157
      f0      :    -0.000223  f :    -0.000485
      f+1     :     0.000004
      f-1     :     0.000262
      f+2     :    -0.000454
      f-2     :     0.000153
      f+3     :     0.000246
      f-3     :    -0.000472


SPIN
  0 P s       :     0.587506  s :     0.587506
      pz      :     0.075969  p :     0.060695
      px      :    -0.013189
      py      :    -0.002085
      dz2     :     0.021172  d :     0.068310
      dxz     :     0.000405
      dyz     :     0.001806
      dx2y2   :     0.044640
      dxy     :     0.000288
      f0      :     0.000002  f :    -0.000659
      f+1     :     0.000004
      f-1     :    -0.000159
      f+2     :    -0.000209
      f-2     :    -0.000007
      f+3     :    -0.000085
      f-3     :    -0.000204

  1 O s       :    -0.066639  s :    -0.066639
      pz      :     0.168828  p :     0.208130
      px      :     0.006229
      py      :     0.033073
      dz2     :     0.000063  d :     0.000438
      dxz     :     0.000013
      dyz     :    -0.000027
      dx2y2   :     0.000334
      dxy     :     0.000056
      f0      :     0.000032  f :     0.000145
      f+1     :     0.000001
      f-1     :    -0.000011
      f+2     :     0.000067
      f-2     :    -0.000007
      f+3     :     0.000001
      f-3     :     0.000062

  2 O s       :    -0.066639  s :    -0.066639
      pz      :     0.168827  p :     0.208130
      px      :     0.006229
      py      :     0.033073
      dz2     :     0.000063  d :     0.000438
      dxz     :     0.000013
      dyz     :    -0.000027
      dx2y2   :     0.000334
      dxy     :     0.000056
      f0      :     0.000032  f :     0.000145
      f+1     :     0.000001
      f-1     :    -0.000011
      f+2     :     0.000067
      f-2     :    -0.000007
      f+3     :     0.000001
      f-3     :     0.000062



                     *******************************
                     * LOEWDIN POPULATION ANALYSIS *
                     *******************************

-------------------------------------------
LOEWDIN ATOMIC CHARGES AND SPIN POPULATIONS
-------------------------------------------
   0 P :    0.536218    0.554592
   1 O :   -0.268109    0.222704
   2 O :   -0.268109    0.222704

----------------------------------------------------
LOEWDIN REDUCED ORBITAL CHARGES AND SPIN POPULATIONS
----------------------------------------------------
CHARGE
  0 P s       :     5.037603  s :     5.037603
      pz      :     2.948956  p :     8.595150
      px      :     2.808597
      py      :     2.837597
      dz2     :     0.085661  d :     0.723101
      dxz     :     0.011356
      dyz     :     0.230282
      dx2y2   :     0.213652
      dxy     :     0.182150
      f0      :     0.008851  f :     0.107927
      f+1     :     0.000098
      f-1     :     0.032831
      f+2     :     0.019247
      f-2     :     0.014737
      f+3     :     0.011860
      f-3     :     0.020303

  1 O s       :     3.623332  s :     3.623332
      pz      :     1.509806  p :     4.594579
      px      :     1.475027
      py      :     1.609746
      dz2     :     0.005076  d :     0.044462
      dxz     :     0.001260
      dyz     :     0.015196
      dx2y2   :     0.014449
      dxy     :     0.008482
      f0      :     0.000813  f :     0.005735
      f+1     :     0.000018
      f-1     :     0.000678
      f+2     :     0.001753
      f-2     :     0.000251
      f+3     :     0.000563
      f-3     :     0.001660

  2 O s       :     3.623332  s :     3.623332
      pz      :     1.509806  p :     4.594579
      px      :     1.475027
      py      :     1.609746
      dz2     :     0.005076  d :     0.044462
      dxz     :     0.001260
      dyz     :     0.015196
      dx2y2   :     0.014449
      dxy     :     0.008482
      f0      :     0.000813  f :     0.005735
      f+1     :     0.000018
      f-1     :     0.000678
      f+2     :     0.001753
      f-2     :     0.000251
      f+3     :     0.000563
      f-3     :     0.001660


SPIN
  0 P s       :     0.267285  s :     0.267285
      pz      :     0.131512  p :     0.122879
      px      :    -0.009360
      py      :     0.000727
      dz2     :     0.044981  d :     0.161569
      dxz     :     0.000460
      dyz     :     0.000410
      dx2y2   :     0.115583
      dxy     :     0.000134
      f0      :     0.001413  f :     0.002858
      f+1     :     0.000005
      f-1     :    -0.000015
      f+2     :     0.001425
      f-2     :     0.000008
      f+3     :     0.000171
      f-3     :    -0.000149

  1 O s       :     0.027883  s :     0.027883
      pz      :     0.151356  p :     0.194133
      px      :     0.004303
      py      :     0.038473
      dz2     :     0.000046  d :     0.000580
      dxz     :    -0.000002
      dyz     :     0.000496
      dx2y2   :     0.000044
      dxy     :    -0.000003
      f0      :     0.000006  f :     0.000109
      f+1     :     0.000000
      f-1     :     0.000024
      f+2     :     0.000011
      f-2     :    -0.000007
      f+3     :    -0.000001
      f-3     :     0.000074

  2 O s       :     0.027883  s :     0.027883
      pz      :     0.151356  p :     0.194133
      px      :     0.004303
      py      :     0.038473
      dz2     :     0.000046  d :     0.000580
      dxz     :    -0.000002
      dyz     :     0.000496
      dx2y2   :     0.000044
      dxy     :    -0.000003
      f0      :     0.000006  f :     0.000109
      f+1     :     0.000000
      f-1     :     0.000024
      f+2     :     0.000011
      f-2     :    -0.000007
      f+3     :    -0.000001
      f-3     :     0.000074



                      *****************************
                      * MAYER POPULATION ANALYSIS *
                      *****************************

  NA   - Mulliken gross atomic population
  ZA   - Total nuclear charge
  QA   - Mulliken gross atomic charge
  VA   - Mayer's total valence
  BVA  - Mayer's bonded valence
  FA   - Mayer's free valence

  ATOM       NA         ZA         QA         VA         BVA        FA
  0 P     14.6937    15.0000     0.3063     4.3325     3.7894     0.5431
  1 O      8.1532     8.0000    -0.1532     1.9904     1.9817     0.0087
  2 O      8.1532     8.0000    -0.1532     1.9904     1.9817     0.0087

  Mayer bond orders larger than 0.100000
B(  0-P ,  1-O ) :   1.8947 B(  0-P ,  2-O ) :   1.8947 

-------
TIMINGS
-------

Total SCF time: 0 days 0 hours 0 min 5 sec 

Total time                  ....       5.642 sec
Sum of individual times     ....       5.547 sec  ( 98.3%)

SCF preparation             ....       0.121 sec  (  2.1%)
Fock matrix formation       ....       3.293 sec  ( 58.4%)
  Startup                   ....       0.082 sec  (  2.5% of F)
  Coulomb formation         ....       0.685 sec  ( 20.8% of F)
  XC integration            ....       0.808 sec  ( 24.5% of F)
    Basis function eval.    ....       0.035 sec  (  4.4% of XC)
    Density eval.           ....       0.032 sec  (  3.9% of XC)
    XC-Functional eval.     ....       0.022 sec  (  2.7% of XC)
    XC-Potential eval.      ....       0.076 sec  (  9.4% of XC)
Diagonalization             ....       0.000 sec  (  0.0%)
Density matrix formation    ....       0.748 sec  ( 13.3%)
Total Energy calculation    ....       0.044 sec  (  0.8%)
Population analysis         ....       0.021 sec  (  0.4%)
Orbital Transformation      ....       0.156 sec  (  2.8%)
Orbital Orthonormalization  ....       0.000 sec  (  0.0%)
DIIS solution               ....       0.335 sec  (  5.9%)
SOSCF solution              ....       0.830 sec  ( 14.7%)
Finished LeanSCF after   5.7 sec

Maximum memory used throughout the entire LEANSCF-calculation: 15.7 MB


           ************************************************************
           *        Program running with 8 parallel MPI-processes     *
           *              working on a common directory               *
           ************************************************************

------------------------------------------------------------------------------
                         ORCA PROPERTY INTEGRAL CALCULATIONS
------------------------------------------------------------------------------

GBWName                                   ... /cluster/projects/nn14654k/ylvaos/basis_set_n_funcs/functionals/gga_c_N12/PO2/inp/PO2_gga_c_N12_pcseg2.gbw
Number of atoms                           ...      3
Number of basis functions                 ...     94
Max core memory                           ...   4096 MB

Dipole integrals                          ... YES
Quadrupole integrals                      ... YES
Linear momentum integrals                 ...  NO
Angular momentum integrals                ...  NO
Higher moments length integrals           ...  NO
Higher moments velocity integrals         ...  NO
Kinetic energy integrals                  ...  NO
GIAO right hand sides                     ...  NO
GIAO dipole derivative integrals          ...  NO
SOC integrals                             ...  NO
EPR diamagnetic integrals (GIAO)          ...  NO
EPR gauge integrals                       ...  NO
Field gradient integrals                  ...  NO (   0 nuclei)
Spin-dipole/Fermi contact integrals       ...  NO (   0 nuclei)
Contact density integrals                 ...  NO (   0 nuclei)
Nucleus-orbit integrals                   ...  NO (   0 nuclei)
Geometric perturbations                   ...  NO (   3 nuclei)

Choice of electric origin   ... Center of mass
Position of electric origin ... (  0.0000,  0.0000,  0.0084) 
Choice of magnetic origin   ... GIAO
Position of magnetic origin ... (  0.0000,  0.0000,  0.0000) 

Calculating integrals                     ... Electric Dipole (Length)     done (  0.0 sec)
Calculating integrals                     ... Electric Quadrupole (Length) done (  0.0 sec)

Property integrals calculated in   0.0 sec

Maximum memory used throughout the entire PROPINT-calculation: 6.8 MB
------------------------------------------------------------------------------
                           ORCA ORBITAL LOCALIZATION
------------------------------------------------------------------------------

Input orbitals are from                  ... /cluster/projects/nn14654k/ylvaos/basis_set_n_funcs/functionals/gga_c_N12/PO2/inp/PO2_gga_c_N12_pcseg2.gbw
Output orbitals are to                   ... /cluster/projects/nn14654k/ylvaos/basis_set_n_funcs/functionals/gga_c_N12/PO2/inp/PO2_gga_c_N12_pcseg2.loc
Max. number of iterations                ... 128
Localizations seeded randomly            ... on
Convergence tolerance                    ... 1.000e-06
Threshold for strong local MOs           ... 9.500e-01
Threshold for bond MOs                   ... 8.500e-01
Operator                                 ... 0
Orbital range for localization           ... 4 to 15
Localization criterion                   ... NEW-BOYS
Doing the dipole integrals               ... o.k.
Initial value of the localization sum :    29.014880
ITERATION   0 : L=   48.6828671506 DL=  1.97e+01 (AVERGE_DL)=    0.5458935826 
ITERATION   1 : L=   51.4385694559 DL=  2.76e+00 (AVERGE_DL)=    0.2043356680 
ITERATION   2 : L=   51.7180586710 DL=  2.79e-01 (AVERGE_DL)=    0.0650744579 
ITERATION   3 : L=   51.7514196230 DL=  3.34e-02 (AVERGE_DL)=    0.0224826371 
ITERATION   4 : L=   51.7603331588 DL=  8.91e-03 (AVERGE_DL)=    0.0116212552 
ITERATION   5 : L=   51.7632902313 DL=  2.96e-03 (AVERGE_DL)=    0.0066935887 
ITERATION   6 : L=   51.7644176341 DL=  1.13e-03 (AVERGE_DL)=    0.0041330208 
ITERATION   7 : L=   51.7648687037 DL=  4.51e-04 (AVERGE_DL)=    0.0026142663 
ITERATION   8 : L=   51.7650532516 DL=  1.85e-04 (AVERGE_DL)=    0.0016721781 
ITERATION   9 : L=   51.7651293788 DL=  7.61e-05 (AVERGE_DL)=    0.0010739842 
ITERATION  10 : L=   51.7651608942 DL=  3.15e-05 (AVERGE_DL)=    0.0006910179 
ITERATION  11 : L=   51.7651739572 DL=  1.31e-05 (AVERGE_DL)=    0.0004448879 
ITERATION  12 : L=   51.7651793722 DL=  5.41e-06 (AVERGE_DL)=    0.0002864339 
ITERATION  13 : L=   51.7651816179 DL=  2.25e-06 (AVERGE_DL)=    0.0001844622 
ITERATION  14 : L=   51.7651825483 DL=  9.30e-07 (AVERGE_DL)=    0.0001187321 
LOCALIZATION SUM CONVERGED


--------------------------------------------------------------------------------
                    LOCALIZED MOLECULAR ORBITAL COMPOSITIONS
--------------------------------------------------------------------------------

The Mulliken populations for each LMO on each atom are computed
The LMO`s will be ordered according to atom index and type
  (A) Strongly localized MO`s have populations of >=0.950 on one atom
  (B) Two center bond orbitals have populations of >=0.850 on two atoms
  (C) Other MO`s are considered to be `delocalized`

FOUND  -   4 strongly local MO`s
       -   8 two center bond MO`s
       -   0 significantly delocalized MO`s

Rather strongly localized orbitals:
MO   7:   0P  -   1.011848
MO   6:   0P  -   1.001926
MO   5:   0P  -   1.011213
MO   4:   0P  -   1.244609
Bond-like localized orbitals:
MO  15:   2O  -   0.871216  and   0P  -   0.137619
MO  14:   2O  -   0.757207  and   0P  -   0.251842
MO  13:   2O  -   0.757208  and   0P  -   0.251863
MO  12:   2O  -   0.940766  and   0P  -   0.058146
MO  11:   1O  -   0.871213  and   0P  -   0.137623
MO  10:   1O  -   0.757204  and   0P  -   0.251820
MO   9:   1O  -   0.940768  and   0P  -   0.058145
MO   8:   1O  -   0.757212  and   0P  -   0.251879
Localized MO's were stored in: /cluster/projects/nn14654k/ylvaos/basis_set_n_funcs/functionals/gga_c_N12/PO2/inp/PO2_gga_c_N12_pcseg2.loc
------------------------------------------------------------------------------
                           ORCA ORBITAL LOCALIZATION
------------------------------------------------------------------------------

Input orbitals are from                  ... /cluster/projects/nn14654k/ylvaos/basis_set_n_funcs/functionals/gga_c_N12/PO2/inp/PO2_gga_c_N12_pcseg2.loc
Output orbitals are to                   ... /cluster/projects/nn14654k/ylvaos/basis_set_n_funcs/functionals/gga_c_N12/PO2/inp/PO2_gga_c_N12_pcseg2.loc
Max. number of iterations                ... 128
Localizations seeded randomly            ... on
Convergence tolerance                    ... 1.000e-06
Threshold for strong local MOs           ... 9.500e-01
Threshold for bond MOs                   ... 8.500e-01
Operator                                 ... 1
Orbital range for localization           ... 4 to 14
Localization criterion                   ... NEW-BOYS
Doing the dipole integrals               ... o.k.
Initial value of the localization sum :    15.254172
ITERATION   0 : L=   36.6555704668 DL=  2.14e+01 (AVERGE_DL)=    0.6237919032 
ITERATION   1 : L=   42.8801457682 DL=  6.22e+00 (AVERGE_DL)=    0.3364135794 
ITERATION   2 : L=   43.2832781401 DL=  4.03e-01 (AVERGE_DL)=    0.0856135473 
ITERATION   3 : L=   43.3011412823 DL=  1.79e-02 (AVERGE_DL)=    0.0180217758 
ITERATION   4 : L=   43.3020923061 DL=  9.51e-04 (AVERGE_DL)=    0.0041582859 
ITERATION   5 : L=   43.3025974710 DL=  5.05e-04 (AVERGE_DL)=    0.0030306462 
ITERATION   6 : L=   43.3029968984 DL=  3.99e-04 (AVERGE_DL)=    0.0026948684 
ITERATION   7 : L=   43.3033345584 DL=  3.38e-04 (AVERGE_DL)=    0.0024777558 
ITERATION   8 : L=   43.3036172536 DL=  2.83e-04 (AVERGE_DL)=    0.0022671375 
ITERATION   9 : L=   43.3038535036 DL=  2.36e-04 (AVERGE_DL)=    0.0020725477 
ITERATION  10 : L=   43.3040505593 DL=  1.97e-04 (AVERGE_DL)=    0.0018928368 
ITERATION  11 : L=   43.3042147289 DL=  1.64e-04 (AVERGE_DL)=    0.0017276868 
ITERATION  12 : L=   43.3043513912 DL=  1.37e-04 (AVERGE_DL)=    0.0015763150 
ITERATION  13 : L=   43.3044651052 DL=  1.14e-04 (AVERGE_DL)=    0.0014378902 
ITERATION  14 : L=   43.3045597037 DL=  9.46e-05 (AVERGE_DL)=    0.0013114771 
ITERATION  15 : L=   43.3046384073 DL=  7.87e-05 (AVERGE_DL)=    0.0011962330 
ITERATION  16 : L=   43.3047038997 DL=  6.55e-05 (AVERGE_DL)=    0.0010912244 
ITERATION  17 : L=   43.3047584166 DL=  5.45e-05 (AVERGE_DL)=    0.0009955993 
ITERATION  18 : L=   43.3048038246 DL=  4.54e-05 (AVERGE_DL)=    0.0009086252 
ITERATION  19 : L=   43.3048416636 DL=  3.78e-05 (AVERGE_DL)=    0.0008294465 
ITERATION  20 : L=   43.3048732169 DL=  3.16e-05 (AVERGE_DL)=    0.0007574272 
ITERATION  21 : L=   43.3048995446 DL=  2.63e-05 (AVERGE_DL)=    0.0006918716 
ITERATION  22 : L=   43.3049215293 DL=  2.20e-05 (AVERGE_DL)=    0.0006322354 
ITERATION  23 : L=   43.3049399005 DL=  1.84e-05 (AVERGE_DL)=    0.0005779455 
ITERATION  24 : L=   43.3049552625 DL=  1.54e-05 (AVERGE_DL)=    0.0005284983 
ITERATION  25 : L=   43.3049681191 DL=  1.29e-05 (AVERGE_DL)=    0.0004834819 
ITERATION  26 : L=   43.3049788846 DL=  1.08e-05 (AVERGE_DL)=    0.0004424224 
ITERATION  27 : L=   43.3049879079 DL=  9.02e-06 (AVERGE_DL)=    0.0004050417 
ITERATION  28 : L=   43.3049954739 DL=  7.57e-06 (AVERGE_DL)=    0.0003708975 
ITERATION  29 : L=   43.3050018248 DL=  6.35e-06 (AVERGE_DL)=    0.0003398105 
ITERATION  30 : L=   43.3050071557 DL=  5.33e-06 (AVERGE_DL)=    0.0003113268 
ITERATION  31 : L=   43.3050116370 DL=  4.48e-06 (AVERGE_DL)=    0.0002854454 
ITERATION  32 : L=   43.3050154031 DL=  3.77e-06 (AVERGE_DL)=    0.0002616757 
ITERATION  33 : L=   43.3050185732 DL=  3.17e-06 (AVERGE_DL)=    0.0002400807 
ITERATION  34 : L=   43.3050212409 DL=  2.67e-06 (AVERGE_DL)=    0.0002202319 
ITERATION  35 : L=   43.3050234881 DL=  2.25e-06 (AVERGE_DL)=    0.0002021380 
ITERATION  36 : L=   43.3050253809 DL=  1.89e-06 (AVERGE_DL)=    0.0001855072 
ITERATION  37 : L=   43.3050269769 DL=  1.60e-06 (AVERGE_DL)=    0.0001703472 
ITERATION  38 : L=   43.3050283227 DL=  1.35e-06 (AVERGE_DL)=    0.0001564257 
ITERATION  39 : L=   43.3050294581 DL=  1.14e-06 (AVERGE_DL)=    0.0001436847 
ITERATION  40 : L=   43.3050304167 DL=  9.59e-07 (AVERGE_DL)=    0.0001320177 
LOCALIZATION SUM CONVERGED


--------------------------------------------------------------------------------
                    LOCALIZED MOLECULAR ORBITAL COMPOSITIONS
--------------------------------------------------------------------------------

The Mulliken populations for each LMO on each atom are computed
The LMO`s will be ordered according to atom index and type
  (A) Strongly localized MO`s have populations of >=0.950 on one atom
  (B) Two center bond orbitals have populations of >=0.850 on two atoms
  (C) Other MO`s are considered to be `delocalized`

FOUND  -   3 strongly local MO`s
       -   8 two center bond MO`s
       -   0 significantly delocalized MO`s

Rather strongly localized orbitals:
MO   6:   0P  -   1.011063
MO   5:   0P  -   1.011063
MO   4:   0P  -   1.000591
Bond-like localized orbitals:
MO  14:   2O  -   0.564892  and   0P  -   0.427673
MO  13:   2O  -   0.770053  and   0P  -   0.237650
MO  12:   2O  -   0.769222  and   0P  -   0.238452
MO  11:   2O  -   0.943064  and   0P  -   0.060967
MO  10:   1O  -   0.770243  and   0P  -   0.237473
MO   9:   1O  -   0.769025  and   0P  -   0.238637
MO   8:   1O  -   0.943064  and   0P  -   0.060966
MO   7:   1O  -   0.564901  and   0P  -   0.427664
Localized MO's were stored in: /cluster/projects/nn14654k/ylvaos/basis_set_n_funcs/functionals/gga_c_N12/PO2/inp/PO2_gga_c_N12_pcseg2.loc

-------------------------   --------------------
FINAL SINGLE POINT ENERGY      -454.170625768026
-------------------------   --------------------



           ************************************************************
           *        Program running with 8 parallel MPI-processes     *
           *              working on a common directory               *
           ************************************************************

------------------------------------------------------------------------------
                              ORCA PROPERTY CALCULATIONS
------------------------------------------------------------------------------

GBWName                                 ... /cluster/projects/nn14654k/ylvaos/basis_set_n_funcs/functionals/gga_c_N12/PO2/inp/PO2_gga_c_N12_pcseg2.gbw
Number of atoms                         ...      3
Number of basis functions               ...     94
Max core memory                         ...   4096 MB

Electric properties:
Dipole moment                           ... YES
Quadrupole moment                       ... YES
Static polarizability (Dipole/Dipole)   ...  NO
Static polarizability (Dipole/Quad.)    ...  NO
Static polarizability (Quad./Quad.)     ...  NO
Static polarizability (Velocity)        ...  NO
Static hyperpolarizability              ...  NO

Atomic electric properties:
Dipole moment                           ...  NO
Quadrupole moment                       ...  NO
Static polarizability                   ...  NO

Choice of electric origin               ... Center of mass
Position of electric origin             ...     0.000000     0.000000     0.008437

General magnetic properties:
Magnetizability                         ...  NO

EPR properties:
g-Tensor (aka g-matrix)                 ...  NO
Zero-Field splitting spin-orbit         ...  NO
Zero-field splitting spin-spin          ...  NO
Hyperfine couplings                     ...  NO (   0 nuclei)
Quadrupole couplings                    ...  NO (   0 nuclei)
Contact density                         ...  NO (   0 nuclei)

NMR properties:
Chemical shifts                         ...  NO (   0 nuclei)
Spin-rotation constants                 ...  NO (   0 nuclei)
Spin-spin couplings                     ...  NO (   0 nuclei,    0 pairs)

Choice of magnetic origin               ... GIAO
Position of magnetic origin             ...     0.000000     0.000000     0.000000

Properties with geometric perturbations:
SCF Hessian                             ...  NO
IR spectrum                             ...  NO
VCD spectrum                            ...  NO
X-ray spectroscopy properties:
SCF XES/XAS/RIXS spectra                ...  NO

SCF SOC stabilization energy            ...  NO
Diagonal Born-Oppenheimer correction    ...  NO

-------------
DIPOLE MOMENT
-------------

Method             : SCF
Type of density    : Electron Density
Multiplicity       :   2
Irrep              :   0
Energy             :  -454.1706257680262411 Eh
Basis              : AO
                                X                 Y                 Z
Electronic contribution:     -0.000000001      -0.000000017       0.396876878
Nuclear contribution   :      0.000000000       0.000000000      -0.261362976
                        -----------------------------------------
Total Dipole Moment    :     -0.000000001      -0.000000017       0.135513902
                        -----------------------------------------
Magnitude (a.u.)       :      0.135513902
Magnitude (Debye)      :      0.344448964



--------------------
Rotational spectrum 
--------------------
 
Rotational constants in cm-1:             3.442444             0.286393             0.264396 
Rotational constants in MHz :        103201.869580          8585.841533          7926.407020 

Dipole components along the rotational axes: 
x,y,z [a.u.] :    -0.000000     0.135514    -0.000000 
x,y,z [Debye]:    -0.000000     0.344449    -0.000000 

 

Dipole moment calculation done in   0.0 sec 

-----------------
QUADRUPOLE MOMENT
-----------------

Method             : SCF
Type of density    : Electron Density
Multiplicity       :   2
Irrep              :   0
Energy             :  -454.1706257680262411 Eh
Basis              : AO

                XX              YY              ZZ              XY              XZ              YZ
  NUC        0.000000000   105.106420135     8.604299986     0.000000000     0.000000000     0.000000000
  EL       -21.307269050  -131.198576781   -30.738966414    -0.000000001    -0.000000001    -0.000000009
  TOT      -21.307269050   -26.092156646   -22.134666428    -0.000000001    -0.000000001    -0.000000009 (a.u.)
           -28.659005581   -35.094843040   -29.771883352    -0.000000001    -0.000000001    -0.000000013 (Buckingham)

diagonalized tensor:
           -26.092156646   -22.134666428   -21.307269050 (a.u.)
           -35.094843040   -29.771883352   -28.659005581 (Buckingham)
           -11.758797148     4.210081918     7.548715230 (traceless form in Buckingham)

             0.000000000    -0.000000001     1.000000000
             1.000000000     0.000000002    -0.000000000
             0.000000002    -1.000000000    -0.000000001
        
Isotropic quadrupole :   -23.178030708

Quadrupole moment calculation done in   0.0 sec (  0.0 sec for integrals)

Maximum memory used throughout the entire PROP-calculation: 3.3 MB

--------------------------------
SUGGESTED CITATIONS FOR THIS RUN
--------------------------------

Below you find a list of papers that are relevant to this ORCA run
We neither can nor want to force you to cite these papers, but we appreciate if you do
You receive ORCA, which is the product of decades of hard work by many enthusiastic individuals, for free
The only thing we kindly ask in return is that you cite our papers,
We deeply appreciate it, if you show your appreciation for ORCA by not just citing the generic ORCA reference.

Please note that relegating all ORCA citations to the supporting information does *not* help us.
SI sections are not indexed - citations you put there will not count into any citation statistics
But we need these citations in order to attract the funding resources that allow us to do what we are doing

Therefore, if you are a happy ORCA user, please consider citing a few of the papers listed below in the main body of your paper

In addition to the list printed below, the program has created the file /cluster/projects/nn14654k/ylvaos/basis_set_n_funcs/functionals/gga_c_N12/PO2/inp/PO2_gga_c_N12_pcseg2.bibtex that contains the list in bibtex format
You can import this file easily into all common literature databanks and citation aid programs

It goes without saying that in many instances, there are alternative algorithms to achieve similar
results as the ones you have gotten from ORCA. It is, of course, also the case that in some instances
ORCA just re-implements algorithms worked out by others. We are fully aware of that and we are also
fully appreciative of our colleagues work. Hence this citation list should not be read as indicating
that the listed papers, which are focused on our own work, are the only ones worth citing. It simply
meant to make it easier for users to cite ORCA specific papers. It is not a substitute for doing your
own literature research and citing the relevant literature in a scientifically appropriate manner.

List of essential papers. We consider these as the minimum necessary citations

  1. Neese, F.
     Software update: the ORCA program system, version 6.0
     WIRES Comput. Molec. Sci. 2025 15(1), e70019
     doi.org/10.1002/wcms.70019

List of papers to cite with high priority. The work reported in these papers was absolutely
necessary for this run to complete.
Our perspective: the developers of density functionals and basis sets usually get cited in chemistry papers
Good! But without the algorithms to do something with them, the functionals or basis sets would not do anything.
Hence, in our opinion, the algorithm design and method developments papers are equally worthy of getting cited

  1. Lehtola, S.; Steigemann, C.; Oliveira, M.; Marques, M.
     Recent developments in Libxc - A comprehensive library of functionals for density functional theory
     Software X 2018 7 , 
     doi.org/10.1016/j.softx.2017.11.002
  2. Neese, F.
     The SHARK Integral Generation and Digestion System
     J. Comp. Chem. 2022 44(3), 381
     doi.org/10.1002/jcc.26942

List of suggested additional citations. These are papers that are important in the 'surrounding' of 
of this run, or papers that preceded the highly important papers. If you like your results we are grateful for a citation.

  1. Neese, F.
     The ORCA program system
     WIRES Comput. Molec. Sci. 2012 2(1), 73-78
     doi.org/10.1002/wcms.81
  2. Neese, F.
     Software update: the ORCA program system, version 4.0
     WIRES Comput. Molec. Sci. 2018 8(1), 1-6
     doi.org/10.1002/wcms.1327
  3. Neese, F.; Wennmohs, F.; Becker, U.; Riplinger, C.
     The ORCA quantum chemistry program package
     J. Chem. Phys. 2020 152(22), 224108
     doi.org/10.1063/5.0004608
  4. Neese, F.
     Software update: The ORCA program system—Version 5.0
     WIRES Comput. Molec. Sci. 2022 12(1), e1606
     doi.org/10.1002/wcms.1606

List of optional additional citations

  1. Neese, F.
     Approximate second-order SCF convergence for spin unrestricted wavefunctions
     Chem. Phys. Lett. 2000 325(1-3), 93-98
     doi.org/10.1016/s0009-2614(00)00662-x

Timings for individual modules:

Sum of individual times          ...        7.460 sec (=   0.124 min)
Startup calculation              ...        0.507 sec (=   0.008 min)   6.8 %
SCF iterations                   ...        6.448 sec (=   0.107 min)  86.4 %
Property integrals               ...        0.243 sec (=   0.004 min)   3.3 %
Property calculations            ...        0.248 sec (=   0.004 min)   3.3 %
Orbital localization             ...        0.014 sec (=   0.000 min)   0.2 %
                             ****ORCA TERMINATED NORMALLY****
TOTAL RUN TIME: 0 days 0 hours 0 minutes 8 seconds 929 msec
