
                                 *****************
                                 * O   R   C   A *
                                 *****************

                                            #,                                       
                                            ###                                      
                                            ####                                     
                                            #####                                    
                                            ######                                   
                                           ########,                                 
                                     ,,################,,,,,                         
                               ,,#################################,,                 
                          ,,##########################################,,             
                       ,#########################################, ''#####,          
                    ,#############################################,,   '####,        
                  ,##################################################,,,,####,       
                ,###########''''           ''''###############################       
              ,#####''   ,,,,##########,,,,          '''####'''          '####       
            ,##' ,,,,###########################,,,                        '##       
           ' ,,###''''                  '''############,,,                           
         ,,##''                                '''############,,,,        ,,,,,,###''
      ,#''                                            '''#######################'''  
     '                                                          ''''####''''         
             ,#######,   #######,   ,#######,      ##                                
            ,#'     '#,  ##    ##  ,#'     '#,    #''#        ,####,    ,#,          
            ##       ##  ##   ,#'  ##            #'  '#       #'       ,# #          
            ##       ##  #######   ##           ,######,      #####,      #          
            '#,     ,#'  ##    ##  '#,     ,#' ,#      #,     #,   #      #          
             '#######'   ##     ##  '#######'  #'      '#     '####' #    #          



                #########################################################
                #                        -***-                          #
                #          Department of theory and spectroscopy        #
                #                                                       #
                #                      Frank Neese                      #
                #                                                       #
                #     Directorship, Architecture, Infrastructure        #
                #                    SHARK, DRIVERS                     #
                #        Core code/Algorithms in most modules           #
                #                                                       #
                #        Max Planck Institute fuer Kohlenforschung      #
                #                Kaiser Wilhelm Platz 1                 #
                #                 D-45470 Muelheim/Ruhr                 #
                #                      Germany                          #
                #                                                       #
                #                  All rights reserved                  #
                #                        -***-                          #
                #########################################################


                         Program Version 6.1.1  -  RELEASE   -
                                (GIT: $487d211c$)
                          ($2025-11-21 10:33:24 +0100$)


 With contributions from (in alphabetic order):
[Max-Planck-Institut fuer Kohlenforschung]                               
  Daniel Aravena         : Magnetic Suceptibility                        
  Michael Atanasov       : Ab Initio Ligand Field Theory (pilot matlab implementation)
  Alexander A. Auer      : GIAO ZORA, VPT2 properties, NMR spectrum      
  Ute Becker             : All parallelization in ORCA, NUMFREQ, NUMCALC 
  Giovanni Bistoni       : ED, misc. LED, open-shell LED, HFLD           
  Dmytro Bykov           : pre 5.0 version of the SCF Hessian            
  Marcos Casanova-Páez   : Triplet and SCS-CIS(D). UHF-(DLPNO)-IP/EA/STEOM-CCSD. UHF-CVS-IP/STEOM-CCSD   
  Vijay G. Chilkuri      : MRCI spin determinant printing, contributions to CSF-ICE 
  Pauline Colinet        : FMM embedding                                 
  Dipayan Datta          : RHF DLPNO-CCSD density                        
  Achintya Kumar Dutta   : EOM-CC, STEOM-CC                              
  Nicolas Foglia         : Exact transition moments, OPA infrastructure, MCD improvements    
  Dmitry Ganyushin       : Spin-Orbit,Spin-Spin,Magnetic field MRCI      
  Miquel Garcia-Rates    : C-PCM and meta-GGA Hessian, CCSD/C-PCM, Gaussian charge scheme 
  Tiago L. C. Gouveia    : GS-ROHF, GS-ROCIS                             
  Yang Guo               : DLPNO-NEVPT2, F12-NEVPT2, CIM, IAO-localization        
  Andreas Hansen         : Spin unrestricted coupled pair/coupled cluster methods 
  Ingolf Harden          : AUTO-CI MPn and infrastructure                
  Benjamin Helmich-Paris : MC-RPA, TRAH-(SCF,CASSCF), AVAS, COSX integrals, SCF dyn. polar., MC-PDFT, srDFT 
  Lee Huntington         : MR-EOM, pCC                                   
  Robert Izsak           : Overlap fitted RIJCOSX, COSX-SCS-MP3, EOM     
  Riya Kayal             : Wick's Theorem for AUTO-CI, AUTO-CI UHF-CCSDT 
  Emily Kempfer          : AUTO-CI RHF CISDT and CCSDT, approximate NEVPT4
  Christian Kollmar      : KDIIS, OOCD, Brueckner-CCSD(T), CCSD density, CASPT2, CASPT2-K, improved NEVPT2 
  Axel Koslowski         : Symmetry handling                             
  Simone Kossmann        : meta-GGA functionals, TD-DFT gradient, OOMP2, (MP2 Hessian; deprecated post 5.0) 
  Lucas Lang             : DCDCAS, Hyperfine gauge corrections, ICE-SOC+SSC
  Marvin Lechner         : AUTO-CI (C++ implementation), FIC-MRCC        
  Spencer Leger          : CASSCF response                               
  Dagmar Lenk            : GEPOL surface, SMD, ORCA-2-JSON               
  Dimitrios Liakos       : Extrapolation schemes; Compound Job, Property file
  Dimitrios Manganas     : Further ROCIS development; embedding schemes. LFT, Crystal Embedding 
  Dimitrios Pantazis     : SARC Basis sets                               
  Anastasios Papadopoulos: AUTO-CI, single reference methods and gradients 
  Taras Petrenko         : pre 6.0 DFT Hessian and TD-DFT gradient,  ECA, NRVS 
  Petra Pikulova         : Analytic Raman intensities                    
  Peter Pinski           : DLPNO-MP2, DLPNO-MP2 Gradient                 
  Shashank Vittal Rao    : ES-AILFT, MagRelax                            
  Christoph Reimann      : Effective Core Potentials                     
  Marius Retegan         : Local ZFS, SOC                                
  Christoph Riplinger    : Optimizer, TS searches, QM/MM, DLPNO-CCSD(T), (RO)-DLPNO pert. Triples 
  Michael Roemelt        : Original ROCIS implementation, recursive CI coupling coefficients
  Masaaki Saitow         : Open-shell DLPNO-CCSD energy and density      
  Barbara Sandhoefer     : DKH picture change effects                    
  Yorick L. A. Schmerwitz: GMF and freeze-and-release deltaSCF, NEB S-IDPP initial path                    
  Kantharuban Sivalingam : CASSCF convergence/infrastructure, NEVPT2, NEVPT3, NEVPT4(SD), FIC-MRCI and CEPA variants
  Bernardo de Souza      : ESD, SOC TD-DFT                               
  Georgi L. Stoychev     : AutoAux, RI-MP2 NMR, DLPNO-MP2 response, X2C  
  Van Anh Tran           : RI-MP2 g-tensors                              
  Willem Van den Heuvel  : Paramagnetic NMR                              
  Zikuan Wang            : NOTCH, Electric field optimization            
  Frank Wennmohs         : Technical directorship and infrastructure     
  Hang Xu                : AUTO-CI-Response properties                   
                                                                         
[FACCTs GmbH]                                                            
  Markus Bursch, Nicolas Foglia, Miquel Garcia-Rates, Ingolf Harden, Hagen Neugebauer, Anastasios Papadopoulos, 
  Christoph Riplinger, Bernardo de Souza, Georgi L. Stoychev                                                    
                                                                 
  APM, various basis sets, CI-OPT, improved COSX, DLPNO-Multilevel,           
  DOCKER, DRACO, updates on ESD, Fragmentator, GOAT, IRC, LR-CPCM, L-BFGS, MBIS, meta-GGA TD-DFT gradient, ML-optimized integration grids, 
  MM, NACMEs, nearIR, NEB, NEB-TS, NL-DFT gradient (VV10), 2- and 3-layer-ONIOM, interface openCOSMO-RS, QMMM,   
  Crystal-QMMM, RESP, rigid body optimization, SF, symmetry and pop. for TD-DFT, various functionals, SOLVATOR                                   
                                                                         
[Other institutions]                                                     
  V. Asgeirsson          : NEB                                           
  Christoph Bannwarth    : sTDA-DFT, sTD-DFT, PBEh-3c, B97-3c, D3        
  Giovanni Bistoni       : ETS/NOCV, ADLD/ADEX, COVALED                  
  Martin Brehm           : Molecular dynamics                            
  Ronald Cardenas        : ETS/NOCV                                      
  Martina Colucci        : COVALED                                       
  Sebastian Ehlert       : rSCAN, r2SCAN, r2SCAN-3c, D4, dhf basis sets  
  Marvin Friede          : D4 for Fr, Ra, Ac-Lr                          
  Lars Goerigk           : TD-DFT with DH, B97 family of functionals     
  Stefan Grimme          : VdW corrections, initial TS optimization, DFT functionals, gCP, sTDA/sTD-DF 
  Waldemar Hujo          : DFT-NL                                        
  H. Jonsson             : NEB                                           
  Holger Kruse           : gCP                                           
  Marcel Mueller         : wB97X-3c, vDZP basis set                      
  Hagen Neugebauer       : wr2SCAN, Native XTB                           
  Gianluca Regni         : ADLD/ADEX                                     
  Tobias Risthaus        : pre 6.0 range-separated hybrid DFT and stability analysis
  Lukas Wittmann         : regularized MP2, r2SCAN double-hybrids, wr2SCAN        
                                                                         
We gratefully acknowledge several colleagues who have allowed us to      
interface, adapt or use parts of their codes:                            
  Ed Valeev, F. Pavosevic, A. Kumar             : LibInt (2-el integral package), F12 methods 
  Garnet Chan, S. Sharma, J. Yang, R. Olivares  : DMRG                   
  Ulf Ekstrom                                   : XCFun DFT Library      
  Mihaly Kallay                                 : mrcc  (arbitrary order and MRCC methods)
  Frank Weinhold                                : gennbo (NPA and NBO analysis)           
  Simon Mueller                                 : openCOSMO-RS                            
  Christopher J. Cramer and Donald G. Truhlar   : smd solvation model                     
  S Lehtola, MJT Oliveira, MAL Marques          : LibXC Library                           
  Liviu Ungur et al                             : ANISO software                          


 Your calculation uses the libint2 library for the computation of 2-el integrals
 For citations please refer to: http://libint.valeyev.net

 Your ORCA version has been built with support for libXC version: 7.0.0
 For citations please refer to: https://libxc.gitlab.io

 This ORCA versions uses:
   CBLAS   interface :  Fast vector & matrix operations
   LAPACKE interface :  Fast linear algebra routines
   SCALAPACK package :  Parallel linear algebra routines
   Shared memory     :  Shared parallel matrices
   BLAS/LAPACK       :  OpenBLAS 0.3.29  USE64BITINT DYNAMIC_ARCH NO_AFFINITY Cooperlake SINGLE_THREADED
        Core in use  :  Cooperlake
   Copyright (c) 2011-2014, The OpenBLAS Project


  ***********************************
  * Starting time: Wed May 20 12:38:34 2026
  * Host name:     c1-38
  * Process ID:    3743116
  * Working dir.:  /cluster/projects/nn14654k/ylvaos/basis_set_n_funcs/functionals/gga_c_N12/PO2/out
  ***********************************

Using LibXC functional ID  80 : Minnesota N12 correlation functional
[ 1]  R. Peverati and D. G. Truhlar.,  J. Chem. Theory Comput. 8, 2310 (2012)
Using LibXC functional ID  80 : Minnesota N12 correlation functional
[ 1]  R. Peverati and D. G. Truhlar.,  J. Chem. Theory Comput. 8, 2310 (2012)
Your calculation utilizes LibXC
by S. Lehtola, C. Steigemann, M. J. T. Oliveira & M. A. L. Marques
Please cite in your paper:
Lehtola, S.; Steigemann, C.; Oliveira, M.J.T.; Marques, M. A. L. Software X, 7, (2018), 1.
   

================================================================================

----- Orbital basis set information -----
Your calculation utilizes the basis: def2-TZVP
   F. Weigend and R. Ahlrichs, Phys. Chem. Chem. Phys. 7, 3297 (2005).

================================================================================
                                        WARNINGS
                       Please study these warnings very carefully!
================================================================================


WARNING: your system is open-shell and RHF/RKS was chosen
  ===> : WILL SWITCH to UHF/UKS


================================================================================
                                       INPUT FILE
================================================================================
NAME = /cluster/projects/nn14654k/ylvaos/basis_set_n_funcs/functionals/gga_c_N12/PO2/inp/PO2_gga_c_N12_def2tzvp.inp
|  1> ! dft def2-TZVP TightSCF
|  2> %pal nprocs 8 end
|  3> 
|  4> %loc
|  5>   LocMet NewBoys
|  6>   Occ true
|  7> end
|  8> 
|  9> %method
| 10>   exchange None
| 11>   correlation gga_c_N12
| 12> end
| 13> 
| 14> %elprop
| 15>   Dipole true
| 16>   Quadrupole true
| 17> end
| 18> 
| 19> * xyz 0 2
| 20> P    0.000000000000   0.000000000000   0.287900000000
| 21> O    0.000000000000   1.356300000000  -0.269900000000
| 22> O    0.000000000000  -1.356300000000  -0.269900000000
| 23> *
| 24> 
| 25> 
| 26>                          ****END OF INPUT****
================================================================================

                       ****************************
                       * Single Point Calculation *
                       ****************************

---------------------------------
CARTESIAN COORDINATES (ANGSTROEM)
---------------------------------
  P      0.000000    0.000000    0.287900
  O      0.000000    1.356300   -0.269900
  O      0.000000   -1.356300   -0.269900

----------------------------
CARTESIAN COORDINATES (A.U.)
----------------------------
  NO LB      ZA    FRAG     MASS         X           Y           Z
   0 P    15.0000    0    30.974    0.000000    0.000000    0.544052
   1 O     8.0000    0    15.999    0.000000    2.563036   -0.510037
   2 O     8.0000    0    15.999    0.000000   -2.563036   -0.510037

--------------------------------
INTERNAL COORDINATES (ANGSTROEM)
--------------------------------
 P      0   0   0     0.000000000000     0.00000000     0.00000000
 O      1   0   0     1.466523279733     0.00000000     0.00000000
 O      1   2   0     1.466523279733   135.28860674     0.00000000

---------------------------
INTERNAL COORDINATES (A.U.)
---------------------------
 P      0   0   0     0.000000000000     0.00000000     0.00000000
 O      1   0   0     2.771327367716     0.00000000     0.00000000
 O      1   2   0     2.771327367716   135.28860674     0.00000000

---------------------
BASIS SET INFORMATION
---------------------
There are 2 groups of distinct atoms

 Group   1 Type P   : 14s9p3d1f contracted to 5s5p2d1f pattern {73211/51111/21/1}
 Group   2 Type O   : 11s6p2d1f contracted to 5s3p2d1f pattern {62111/411/11/1}

Atom   0P    basis set group =>   1
Atom   1O    basis set group =>   2
Atom   2O    basis set group =>   2


           ************************************************************
           *        Program running with 8 parallel MPI-processes     *
           *              working on a common directory               *
           ************************************************************
------------------------------------------------------------------------------
                             ORCA STARTUP CALCULATIONS
------------------------------------------------------------------------------
------------------------------------------------------------------------------
                   ___                                                        
                  /   \      - P O W E R E D   B Y -                         
                 /     \                                                     
                 |  |  |   _    _      __       _____    __    __             
                 |  |  |  | |  | |    /  \     |  _  \  |  |  /  |          
                  \  \/   | |  | |   /    \    | | | |  |  | /  /          
                 / \  \   | |__| |  /  /\  \   | |_| |  |  |/  /          
                |  |  |   |  __  | /  /__\  \  |    /   |      \           
                |  |  |   | |  | | |   __   |  |    \   |  |\   \          
                \     /   | |  | | |  |  |  |  | |\  \  |  | \   \       
                 \___/    |_|  |_| |__|  |__|  |_| \__\ |__|  \__/        
                                                                              
                      - O R C A' S   B I G   F R I E N D -                    
                                      &                                       
                       - I N T E G R A L  F E E D E R -                       
                                                                              
 v1 FN, 2020, v2 2021, v3 2022-2024                                           
------------------------------------------------------------------------------


----------------------
SHARK INTEGRAL PACKAGE
----------------------

Number of atoms                             ...      3
Number of basis functions                   ...     99
Number of shells                            ...     35
Maximum angular momentum                    ...      3
Integral batch strategy                     ... SHARK/LIBINT Hybrid
RI-J (if used) integral strategy            ... SPLIT-RIJ (Revised 2003 algorithm where possible)
Printlevel                                  ...      1
Contraction scheme used                     ... SEGMENTED contraction
Prescreening option                         ... SCHWARTZ
   Thresh                                   ... 2.500e-11
   Tcut                                     ... 2.500e-12
   Tpresel                                  ... 2.500e-12 
Coulomb Range Separation                    ... NOT USED
Exchange Range Separation                   ... NOT USED
Multipole approximations                    ... NOT USED
Finite Nucleus Model                        ... NOT USED
CABS basis                                  ... NOT available
Auxiliary Coulomb fitting basis             ... NOT available
Auxiliary J/K fitting basis                 ... NOT available
Auxiliary Correlation fitting basis         ... NOT available
Auxiliary 'external' fitting basis          ... NOT available

Checking pre-screening integrals            ... done (  0.0 sec) Dimension = 35
   => SHARK Basis and OBASIS are compatible. Storing Pre-screening
Shell pair information
Shell pair cut-off parameter TPreSel        ...   2.5e-12
Total number of shell pairs                 ...       630
Shell pairs after pre-screening             ...       606
Total number of primitive shell pairs       ...      2358
Primitive shell pairs kept                  ...      1863
          la=0 lb=0:    108 shell pairs
          la=1 lb=0:    159 shell pairs
          la=1 lb=1:     66 shell pairs
          la=2 lb=0:     86 shell pairs
          la=2 lb=1:     66 shell pairs
          la=2 lb=2:     21 shell pairs
          la=3 lb=0:     43 shell pairs
          la=3 lb=1:     33 shell pairs
          la=3 lb=2:     18 shell pairs
          la=3 lb=3:      6 shell pairs

Checking whether 4 symmetric matrices of dimension 99 fit in memory
:Max Core in MB      =   4096.00
 MB in use           =      2.72
 MB left             =   4093.28
 MB needed           =      0.15
 Data fit in memory  = YES
Calculating Nuclear repulsion               ... done (  0.0 sec) ENN=     99.086296046297 Eh

Diagonalization of the overlap matrix:
Smallest eigenvalue                        ... 3.081e-03
Time for diagonalization                   ...    0.001 sec
Threshold for overlap eigenvalues          ... 1.000e-07
Number of eigenvalues below threshold      ... 0
Time for construction of square roots      ...    0.003 sec
Total time needed                          ...    0.007 sec

-------------------
DFT GRID GENERATION
-------------------

General Integration Accuracy     IntAcc      ... 4.388
Radial Grid Type                 RadialGrid  ... OptM3 with GC (2021)
Angular Grid (max. ang.)         AngularGrid ... 4 (Lebedev-302)
Angular grid pruning method      GridPruning ... 4 (adaptive)
Weight generation scheme         WeightScheme... mBecke (2022)
Basis function cutoff            BFCut       ... 1.0000e-11
Integration weight cutoff        WCut        ... 1.0000e-14
Partially contracted basis set               ... off
Rotationally invariant grid construction     ... off
Angular grids for H and He will be reduced by one unit

Total number of grid points                  ...    19622
Total number of batches                      ...      309
Average number of points per batch           ...       63
Average number of grid points per atom       ...     6541
Grids setup in   0.1 sec
Initializing property integral containers    ... done (  0.0 sec)

SHARK setup successfully completed in   0.2 seconds

Maximum memory used throughout the entire STARTUP-calculation: 13.9 MB


           ************************************************************
           *        Program running with 8 parallel MPI-processes     *
           *              working on a common directory               *
           ************************************************************
-------------------------------------------------------------------------------
                                 ORCA GUESS
                   Start orbitals & Density for SCF / CASSCF
-------------------------------------------------------------------------------

------------
SCF SETTINGS
------------
Hamiltonian:
 Density Functional     Method          .... DFT(GTOs)
 Exchange Functional    Exchange        .... no Exchange
  Functional kind                       .... Correlation
  Functional name                       .... Minnesota N12 correlation functional
  Functional family                     .... GGA
  Functional refs                              
    [ 0] R. Peverati and D. G. Truhlar.,  J. Chem. Theory Comput. 8, 2310 (2012), doi: 10.1021/ct3002656
  Functional external parameters        .... 10
    Parameter  0 _css0      =  1.000000e+00 : u^0 coefficient for same-spin correlation
    Parameter  1 _css1      = -5.531700e+00 : u^1 coefficient for same-spin correlation
    Parameter  2 _css2      =  3.079580e+01 : u^2 coefficient for same-spin correlation
    Parameter  3 _css3      = -5.641960e+01 : u^3 coefficient for same-spin correlation
    Parameter  4 _css4      =  3.212500e+01 : u^4 coefficient for same-spin correlation
    Parameter  5 _cos0      =  1.000000e+00 : u^0 coefficient for opposite-spin correlation
    Parameter  6 _cos1      =  3.245110e+00 : u^1 coefficient for opposite-spin correlation
    Parameter  7 _cos2      = -2.528930e+01 : u^2 coefficient for opposite-spin correlation
    Parameter  8 _cos3      =  1.444070e+01 : u^3 coefficient for opposite-spin correlation
    Parameter  9 _cos4      =  1.968700e+01 : u^4 coefficient for opposite-spin correlation
 Gradients option       PostSCFGGA      .... off


General Settings:
 Integral files         IntName         .... /cluster/projects/nn14654k/ylvaos/basis_set_n_funcs/functionals/gga_c_N12/PO2/inp/PO2_gga_c_N12_def2tzvp
 Hartree-Fock type      HFTyp           .... UHF
 Total Charge           Charge          ....    0
 Multiplicity           Mult            ....    2
 Number of Electrons    NEL             ....   31
 Basis Dimension        Dim             ....   99
 Nuclear Repulsion      ENuc            ....     99.0862960463 Eh

Convergence Acceleration:
 AO-DIIS                CNVDIIS         .... on
   Start iteration      DIISMaxIt       ....    12
   Startup error        DIISStart       ....  0.200000
   # of expansion vecs  DIISMaxEq       ....     5
   Bias factor          DIISBfac        ....   1.050
   Max. coefficient     DIISMaxC        ....  10.000
 MO-DIIS                CNVKDIIS        .... off
 Trust-Rad. Augm. Hess. CNVTRAH         .... auto
   Auto Start mean grad. ratio tolernc. ....  1.125000
   Auto Start start iteration           ....    50
   Auto Start num. interpolation iter.  ....    10
   Max. Number of Micro iterations      ....    24
   Max. Number of Macro iterations      .... Maxiter - #DIIS iter
   Number of Davidson start vectors     ....     2
   Converg. threshold    (grad. norm)   ....   1.000e-05
   Grad. Scal. Fac. for Micro threshold ....   0.100
   Minimum threshold for Micro iter.    ....   1.000e-02
   NR start threshold (gradient norm)   ....   1.000e-04
   Initial trust radius                 ....   0.400
   Minimum AH scaling param. (alpha)    ....   1.000
   Maximum AH scaling param. (alpha)    .... 1000.000
   Quad. conv. algorithm                .... NR
   White noise on init. David. guess    .... on
   Maximum white noise                  ....   0.010
   Pseudo random numbers                .... off
   Inactive MOs                         .... canonical
   Orbital update algorithm             .... Taylor
   Preconditioner                       .... Diag
   Full preconditioner red. dimension   ....   250
 SOSCF                 CNVSOSCF           .... on
   Start iteration     SOSCFMaxIt         ....   150
   Startup grad/error  SOSCFStart         ....  0.003300
   Hessian update      SOSCFHessUp        .... L-BFGS
   Autom. constraints  SOSCFAutoConstrain .... off
 Level Shifting         CNVShift        .... on
   Level shift para.    LevelShift      ....    0.2500
   Turn off err/grad.   ShiftErr        ....    0.0010
 Zerner damping         CNVZerner       .... off
 Static damping         CNVDamp         .... on
   Fraction old density DampFac         ....    0.7000
   Max. Damping (<1)    DampMax         ....    0.9800
   Min. Damping (>=0)   DampMin         ....    0.0000
   Turn off err/grad.   DampErr         ....    0.1000

SCF Procedure:
 Maximum # iterations   MaxIter         ....   125
 SCF integral mode      SCFMode         .... Direct
   Integral package                     .... SHARK and LIBINT hybrid scheme
 Reset frequency        DirectResetFreq ....    20
 Integral Threshold     Thresh          ....  2.500e-11 Eh
 Primitive CutOff       TCut            ....  2.500e-12 Eh

Convergence Tolerance:
 Convergence Check Mode ConvCheckMode   .... Total+1el-Energy
 Convergence forced     ConvForced      .... 0
 Energy Change          TolE            ....  1.000e-08 Eh
 1-El. energy change                    ....  1.000e-05 Eh
 Orbital Gradient       TolG            ....  1.000e-05
 Orbital Rotation angle TolX            ....  1.000e-05
 DIIS Error             TolErr          ....  5.000e-07

------------------------------
INITIAL GUESS: MODEL POTENTIAL
------------------------------
Loading Hartree-Fock densities                     ... done
Calculating cut-offs                               ... done
Initializing the effective Hamiltonian             ... done
Setting up the integral package (SHARK)            ... done
Starting the Coulomb interaction                   ... done (   0.0 sec)
Making the grid                                    ... done (   0.0 sec)
Mapping shells                                     ... done
Starting the XC term evaluation                    ... done (   0.0 sec)
  promolecular density results
     # of electrons  =     31.000340810
     EX              =      0.000000000
     EC              =     -1.877210814
     EX+EC           =     -1.877210814
Transforming the Hamiltonian                       ... done (   0.0 sec)
Diagonalizing the Hamiltonian                      ... done (   0.0 sec)
Back transforming the eigenvectors                 ... done (   0.0 sec)
Now organizing SCF variables                       ... done
                      ------------------
                      INITIAL GUESS DONE (   0.2 sec)
                      ------------------
             **** ENERGY FILE WAS UPDATED (/cluster/projects/nn14654k/ylvaos/basis_set_n_funcs/functionals/gga_c_N12/PO2/inp/PO2_gga_c_N12_def2tzvp.en.tmp) ****
Finished Guess after   0.4 sec
Maximum memory used throughout the entire GUESS-calculation: 6.5 MB


           ************************************************************
           *        Program running with 8 parallel MPI-processes     *
           *              working on a common directory               *
           ************************************************************

-------------------------------------------------------------------------------------------
                                      ORCA LEAN-SCF
                              memory conserving SCF solver
-------------------------------------------------------------------------------------------

----------------------------------------D-I-I-S--------------------------------------------
Iteration    Energy (Eh)           Delta-E    RMSDP     MaxDP     DIISErr   Damp  Time(sec)
-------------------------------------------------------------------------------------------
               ***  Starting incremental Fock matrix formation  ***
    1    -452.6685820415352168     0.00e+00  9.96e-02  2.46e+00  3.99e-01  0.700   0.4
Warning: op=0 Small HOMO/LUMO gap (   0.085) - skipping pre-diagonalization
         Will do a full diagonalization
    2    -453.5381383549234329    -8.70e-01  7.66e-02  1.93e+00  2.10e-01  0.700   0.4
                               ***Turning on AO-DIIS***
    3    -453.7994676260546498    -2.61e-01  4.66e-02  1.14e+00  1.00e-01  0.700   0.4
    4    -453.9606768739429867    -1.61e-01  2.46e-02  5.62e-01  5.11e-02  0.700   0.3
    5    -454.0731080567025515    -1.12e-01  4.19e-02  8.32e-01  2.95e-02  0.000   0.4
    6    -454.3318591984256614    -2.59e-01  6.29e-03  1.72e-01  5.15e-03  0.000   0.4
                              *** Initializing SOSCF ***
---------------------------------------S-O-S-C-F--------------------------------------
Iteration    Energy (Eh)           Delta-E    RMSDP     MaxDP     MaxGrad    Time(sec)
--------------------------------------------------------------------------------------
    7    -454.3321457339107496    -2.87e-04  2.67e-03  7.23e-02  1.30e-03     0.4
               *** Restarting incremental Fock matrix formation ***
    8    -454.3322023129933882    -5.66e-05  1.45e-03  3.87e-02  8.21e-04     0.4
    9    -454.3322090347784865    -6.72e-06  1.30e-03  3.39e-02  6.88e-04     0.5
   10    -454.3322067914356808     2.24e-06  1.00e-03  2.64e-02  7.95e-04     0.3
   11    -454.3322131941433213    -6.40e-06  3.15e-05  7.13e-04  7.88e-05     0.4
   12    -454.3322132035673917    -9.42e-09  3.09e-05  8.22e-04  7.78e-05     0.4
                 **** Energy Check signals convergence ****

               *****************************************************
               *                     SUCCESS                       *
               *           SCF CONVERGED AFTER  12 CYCLES          *
               *****************************************************

             **** ENERGY FILE WAS UPDATED (/cluster/projects/nn14654k/ylvaos/basis_set_n_funcs/functionals/gga_c_N12/PO2/inp/PO2_gga_c_N12_def2tzvp.en.tmp) ****

----------------
TOTAL SCF ENERGY
----------------

Total Energy       :       -454.33221325553524 Eh          -12363.00805 eV

Components:
Nuclear Repulsion  :         99.08629604629714 Eh            2696.27519 eV
Electronic Energy  :       -553.41850930183239 Eh          -15059.28324 eV
One Electron Energy:       -859.34087837840229 Eh          -23383.85411 eV
Two Electron Energy:        305.92236907656991 Eh            8324.57088 eV

Virial components:
Potential Energy   :       -918.28517876780779 Eh          -24987.81007 eV
Kinetic Energy     :        463.95296551227250 Eh           12624.80202 eV
Virial Ratio       :          1.97926351813246

DFT components:
N(Alpha)           :       16.000036814688 electrons
N(Beta)            :       15.000049115459 electrons
N(Total)           :       31.000085930146 electrons
E(X)               :        0.000000000000 Eh       
E(C)               :       -1.829040247061 Eh       
E(XC)              :       -1.829040247061 Eh       

---------------
SCF CONVERGENCE
---------------

  Last Energy change         ...    9.4241e-09  Tolerance :   1.0000e-08
  Last MAX-Density change    ...    8.2202e-04  Tolerance :   1.0000e-07
  Last RMS-Density change    ...    3.0919e-05  Tolerance :   5.0000e-09
  Last DIIS Error            ...    1.3025e-03  Tolerance :   5.0000e-07
  Last Orbital Gradient      ...    7.7768e-05  Tolerance :   1.0000e-05
  Last Orbital Rotation      ...    1.1218e-04  Tolerance :   1.0000e-05


----------------------
UHF SPIN CONTAMINATION
----------------------

Warning: in a DFT calculation there is little theoretical justification to 
         calculate <S**2> as in Hartree-Fock theory. We will do it anyways
         but you should keep in mind that the values have only limited relevance

Expectation value of <S**2>     :     0.750597
Ideal value S*(S+1) for S=0.5   :     0.750000
Deviation                       :     0.000597

----------------
ORBITAL ENERGIES
----------------
                 SPIN UP ORBITALS
  NO   OCC          E(Eh)            E(eV) 
   0   1.0000     -71.796749     -1953.6889 
   1   1.0000     -16.786172      -456.7750 
   2   1.0000     -16.786088      -456.7727 
   3   1.0000      -5.247147      -142.7821 
   4   1.0000      -3.521788       -95.8327 
   5   1.0000      -3.519878       -95.7808 
   6   1.0000      -3.518837       -95.7524 
   7   1.0000      -0.633899       -17.2493 
   8   1.0000      -0.579035       -15.7564 
   9   1.0000      -0.182707        -4.9717 
  10   1.0000      -0.129290        -3.5182 
  11   1.0000      -0.121034        -3.2935 
  12   1.0000      -0.094835        -2.5806 
  13   1.0000      -0.052224        -1.4211 
  14   1.0000      -0.038938        -1.0596 
  15   1.0000       0.026593         0.7236 
  16   0.0000       0.142565         3.8794 
  17   0.0000       0.192804         5.2465 
  18   0.0000       0.221394         6.0244 
  19   0.0000       0.346576         9.4308 
  20   0.0000       0.363091         9.8802 
  21   0.0000       0.386721        10.5232 
  22   0.0000       0.434814        11.8319 
  23   0.0000       0.464425        12.6377 
  24   0.0000       0.465748        12.6737 
  25   0.0000       0.537421        14.6240 
  26   0.0000       0.542495        14.7620 

                 SPIN DOWN ORBITALS
  NO   OCC          E(Eh)            E(eV) 
   0   1.0000     -71.796911     -1953.6933 
   1   1.0000     -16.788007      -456.8249 
   2   1.0000     -16.787921      -456.8226 
   3   1.0000      -5.248177      -142.8102 
   4   1.0000      -3.523154       -95.8699 
   5   1.0000      -3.520793       -95.8056 
   6   1.0000      -3.520618       -95.8009 
   7   1.0000      -0.637355       -17.3433 
   8   1.0000      -0.582334       -15.8461 
   9   1.0000      -0.189693        -5.1618 
  10   1.0000      -0.133462        -3.6317 
  11   1.0000      -0.125748        -3.4218 
  12   1.0000      -0.100994        -2.7482 
  13   1.0000      -0.054538        -1.4840 
  14   1.0000      -0.041754        -1.1362 
  15   0.0000       0.011636         0.3166 
  16   0.0000       0.133343         3.6285 
  17   0.0000       0.187871         5.1122 
  18   0.0000       0.218717         5.9516 
  19   0.0000       0.348416         9.4809 
  20   0.0000       0.352933         9.6038 
  21   0.0000       0.385431        10.4881 
  22   0.0000       0.423736        11.5304 
  23   0.0000       0.458720        12.4824 
  24   0.0000       0.462811        12.5937 
  25   0.0000       0.533430        14.5154 
*Only the first 10 virtual orbitals were printed.

                    ********************************
                    * MULLIKEN POPULATION ANALYSIS *
                    ********************************

--------------------------------------------
MULLIKEN ATOMIC CHARGES AND SPIN POPULATIONS
--------------------------------------------
   0 P :   -0.019030    0.748612
   1 O :    0.009515    0.125694
   2 O :    0.009515    0.125694
Sum of atomic charges         :   -0.0000000
Sum of atomic spin populations:    1.0000000

-----------------------------------------------------
MULLIKEN REDUCED ORBITAL CHARGES AND SPIN POPULATIONS
-----------------------------------------------------
CHARGE
  0 P s       :     5.949847  s :     5.949847
      pz      :     2.894299  p :     8.522819
      px      :     2.911763
      py      :     2.716757
      dz2     :     0.053348  d :     0.497416
      dxz     :     0.017621
      dyz     :     0.156273
      dx2y2   :     0.079187
      dxy     :     0.190986
      f0      :     0.002123  f :     0.048949
      f+1     :     0.000080
      f-1     :     0.018569
      f+2     :     0.006216
      f-2     :     0.006984
      f+3     :     0.008469
      f-3     :     0.006507

  1 O s       :     3.593266  s :     3.593266
      pz      :     1.430668  p :     4.375945
      px      :     1.423717
      py      :     1.521559
      dz2     :     0.003268  d :     0.020552
      dxz     :     0.001109
      dyz     :     0.005326
      dx2y2   :     0.003912
      dxy     :     0.006938
      f0      :     0.000033  f :     0.000722
      f+1     :     0.000002
      f-1     :     0.000209
      f+2     :     0.000113
      f-2     :     0.000107
      f+3     :     0.000176
      f-3     :     0.000081

  2 O s       :     3.593266  s :     3.593266
      pz      :     1.430668  p :     4.375945
      px      :     1.423717
      py      :     1.521559
      dz2     :     0.003268  d :     0.020552
      dxz     :     0.001109
      dyz     :     0.005326
      dx2y2   :     0.003912
      dxy     :     0.006938
      f0      :     0.000033  f :     0.000722
      f+1     :     0.000002
      f-1     :     0.000209
      f+2     :     0.000113
      f-2     :     0.000107
      f+3     :     0.000176
      f-3     :     0.000081


SPIN
  0 P s       :     0.715670  s :     0.715670
      pz      :     0.043072  p :     0.031748
      px      :    -0.014900
      py      :     0.003576
      dz2     :     0.004871  d :     0.001854
      dxz     :     0.001116
      dyz     :     0.000032
      dx2y2   :    -0.002957
      dxy     :    -0.001208
      f0      :    -0.000397  f :    -0.000660
      f+1     :     0.000009
      f-1     :    -0.000138
      f+2     :    -0.000231
      f-2     :    -0.000055
      f+3     :     0.000104
      f-3     :     0.000049

  1 O s       :    -0.107024  s :    -0.107024
      pz      :     0.186533  p :     0.232557
      px      :     0.007432
      py      :     0.038591
      dz2     :     0.000049  d :     0.000147
      dxz     :     0.000014
      dyz     :    -0.000184
      dx2y2   :     0.000243
      dxy     :     0.000025
      f0      :     0.000006  f :     0.000014
      f+1     :     0.000000
      f-1     :    -0.000005
      f+2     :     0.000008
      f-2     :    -0.000004
      f+3     :    -0.000000
      f-3     :     0.000009

  2 O s       :    -0.107024  s :    -0.107024
      pz      :     0.186533  p :     0.232557
      px      :     0.007432
      py      :     0.038591
      dz2     :     0.000049  d :     0.000147
      dxz     :     0.000014
      dyz     :    -0.000184
      dx2y2   :     0.000243
      dxy     :     0.000025
      f0      :     0.000006  f :     0.000014
      f+1     :     0.000000
      f-1     :    -0.000005
      f+2     :     0.000008
      f-2     :    -0.000004
      f+3     :    -0.000000
      f-3     :     0.000009



                     *******************************
                     * LOEWDIN POPULATION ANALYSIS *
                     *******************************

-------------------------------------------
LOEWDIN ATOMIC CHARGES AND SPIN POPULATIONS
-------------------------------------------
   0 P :   -0.162750    0.565911
   1 O :    0.081375    0.217045
   2 O :    0.081375    0.217045

----------------------------------------------------
LOEWDIN REDUCED ORBITAL CHARGES AND SPIN POPULATIONS
----------------------------------------------------
CHARGE
  0 P s       :     5.072078  s :     5.072078
      pz      :     2.980158  p :     8.690561
      px      :     2.853564
      py      :     2.856840
      dz2     :     0.141937  d :     1.214446
      dxz     :     0.018562
      dyz     :     0.384716
      dx2y2   :     0.344394
      dxy     :     0.324836
      f0      :     0.015172  f :     0.185665
      f+1     :     0.000159
      f-1     :     0.059790
      f+2     :     0.032569
      f-2     :     0.026888
      f+3     :     0.019752
      f-3     :     0.031336

  1 O s       :     3.511366  s :     3.511366
      pz      :     1.406426  p :     4.364378
      px      :     1.369104
      py      :     1.588849
      dz2     :     0.004587  d :     0.040848
      dxz     :     0.001034
      dyz     :     0.014138
      dx2y2   :     0.013485
      dxy     :     0.007604
      f0      :     0.000274  f :     0.002033
      f+1     :     0.000010
      f-1     :     0.000292
      f+2     :     0.000575
      f-2     :     0.000124
      f+3     :     0.000245
      f-3     :     0.000513

  2 O s       :     3.511366  s :     3.511366
      pz      :     1.406426  p :     4.364378
      px      :     1.369104
      py      :     1.588849
      dz2     :     0.004587  d :     0.040848
      dxz     :     0.001034
      dyz     :     0.014138
      dx2y2   :     0.013485
      dxy     :     0.007604
      f0      :     0.000274  f :     0.002033
      f+1     :     0.000010
      f-1     :     0.000292
      f+2     :     0.000575
      f-2     :     0.000124
      f+3     :     0.000245
      f-3     :     0.000513


SPIN
  0 P s       :     0.264470  s :     0.264470
      pz      :     0.111419  p :     0.101485
      px      :    -0.011089
      py      :     0.001155
      dz2     :     0.064598  d :     0.196566
      dxz     :     0.001154
      dyz     :    -0.001012
      dx2y2   :     0.132724
      dxy     :    -0.000897
      f0      :     0.001617  f :     0.003389
      f+1     :     0.000010
      f-1     :     0.000116
      f+2     :     0.001301
      f-2     :     0.000042
      f+3     :     0.000447
      f-3     :    -0.000144

  1 O s       :     0.027132  s :     0.027132
      pz      :     0.145607  p :     0.189192
      px      :     0.005177
      py      :     0.038408
      dz2     :     0.000179  d :     0.000665
      dxz     :    -0.000004
      dyz     :     0.000394
      dx2y2   :     0.000100
      dxy     :    -0.000004
      f0      :     0.000006  f :     0.000055
      f+1     :     0.000000
      f-1     :     0.000000
      f+2     :     0.000020
      f-2     :    -0.000003
      f+3     :     0.000001
      f-3     :     0.000032

  2 O s       :     0.027132  s :     0.027132
      pz      :     0.145607  p :     0.189192
      px      :     0.005177
      py      :     0.038408
      dz2     :     0.000179  d :     0.000665
      dxz     :    -0.000004
      dyz     :     0.000394
      dx2y2   :     0.000100
      dxy     :    -0.000004
      f0      :     0.000006  f :     0.000055
      f+1     :     0.000000
      f-1     :     0.000000
      f+2     :     0.000020
      f-2     :    -0.000003
      f+3     :     0.000001
      f-3     :     0.000032



                      *****************************
                      * MAYER POPULATION ANALYSIS *
                      *****************************

  NA   - Mulliken gross atomic population
  ZA   - Total nuclear charge
  QA   - Mulliken gross atomic charge
  VA   - Mayer's total valence
  BVA  - Mayer's bonded valence
  FA   - Mayer's free valence

  ATOM       NA         ZA         QA         VA         BVA        FA
  0 P     15.0190    15.0000    -0.0190     4.6118     4.0290     0.5828
  1 O      7.9905     8.0000     0.0095     2.1307     2.1273     0.0034
  2 O      7.9905     8.0000     0.0095     2.1307     2.1273     0.0034

  Mayer bond orders larger than 0.100000
B(  0-P ,  1-O ) :   2.0145 B(  0-P ,  2-O ) :   2.0145 B(  1-O ,  2-O ) :   0.1128 


-------
TIMINGS
-------

Total SCF time: 0 days 0 hours 0 min 5 sec 

Total time                  ....       5.221 sec
Sum of individual times     ....       4.960 sec  ( 95.0%)

SCF preparation             ....       0.112 sec  (  2.1%)
Fock matrix formation       ....       2.865 sec  ( 54.9%)
  Startup                   ....       0.113 sec  (  3.9% of F)
  Coulomb formation         ....       0.570 sec  ( 19.9% of F)
  XC integration            ....       1.001 sec  ( 34.9% of F)
    XC Preparation          ....       0.000 sec  (  0.0% of XC)
    Basis function eval.    ....       0.027 sec  (  2.7% of XC)
    Density eval.           ....       0.025 sec  (  2.5% of XC)
    XC-Functional eval.     ....       0.017 sec  (  1.7% of XC)
    XC-Potential eval.      ....       0.062 sec  (  6.2% of XC)
Diagonalization             ....       0.000 sec  (  0.0%)
Density matrix formation    ....       0.811 sec  ( 15.5%)
Total Energy calculation    ....       0.054 sec  (  1.0%)
Population analysis         ....       0.048 sec  (  0.9%)
Orbital Transformation      ....       0.138 sec  (  2.7%)
Orbital Orthonormalization  ....       0.000 sec  (  0.0%)
DIIS solution               ....       0.524 sec  ( 10.0%)
SOSCF solution              ....       0.408 sec  (  7.8%)
Finished LeanSCF after   5.3 sec

Maximum memory used throughout the entire LEANSCF-calculation: 13.7 MB


           ************************************************************
           *        Program running with 8 parallel MPI-processes     *
           *              working on a common directory               *
           ************************************************************

------------------------------------------------------------------------------
                         ORCA PROPERTY INTEGRAL CALCULATIONS
------------------------------------------------------------------------------

GBWName                                   ... /cluster/projects/nn14654k/ylvaos/basis_set_n_funcs/functionals/gga_c_N12/PO2/inp/PO2_gga_c_N12_def2tzvp.gbw
Number of atoms                           ...      3
Number of basis functions                 ...     99
Max core memory                           ...   4096 MB

Dipole integrals                          ... YES
Quadrupole integrals                      ... YES
Linear momentum integrals                 ...  NO
Angular momentum integrals                ...  NO
Higher moments length integrals           ...  NO
Higher moments velocity integrals         ...  NO
Kinetic energy integrals                  ...  NO
GIAO right hand sides                     ...  NO
GIAO dipole derivative integrals          ...  NO
SOC integrals                             ...  NO
EPR diamagnetic integrals (GIAO)          ...  NO
EPR gauge integrals                       ...  NO
Field gradient integrals                  ...  NO (   0 nuclei)
Spin-dipole/Fermi contact integrals       ...  NO (   0 nuclei)
Contact density integrals                 ...  NO (   0 nuclei)
Nucleus-orbit integrals                   ...  NO (   0 nuclei)
Geometric perturbations                   ...  NO (   3 nuclei)

Choice of electric origin   ... Center of mass
Position of electric origin ... (  0.0000,  0.0000,  0.0084) 
Choice of magnetic origin   ... GIAO
Position of magnetic origin ... (  0.0000,  0.0000,  0.0000) 

Calculating integrals                     ... Electric Dipole (Length)     done (  0.0 sec)
Calculating integrals                     ... Electric Quadrupole (Length) done (  0.0 sec)

Property integrals calculated in   0.0 sec

Maximum memory used throughout the entire PROPINT-calculation: 6.9 MB
------------------------------------------------------------------------------
                           ORCA ORBITAL LOCALIZATION
------------------------------------------------------------------------------

Input orbitals are from                  ... /cluster/projects/nn14654k/ylvaos/basis_set_n_funcs/functionals/gga_c_N12/PO2/inp/PO2_gga_c_N12_def2tzvp.gbw
Output orbitals are to                   ... /cluster/projects/nn14654k/ylvaos/basis_set_n_funcs/functionals/gga_c_N12/PO2/inp/PO2_gga_c_N12_def2tzvp.loc
Max. number of iterations                ... 128
Localizations seeded randomly            ... on
Convergence tolerance                    ... 1.000e-06
Threshold for strong local MOs           ... 9.500e-01
Threshold for bond MOs                   ... 8.500e-01
Operator                                 ... 0
Orbital range for localization           ... 4 to 15
Localization criterion                   ... NEW-BOYS
Doing the dipole integrals               ... o.k.
Initial value of the localization sum :    26.942147
ITERATION   0 : L=   46.5442862329 DL=  1.96e+01 (AVERGE_DL)=    0.5449789927 
ITERATION   1 : L=   50.6017982262 DL=  4.06e+00 (AVERGE_DL)=    0.2479464750 
ITERATION   2 : L=   51.0390787378 DL=  4.37e-01 (AVERGE_DL)=    0.0813969428 
ITERATION   3 : L=   51.0579204522 DL=  1.88e-02 (AVERGE_DL)=    0.0168961688 
ITERATION   4 : L=   51.0599688503 DL=  2.05e-03 (AVERGE_DL)=    0.0055710265 
ITERATION   5 : L=   51.0608185751 DL=  8.50e-04 (AVERGE_DL)=    0.0035881218 
ITERATION   6 : L=   51.0612074339 DL=  3.89e-04 (AVERGE_DL)=    0.0024273029 
ITERATION   7 : L=   51.0613869091 DL=  1.79e-04 (AVERGE_DL)=    0.0016490366 
ITERATION   8 : L=   51.0614677847 DL=  8.09e-05 (AVERGE_DL)=    0.0011069726 
ITERATION   9 : L=   51.0615037629 DL=  3.60e-05 (AVERGE_DL)=    0.0007383252 
ITERATION  10 : L=   51.0615196614 DL=  1.59e-05 (AVERGE_DL)=    0.0004908010 
ITERATION  11 : L=   51.0615266674 DL=  7.01e-06 (AVERGE_DL)=    0.0003258094 
ITERATION  12 : L=   51.0615297515 DL=  3.08e-06 (AVERGE_DL)=    0.0002161698 
ITERATION  13 : L=   51.0615311081 DL=  1.36e-06 (AVERGE_DL)=    0.0001433657 
ITERATION  14 : L=   51.0615317054 DL=  5.97e-07 (AVERGE_DL)=    0.0000951324 
LOCALIZATION SUM CONVERGED


--------------------------------------------------------------------------------
                    LOCALIZED MOLECULAR ORBITAL COMPOSITIONS
--------------------------------------------------------------------------------

The Mulliken populations for each LMO on each atom are computed
The LMO`s will be ordered according to atom index and type
  (A) Strongly localized MO`s have populations of >=0.950 on one atom
  (B) Two center bond orbitals have populations of >=0.850 on two atoms
  (C) Other MO`s are considered to be `delocalized`

FOUND  -   4 strongly local MO`s
       -   8 two center bond MO`s
       -   0 significantly delocalized MO`s

Rather strongly localized orbitals:
MO   7:   0P  -   1.001332
MO   6:   0P  -   1.001332
MO   5:   0P  -   1.003097
MO   4:   0P  -   1.276556
Bond-like localized orbitals:
MO  15:   2O  -   0.880512  and   0P  -   0.132208
MO  14:   2O  -   0.747044  and   0P  -   0.262931
MO  13:   2O  -   0.747041  and   0P  -   0.262900
MO  12:   2O  -   0.879206  and   0P  -   0.118911
MO  11:   1O  -   0.747043  and   0P  -   0.262884
MO  10:   1O  -   0.747017  and   0P  -   0.262983
MO   9:   1O  -   0.879206  and   0P  -   0.118908
MO   8:   1O  -   0.880540  and   0P  -   0.132174
Localized MO's were stored in: /cluster/projects/nn14654k/ylvaos/basis_set_n_funcs/functionals/gga_c_N12/PO2/inp/PO2_gga_c_N12_def2tzvp.loc
------------------------------------------------------------------------------
                           ORCA ORBITAL LOCALIZATION
------------------------------------------------------------------------------

Input orbitals are from                  ... /cluster/projects/nn14654k/ylvaos/basis_set_n_funcs/functionals/gga_c_N12/PO2/inp/PO2_gga_c_N12_def2tzvp.loc
Output orbitals are to                   ... /cluster/projects/nn14654k/ylvaos/basis_set_n_funcs/functionals/gga_c_N12/PO2/inp/PO2_gga_c_N12_def2tzvp.loc
Max. number of iterations                ... 128
Localizations seeded randomly            ... on
Convergence tolerance                    ... 1.000e-06
Threshold for strong local MOs           ... 9.500e-01
Threshold for bond MOs                   ... 8.500e-01
Operator                                 ... 1
Orbital range for localization           ... 4 to 14
Localization criterion                   ... NEW-BOYS
Doing the dipole integrals               ... o.k.
Initial value of the localization sum :    25.547085
ITERATION   0 : L=   37.5404649802 DL=  1.20e+01 (AVERGE_DL)=    0.4669704975 
ITERATION   1 : L=   42.2581330695 DL=  4.72e+00 (AVERGE_DL)=    0.2928750304 
ITERATION   2 : L=   42.8082200898 DL=  5.50e-01 (AVERGE_DL)=    0.1000079106 
ITERATION   3 : L=   42.8281462489 DL=  1.99e-02 (AVERGE_DL)=    0.0190340169 
ITERATION   4 : L=   42.8301411950 DL=  1.99e-03 (AVERGE_DL)=    0.0060226032 
ITERATION   5 : L=   42.8320420563 DL=  1.90e-03 (AVERGE_DL)=    0.0058788700 
ITERATION   6 : L=   42.8340690673 DL=  2.03e-03 (AVERGE_DL)=    0.0060708109 
ITERATION   7 : L=   42.8361462985 DL=  2.08e-03 (AVERGE_DL)=    0.0061455545 
ITERATION   8 : L=   42.8382155121 DL=  2.07e-03 (AVERGE_DL)=    0.0061336829 
ITERATION   9 : L=   42.8402269898 DL=  2.01e-03 (AVERGE_DL)=    0.0060475054 
ITERATION  10 : L=   42.8421367391 DL=  1.91e-03 (AVERGE_DL)=    0.0058925982 
ITERATION  11 : L=   42.8439099617 DL=  1.77e-03 (AVERGE_DL)=    0.0056780640 
ITERATION  12 : L=   42.8455229987 DL=  1.61e-03 (AVERGE_DL)=    0.0054155282 
ITERATION  13 : L=   42.8469635988 DL=  1.44e-03 (AVERGE_DL)=    0.0051178833 
ITERATION  14 : L=   42.8482296242 DL=  1.27e-03 (AVERGE_DL)=    0.0047977749 
ITERATION  15 : L=   42.8493269279 DL=  1.10e-03 (AVERGE_DL)=    0.0044666517 
ITERATION  16 : L=   42.8502669539 DL=  9.40e-04 (AVERGE_DL)=    0.0041341724 
ITERATION  17 : L=   42.8510644916 DL=  7.98e-04 (AVERGE_DL)=    0.0038079764 
ITERATION  18 : L=   42.8517358238 DL=  6.71e-04 (AVERGE_DL)=    0.0034937145 
ITERATION  19 : L=   42.8522973572 DL=  5.62e-04 (AVERGE_DL)=    0.0031952619 
ITERATION  20 : L=   42.8527647175 DL=  4.67e-04 (AVERGE_DL)=    0.0029150402 
ITERATION  21 : L=   42.8531521986 DL=  3.87e-04 (AVERGE_DL)=    0.0026542628 
ITERATION  22 : L=   42.8534725262 DL=  3.20e-04 (AVERGE_DL)=    0.0024133253 
ITERATION  23 : L=   42.8537367724 DL=  2.64e-04 (AVERGE_DL)=    0.0021919115 
ITERATION  24 : L=   42.8539544355 DL=  2.18e-04 (AVERGE_DL)=    0.0019893496 
ITERATION  25 : L=   42.8541335395 DL=  1.79e-04 (AVERGE_DL)=    0.0018045595 
ITERATION  26 : L=   42.8542808494 DL=  1.47e-04 (AVERGE_DL)=    0.0016365703 
ITERATION  27 : L=   42.8544019737 DL=  1.21e-04 (AVERGE_DL)=    0.0014840015 
ITERATION  28 : L=   42.8545015664 DL=  9.96e-05 (AVERGE_DL)=    0.0013456509 
ITERATION  29 : L=   42.8545834771 DL=  8.19e-05 (AVERGE_DL)=    0.0012203628 
ITERATION  30 : L=   42.8546508695 DL=  6.74e-05 (AVERGE_DL)=    0.0011069396 
ITERATION  31 : L=   42.8547063420 DL=  5.55e-05 (AVERGE_DL)=    0.0010042865 
ITERATION  32 : L=   42.8547520299 DL=  4.57e-05 (AVERGE_DL)=    0.0009114212 
ITERATION  33 : L=   42.8547896844 DL=  3.77e-05 (AVERGE_DL)=    0.0008274219 
ITERATION  34 : L=   42.8548207372 DL=  3.11e-05 (AVERGE_DL)=    0.0007513964 
ITERATION  35 : L=   42.8548463640 DL=  2.56e-05 (AVERGE_DL)=    0.0006825994 
ITERATION  36 : L=   42.8548675269 DL=  2.12e-05 (AVERGE_DL)=    0.0006203068 
ITERATION  37 : L=   42.8548850161 DL=  1.75e-05 (AVERGE_DL)=    0.0005639023 
ITERATION  38 : L=   42.8548994793 DL=  1.45e-05 (AVERGE_DL)=    0.0005128029 
ITERATION  39 : L=   42.8549114483 DL=  1.20e-05 (AVERGE_DL)=    0.0004664947 
ITERATION  40 : L=   42.8549213592 DL=  9.91e-06 (AVERGE_DL)=    0.0004244988 
ITERATION  41 : L=   42.8549295723 DL=  8.21e-06 (AVERGE_DL)=    0.0003864310 
ITERATION  42 : L=   42.8549363812 DL=  6.81e-06 (AVERGE_DL)=    0.0003518497 
ITERATION  43 : L=   42.8549420305 DL=  5.65e-06 (AVERGE_DL)=    0.0003204909 
ITERATION  44 : L=   42.8549467199 DL=  4.69e-06 (AVERGE_DL)=    0.0002919976 
ITERATION  45 : L=   42.8549506139 DL=  3.89e-06 (AVERGE_DL)=    0.0002660815 
ITERATION  46 : L=   42.8549538495 DL=  3.24e-06 (AVERGE_DL)=    0.0002425477 
ITERATION  47 : L=   42.8549565409 DL=  2.69e-06 (AVERGE_DL)=    0.0002212101 
ITERATION  48 : L=   42.8549587782 DL=  2.24e-06 (AVERGE_DL)=    0.0002016904 
ITERATION  49 : L=   42.8549606409 DL=  1.86e-06 (AVERGE_DL)=    0.0001840284 
ITERATION  50 : L=   42.8549621908 DL=  1.55e-06 (AVERGE_DL)=    0.0001678679 
ITERATION  51 : L=   42.8549634819 DL=  1.29e-06 (AVERGE_DL)=    0.0001532180 
ITERATION  52 : L=   42.8549645573 DL=  1.08e-06 (AVERGE_DL)=    0.0001398270 
ITERATION  53 : L=   42.8549654541 DL=  8.97e-07 (AVERGE_DL)=    0.0001276921 
LOCALIZATION SUM CONVERGED


--------------------------------------------------------------------------------
                    LOCALIZED MOLECULAR ORBITAL COMPOSITIONS
--------------------------------------------------------------------------------

The Mulliken populations for each LMO on each atom are computed
The LMO`s will be ordered according to atom index and type
  (A) Strongly localized MO`s have populations of >=0.950 on one atom
  (B) Two center bond orbitals have populations of >=0.850 on two atoms
  (C) Other MO`s are considered to be `delocalized`

FOUND  -   3 strongly local MO`s
       -   8 two center bond MO`s
       -   0 significantly delocalized MO`s

Rather strongly localized orbitals:
MO   6:   0P  -   1.002783
MO   5:   0P  -   1.000408
MO   4:   0P  -   1.000409
Bond-like localized orbitals:
MO  14:   2O  -   0.544728  and   0P  -   0.445758
MO  13:   2O  -   0.756351  and   0P  -   0.250957
MO  12:   2O  -   0.757197  and   0P  -   0.250159
MO  11:   2O  -   0.908082  and   0P  -   0.094742
MO  10:   1O  -   0.544726  and   0P  -   0.445761
MO   9:   1O  -   0.908081  and   0P  -   0.094743
MO   8:   1O  -   0.756136  and   0P  -   0.251154
MO   7:   1O  -   0.757413  and   0P  -   0.249962
Localized MO's were stored in: /cluster/projects/nn14654k/ylvaos/basis_set_n_funcs/functionals/gga_c_N12/PO2/inp/PO2_gga_c_N12_def2tzvp.loc

-------------------------   --------------------
FINAL SINGLE POINT ENERGY      -454.332213255535
-------------------------   --------------------



           ************************************************************
           *        Program running with 8 parallel MPI-processes     *
           *              working on a common directory               *
           ************************************************************

------------------------------------------------------------------------------
                              ORCA PROPERTY CALCULATIONS
------------------------------------------------------------------------------

GBWName                                 ... /cluster/projects/nn14654k/ylvaos/basis_set_n_funcs/functionals/gga_c_N12/PO2/inp/PO2_gga_c_N12_def2tzvp.gbw
Number of atoms                         ...      3
Number of basis functions               ...     99
Max core memory                         ...   4096 MB

Electric properties:
Dipole moment                           ... YES
Quadrupole moment                       ... YES
Static polarizability (Dipole/Dipole)   ...  NO
Static polarizability (Dipole/Quad.)    ...  NO
Static polarizability (Quad./Quad.)     ...  NO
Static polarizability (Velocity)        ...  NO
Static hyperpolarizability              ...  NO

Atomic electric properties:
Dipole moment                           ...  NO
Quadrupole moment                       ...  NO
Static polarizability                   ...  NO

Choice of electric origin               ... Center of mass
Position of electric origin             ...     0.000000     0.000000     0.008437

General magnetic properties:
Magnetizability                         ...  NO

EPR properties:
g-Tensor (aka g-matrix)                 ...  NO
Zero-Field splitting spin-orbit         ...  NO
Zero-field splitting spin-spin          ...  NO
Hyperfine couplings                     ...  NO (   0 nuclei)
Quadrupole couplings                    ...  NO (   0 nuclei)
Contact density                         ...  NO (   0 nuclei)

NMR properties:
Chemical shifts                         ...  NO (   0 nuclei)
Spin-rotation constants                 ...  NO (   0 nuclei)
Spin-spin couplings                     ...  NO (   0 nuclei,    0 pairs)

Choice of magnetic origin               ... GIAO
Position of magnetic origin             ...     0.000000     0.000000     0.000000

Properties with geometric perturbations:
SCF Hessian                             ...  NO
IR spectrum                             ...  NO
VCD spectrum                            ...  NO
X-ray spectroscopy properties:
SCF XES/XAS/RIXS spectra                ...  NO

SCF SOC stabilization energy            ...  NO
Diagonal Born-Oppenheimer correction    ...  NO

-------------
DIPOLE MOMENT
-------------

Method             : SCF
Type of density    : Electron Density
Multiplicity       :   2
Irrep              :   0
Energy             :  -454.3322132555352368 Eh
Basis              : AO
                                X                 Y                 Z
Electronic contribution:     -0.000000000       0.000000000       0.352461352
Nuclear contribution   :      0.000000000       0.000000000      -0.261362976
                        -----------------------------------------
Total Dipole Moment    :     -0.000000000       0.000000000       0.091098375
                        -----------------------------------------
Magnitude (a.u.)       :      0.091098375
Magnitude (Debye)      :      0.231553669



--------------------
Rotational spectrum 
--------------------
 
Rotational constants in cm-1:             3.442444             0.286393             0.264396 
Rotational constants in MHz :        103201.869580          8585.841533          7926.407020 

Dipole components along the rotational axes: 
x,y,z [a.u.] :     0.000000     0.091098    -0.000000 
x,y,z [Debye]:     0.000000     0.231554    -0.000000 

 

Dipole moment calculation done in   0.0 sec 

-----------------
QUADRUPOLE MOMENT
-----------------

Method             : SCF
Type of density    : Electron Density
Multiplicity       :   2
Irrep              :   0
Energy             :  -454.3322132555352368 Eh
Basis              : AO

                XX              YY              ZZ              XY              XZ              YZ
  NUC        0.000000000   105.106420135     8.604299986     0.000000000     0.000000000     0.000000000
  EL       -21.166085473  -129.902167736   -30.441885529     0.000000001    -0.000000001    -0.000000002
  TOT      -21.166085473   -24.795747601   -21.837585544     0.000000001    -0.000000001    -0.000000002 (a.u.)
           -28.469108841   -33.351128538   -29.372299402     0.000000001    -0.000000002    -0.000000002 (Buckingham)

diagonalized tensor:
           -24.795747601   -21.837585544   -21.166085473 (a.u.)
           -33.351128538   -29.372299402   -28.469108841 (Buckingham)
            -8.860848834     3.075638575     5.785210258 (traceless form in Buckingham)

            -0.000000000     0.000000002     1.000000000
             1.000000000    -0.000000001     0.000000000
             0.000000001     1.000000000    -0.000000002
        
Isotropic quadrupole :   -22.599806206

Quadrupole moment calculation done in   0.0 sec (  0.0 sec for integrals)

Maximum memory used throughout the entire PROP-calculation: 3.4 MB

--------------------------------
SUGGESTED CITATIONS FOR THIS RUN
--------------------------------

Below you find a list of papers that are relevant to this ORCA run
We neither can nor want to force you to cite these papers, but we appreciate if you do
You receive ORCA, which is the product of decades of hard work by many enthusiastic individuals, for free
The only thing we kindly ask in return is that you cite our papers,
We deeply appreciate it, if you show your appreciation for ORCA by not just citing the generic ORCA reference.

Please note that relegating all ORCA citations to the supporting information does *not* help us.
SI sections are not indexed - citations you put there will not count into any citation statistics
But we need these citations in order to attract the funding resources that allow us to do what we are doing

Therefore, if you are a happy ORCA user, please consider citing a few of the papers listed below in the main body of your paper

In addition to the list printed below, the program has created the file /cluster/projects/nn14654k/ylvaos/basis_set_n_funcs/functionals/gga_c_N12/PO2/inp/PO2_gga_c_N12_def2tzvp.bibtex that contains the list in bibtex format
You can import this file easily into all common literature databanks and citation aid programs

It goes without saying that in many instances, there are alternative algorithms to achieve similar
results as the ones you have gotten from ORCA. It is, of course, also the case that in some instances
ORCA just re-implements algorithms worked out by others. We are fully aware of that and we are also
fully appreciative of our colleagues work. Hence this citation list should not be read as indicating
that the listed papers, which are focused on our own work, are the only ones worth citing. It simply
meant to make it easier for users to cite ORCA specific papers. It is not a substitute for doing your
own literature research and citing the relevant literature in a scientifically appropriate manner.

List of essential papers. We consider these as the minimum necessary citations

  1. Neese, F.
     Software update: the ORCA program system, version 6.0
     WIRES Comput. Molec. Sci. 2025 15(1), e70019
     doi.org/10.1002/wcms.70019

List of papers to cite with high priority. The work reported in these papers was absolutely
necessary for this run to complete.
Our perspective: the developers of density functionals and basis sets usually get cited in chemistry papers
Good! But without the algorithms to do something with them, the functionals or basis sets would not do anything.
Hence, in our opinion, the algorithm design and method developments papers are equally worthy of getting cited

  1. Lehtola, S.; Steigemann, C.; Oliveira, M.; Marques, M.
     Recent developments in Libxc - A comprehensive library of functionals for density functional theory
     Software X 2018 7 , 
     doi.org/10.1016/j.softx.2017.11.002
  2. Neese, F.
     The SHARK Integral Generation and Digestion System
     J. Comp. Chem. 2022 44(3), 381
     doi.org/10.1002/jcc.26942

List of suggested additional citations. These are papers that are important in the 'surrounding' of 
of this run, or papers that preceded the highly important papers. If you like your results we are grateful for a citation.

  1. Neese, F.
     The ORCA program system
     WIRES Comput. Molec. Sci. 2012 2(1), 73-78
     doi.org/10.1002/wcms.81
  2. Neese, F.
     Software update: the ORCA program system, version 4.0
     WIRES Comput. Molec. Sci. 2018 8(1), 1-6
     doi.org/10.1002/wcms.1327
  3. Neese, F.; Wennmohs, F.; Becker, U.; Riplinger, C.
     The ORCA quantum chemistry program package
     J. Chem. Phys. 2020 152(22), 224108
     doi.org/10.1063/5.0004608
  4. Neese, F.
     Software update: The ORCA program system—Version 5.0
     WIRES Comput. Molec. Sci. 2022 12(1), e1606
     doi.org/10.1002/wcms.1606

List of optional additional citations

  1. Neese, F.
     Approximate second-order SCF convergence for spin unrestricted wavefunctions
     Chem. Phys. Lett. 2000 325(1-3), 93-98
     doi.org/10.1016/s0009-2614(00)00662-x

Timings for individual modules:

Sum of individual times          ...        7.303 sec (=   0.122 min)
Startup calculation              ...        0.491 sec (=   0.008 min)   6.7 %
SCF iterations                   ...        6.148 sec (=   0.102 min)  84.2 %
Property integrals               ...        0.256 sec (=   0.004 min)   3.5 %
Property calculations            ...        0.398 sec (=   0.007 min)   5.5 %
Orbital localization             ...        0.010 sec (=   0.000 min)   0.1 %
                             ****ORCA TERMINATED NORMALLY****
TOTAL RUN TIME: 0 days 0 hours 0 minutes 9 seconds 65 msec
