
                                 *****************
                                 * O   R   C   A *
                                 *****************

                                            #,                                       
                                            ###                                      
                                            ####                                     
                                            #####                                    
                                            ######                                   
                                           ########,                                 
                                     ,,################,,,,,                         
                               ,,#################################,,                 
                          ,,##########################################,,             
                       ,#########################################, ''#####,          
                    ,#############################################,,   '####,        
                  ,##################################################,,,,####,       
                ,###########''''           ''''###############################       
              ,#####''   ,,,,##########,,,,          '''####'''          '####       
            ,##' ,,,,###########################,,,                        '##       
           ' ,,###''''                  '''############,,,                           
         ,,##''                                '''############,,,,        ,,,,,,###''
      ,#''                                            '''#######################'''  
     '                                                          ''''####''''         
             ,#######,   #######,   ,#######,      ##                                
            ,#'     '#,  ##    ##  ,#'     '#,    #''#        ,####,    ,#,          
            ##       ##  ##   ,#'  ##            #'  '#       #'       ,# #          
            ##       ##  #######   ##           ,######,      #####,      #          
            '#,     ,#'  ##    ##  '#,     ,#' ,#      #,     #,   #      #          
             '#######'   ##     ##  '#######'  #'      '#     '####' #    #          



                #########################################################
                #                        -***-                          #
                #          Department of theory and spectroscopy        #
                #                                                       #
                #                      Frank Neese                      #
                #                                                       #
                #     Directorship, Architecture, Infrastructure        #
                #                    SHARK, DRIVERS                     #
                #        Core code/Algorithms in most modules           #
                #                                                       #
                #        Max Planck Institute fuer Kohlenforschung      #
                #                Kaiser Wilhelm Platz 1                 #
                #                 D-45470 Muelheim/Ruhr                 #
                #                      Germany                          #
                #                                                       #
                #                  All rights reserved                  #
                #                        -***-                          #
                #########################################################


                         Program Version 6.1.1  -  RELEASE   -
                                (GIT: $487d211c$)
                          ($2025-11-21 10:33:24 +0100$)


 With contributions from (in alphabetic order):
[Max-Planck-Institut fuer Kohlenforschung]                               
  Daniel Aravena         : Magnetic Suceptibility                        
  Michael Atanasov       : Ab Initio Ligand Field Theory (pilot matlab implementation)
  Alexander A. Auer      : GIAO ZORA, VPT2 properties, NMR spectrum      
  Ute Becker             : All parallelization in ORCA, NUMFREQ, NUMCALC 
  Giovanni Bistoni       : ED, misc. LED, open-shell LED, HFLD           
  Dmytro Bykov           : pre 5.0 version of the SCF Hessian            
  Marcos Casanova-Páez   : Triplet and SCS-CIS(D). UHF-(DLPNO)-IP/EA/STEOM-CCSD. UHF-CVS-IP/STEOM-CCSD   
  Vijay G. Chilkuri      : MRCI spin determinant printing, contributions to CSF-ICE 
  Pauline Colinet        : FMM embedding                                 
  Dipayan Datta          : RHF DLPNO-CCSD density                        
  Achintya Kumar Dutta   : EOM-CC, STEOM-CC                              
  Nicolas Foglia         : Exact transition moments, OPA infrastructure, MCD improvements    
  Dmitry Ganyushin       : Spin-Orbit,Spin-Spin,Magnetic field MRCI      
  Miquel Garcia-Rates    : C-PCM and meta-GGA Hessian, CCSD/C-PCM, Gaussian charge scheme 
  Tiago L. C. Gouveia    : GS-ROHF, GS-ROCIS                             
  Yang Guo               : DLPNO-NEVPT2, F12-NEVPT2, CIM, IAO-localization        
  Andreas Hansen         : Spin unrestricted coupled pair/coupled cluster methods 
  Ingolf Harden          : AUTO-CI MPn and infrastructure                
  Benjamin Helmich-Paris : MC-RPA, TRAH-(SCF,CASSCF), AVAS, COSX integrals, SCF dyn. polar., MC-PDFT, srDFT 
  Lee Huntington         : MR-EOM, pCC                                   
  Robert Izsak           : Overlap fitted RIJCOSX, COSX-SCS-MP3, EOM     
  Riya Kayal             : Wick's Theorem for AUTO-CI, AUTO-CI UHF-CCSDT 
  Emily Kempfer          : AUTO-CI RHF CISDT and CCSDT, approximate NEVPT4
  Christian Kollmar      : KDIIS, OOCD, Brueckner-CCSD(T), CCSD density, CASPT2, CASPT2-K, improved NEVPT2 
  Axel Koslowski         : Symmetry handling                             
  Simone Kossmann        : meta-GGA functionals, TD-DFT gradient, OOMP2, (MP2 Hessian; deprecated post 5.0) 
  Lucas Lang             : DCDCAS, Hyperfine gauge corrections, ICE-SOC+SSC
  Marvin Lechner         : AUTO-CI (C++ implementation), FIC-MRCC        
  Spencer Leger          : CASSCF response                               
  Dagmar Lenk            : GEPOL surface, SMD, ORCA-2-JSON               
  Dimitrios Liakos       : Extrapolation schemes; Compound Job, Property file
  Dimitrios Manganas     : Further ROCIS development; embedding schemes. LFT, Crystal Embedding 
  Dimitrios Pantazis     : SARC Basis sets                               
  Anastasios Papadopoulos: AUTO-CI, single reference methods and gradients 
  Taras Petrenko         : pre 6.0 DFT Hessian and TD-DFT gradient,  ECA, NRVS 
  Petra Pikulova         : Analytic Raman intensities                    
  Peter Pinski           : DLPNO-MP2, DLPNO-MP2 Gradient                 
  Shashank Vittal Rao    : ES-AILFT, MagRelax                            
  Christoph Reimann      : Effective Core Potentials                     
  Marius Retegan         : Local ZFS, SOC                                
  Christoph Riplinger    : Optimizer, TS searches, QM/MM, DLPNO-CCSD(T), (RO)-DLPNO pert. Triples 
  Michael Roemelt        : Original ROCIS implementation, recursive CI coupling coefficients
  Masaaki Saitow         : Open-shell DLPNO-CCSD energy and density      
  Barbara Sandhoefer     : DKH picture change effects                    
  Yorick L. A. Schmerwitz: GMF and freeze-and-release deltaSCF, NEB S-IDPP initial path                    
  Kantharuban Sivalingam : CASSCF convergence/infrastructure, NEVPT2, NEVPT3, NEVPT4(SD), FIC-MRCI and CEPA variants
  Bernardo de Souza      : ESD, SOC TD-DFT                               
  Georgi L. Stoychev     : AutoAux, RI-MP2 NMR, DLPNO-MP2 response, X2C  
  Van Anh Tran           : RI-MP2 g-tensors                              
  Willem Van den Heuvel  : Paramagnetic NMR                              
  Zikuan Wang            : NOTCH, Electric field optimization            
  Frank Wennmohs         : Technical directorship and infrastructure     
  Hang Xu                : AUTO-CI-Response properties                   
                                                                         
[FACCTs GmbH]                                                            
  Markus Bursch, Nicolas Foglia, Miquel Garcia-Rates, Ingolf Harden, Hagen Neugebauer, Anastasios Papadopoulos, 
  Christoph Riplinger, Bernardo de Souza, Georgi L. Stoychev                                                    
                                                                 
  APM, various basis sets, CI-OPT, improved COSX, DLPNO-Multilevel,           
  DOCKER, DRACO, updates on ESD, Fragmentator, GOAT, IRC, LR-CPCM, L-BFGS, MBIS, meta-GGA TD-DFT gradient, ML-optimized integration grids, 
  MM, NACMEs, nearIR, NEB, NEB-TS, NL-DFT gradient (VV10), 2- and 3-layer-ONIOM, interface openCOSMO-RS, QMMM,   
  Crystal-QMMM, RESP, rigid body optimization, SF, symmetry and pop. for TD-DFT, various functionals, SOLVATOR                                   
                                                                         
[Other institutions]                                                     
  V. Asgeirsson          : NEB                                           
  Christoph Bannwarth    : sTDA-DFT, sTD-DFT, PBEh-3c, B97-3c, D3        
  Giovanni Bistoni       : ETS/NOCV, ADLD/ADEX, COVALED                  
  Martin Brehm           : Molecular dynamics                            
  Ronald Cardenas        : ETS/NOCV                                      
  Martina Colucci        : COVALED                                       
  Sebastian Ehlert       : rSCAN, r2SCAN, r2SCAN-3c, D4, dhf basis sets  
  Marvin Friede          : D4 for Fr, Ra, Ac-Lr                          
  Lars Goerigk           : TD-DFT with DH, B97 family of functionals     
  Stefan Grimme          : VdW corrections, initial TS optimization, DFT functionals, gCP, sTDA/sTD-DF 
  Waldemar Hujo          : DFT-NL                                        
  H. Jonsson             : NEB                                           
  Holger Kruse           : gCP                                           
  Marcel Mueller         : wB97X-3c, vDZP basis set                      
  Hagen Neugebauer       : wr2SCAN, Native XTB                           
  Gianluca Regni         : ADLD/ADEX                                     
  Tobias Risthaus        : pre 6.0 range-separated hybrid DFT and stability analysis
  Lukas Wittmann         : regularized MP2, r2SCAN double-hybrids, wr2SCAN        
                                                                         
We gratefully acknowledge several colleagues who have allowed us to      
interface, adapt or use parts of their codes:                            
  Ed Valeev, F. Pavosevic, A. Kumar             : LibInt (2-el integral package), F12 methods 
  Garnet Chan, S. Sharma, J. Yang, R. Olivares  : DMRG                   
  Ulf Ekstrom                                   : XCFun DFT Library      
  Mihaly Kallay                                 : mrcc  (arbitrary order and MRCC methods)
  Frank Weinhold                                : gennbo (NPA and NBO analysis)           
  Simon Mueller                                 : openCOSMO-RS                            
  Christopher J. Cramer and Donald G. Truhlar   : smd solvation model                     
  S Lehtola, MJT Oliveira, MAL Marques          : LibXC Library                           
  Liviu Ungur et al                             : ANISO software                          


 Your calculation uses the libint2 library for the computation of 2-el integrals
 For citations please refer to: http://libint.valeyev.net

 Your ORCA version has been built with support for libXC version: 7.0.0
 For citations please refer to: https://libxc.gitlab.io

 This ORCA versions uses:
   CBLAS   interface :  Fast vector & matrix operations
   LAPACKE interface :  Fast linear algebra routines
   SCALAPACK package :  Parallel linear algebra routines
   Shared memory     :  Shared parallel matrices
   BLAS/LAPACK       :  OpenBLAS 0.3.29  USE64BITINT DYNAMIC_ARCH NO_AFFINITY Cooperlake SINGLE_THREADED
        Core in use  :  Cooperlake
   Copyright (c) 2011-2014, The OpenBLAS Project


  ***********************************
  * Starting time: Wed May 20 12:36:44 2026
  * Host name:     c1-41
  * Process ID:    4063025
  * Working dir.:  /cluster/projects/nn14654k/ylvaos/basis_set_n_funcs/functionals/N12/LiS/out
  ***********************************

Using LibXC functional ID  82 : Minnesota N12 exchange functional
[ 1]  R. Peverati and D. G. Truhlar.,  J. Chem. Theory Comput. 8, 2310 (2012)
Using LibXC functional ID  80 : Minnesota N12 correlation functional
[ 1]  R. Peverati and D. G. Truhlar.,  J. Chem. Theory Comput. 8, 2310 (2012)
Using LibXC functional ID  82 : Minnesota N12 exchange functional
[ 1]  R. Peverati and D. G. Truhlar.,  J. Chem. Theory Comput. 8, 2310 (2012)
Using LibXC functional ID  80 : Minnesota N12 correlation functional
[ 1]  R. Peverati and D. G. Truhlar.,  J. Chem. Theory Comput. 8, 2310 (2012)
Your calculation utilizes LibXC
by S. Lehtola, C. Steigemann, M. J. T. Oliveira & M. A. L. Marques
Please cite in your paper:
Lehtola, S.; Steigemann, C.; Oliveira, M.J.T.; Marques, M. A. L. Software X, 7, (2018), 1.
   

================================================================================

----- Orbital basis set information -----
Your calculation utilizes the basis: pc-2
   H, C-F              : F. Jensen, J. Chem. Phys. 115, 9113 (2001).
                         F. Jensen, J. Chem. Phys. 116, 7372 (2002).
                         F. Jensen, J. Chem. Phys. 117, 9234 (2002).
   Si-Cl               : F. Jensen, T. Helgaker, J. Chem. Phys. 121, 3463 (2004).
   He-B, Ne-Mg, Al, Ar : F. Jensen, J. Phys. Chem. A 111, 11198 (2007).
   K, Ca, Ga-Kr        : F. Jensen, J. Chem. Phys. 136, 094110 (2012).
   Sc-Zn               : F. Jensen, J. Chem. Phys. 138, 014107 (2013).

================================================================================
                                        WARNINGS
                       Please study these warnings very carefully!
================================================================================


WARNING: your system is open-shell and RHF/RKS was chosen
  ===> : WILL SWITCH to UHF/UKS


================================================================================
                                       INPUT FILE
================================================================================
NAME = /cluster/projects/nn14654k/ylvaos/basis_set_n_funcs/functionals/N12/LiS/inp/LiS_N12_pc2.inp
|  1> ! dft pc-2 TightSCF
|  2> %pal nprocs 8 end
|  3> 
|  4> %loc
|  5>   LocMet NewBoys
|  6>   Occ true
|  7> end
|  8> 
|  9> %method
| 10>   exchange gga_x_N12
| 11>   correlation gga_c_N12
| 12> end
| 13> 
| 14> %elprop
| 15>   Dipole true
| 16>   Quadrupole true
| 17> end
| 18> 
| 19> * xyz 0 2
| 20> Li    0.000000000000   0.000000000000  -1.074850000000
| 21> S    0.000000000000   0.000000000000   1.074850000000
| 22> *
| 23> 
| 24> 
| 25>                          ****END OF INPUT****
================================================================================

                       ****************************
                       * Single Point Calculation *
                       ****************************

---------------------------------
CARTESIAN COORDINATES (ANGSTROEM)
---------------------------------
  Li     0.000000    0.000000   -1.074850
  S      0.000000    0.000000    1.074850

----------------------------
CARTESIAN COORDINATES (A.U.)
----------------------------
  NO LB      ZA    FRAG     MASS         X           Y           Z
   0 Li    3.0000    0     6.941    0.000000    0.000000   -2.031172
   1 S    16.0000    0    32.060    0.000000    0.000000    2.031172

--------------------------------
INTERNAL COORDINATES (ANGSTROEM)
--------------------------------
 Li     0   0   0     0.000000000000     0.00000000     0.00000000
 S      1   0   0     2.149700000000     0.00000000     0.00000000

---------------------------
INTERNAL COORDINATES (A.U.)
---------------------------
 Li     0   0   0     0.000000000000     0.00000000     0.00000000
 S      1   0   0     4.062344270091     0.00000000     0.00000000

---------------------
BASIS SET INFORMATION
---------------------
There are 2 groups of distinct atoms

 Group   1 Type Li  : 16s4p1d contracted to 4s2p1d pattern {7711/31/1}
 Group   2 Type S   : 29s16p2d1f contracted to 5s4p2d1f pattern {99911/7711/11/1}

Atom   0Li   basis set group =>   1
Atom   1S    basis set group =>   2


           ************************************************************
           *        Program running with 8 parallel MPI-processes     *
           *              working on a common directory               *
           ************************************************************
------------------------------------------------------------------------------
                             ORCA STARTUP CALCULATIONS
------------------------------------------------------------------------------
------------------------------------------------------------------------------
                   ___                                                        
                  /   \      - P O W E R E D   B Y -                         
                 /     \                                                     
                 |  |  |   _    _      __       _____    __    __             
                 |  |  |  | |  | |    /  \     |  _  \  |  |  /  |          
                  \  \/   | |  | |   /    \    | | | |  |  | /  /          
                 / \  \   | |__| |  /  /\  \   | |_| |  |  |/  /          
                |  |  |   |  __  | /  /__\  \  |    /   |      \           
                |  |  |   | |  | | |   __   |  |    \   |  |\   \          
                \     /   | |  | | |  |  |  |  | |\  \  |  | \   \       
                 \___/    |_|  |_| |__|  |__|  |_| \__\ |__|  \__/        
                                                                              
                      - O R C A' S   B I G   F R I E N D -                    
                                      &                                       
                       - I N T E G R A L  F E E D E R -                       
                                                                              
 v1 FN, 2020, v2 2021, v3 2022-2024                                           
------------------------------------------------------------------------------


----------------------
SHARK INTEGRAL PACKAGE
----------------------

Number of atoms                             ...      2
Number of basis functions                   ...     49
Number of shells                            ...     19
Maximum angular momentum                    ...      3
Integral batch strategy                     ... SHARK/LIBINT Hybrid
RI-J (if used) integral strategy            ... SPLIT-RIJ (Revised 2003 algorithm where possible)
Printlevel                                  ...      1
Contraction scheme used                     ... SEGMENTED contraction
Prescreening option                         ... SCHWARTZ
   Thresh                                   ... 2.500e-11
   Tcut                                     ... 2.500e-12
   Tpresel                                  ... 2.500e-12 
Coulomb Range Separation                    ... NOT USED
Exchange Range Separation                   ... NOT USED
Multipole approximations                    ... NOT USED
Finite Nucleus Model                        ... NOT USED
CABS basis                                  ... NOT available
Auxiliary Coulomb fitting basis             ... NOT available
Auxiliary J/K fitting basis                 ... NOT available
Auxiliary Correlation fitting basis         ... NOT available
Auxiliary 'external' fitting basis          ... NOT available

Checking pre-screening integrals            ... done (  0.0 sec) Dimension = 19
   => SHARK Basis and OBASIS are compatible. Storing Pre-screening
Shell pair information
Shell pair cut-off parameter TPreSel        ...   2.5e-12
Total number of shell pairs                 ...       190
Shell pairs after pre-screening             ...       190
Total number of primitive shell pairs       ...      2610
Primitive shell pairs kept                  ...      2198
          la=0 lb=0:     45 shell pairs
          la=1 lb=0:     54 shell pairs
          la=1 lb=1:     21 shell pairs
          la=2 lb=0:     27 shell pairs
          la=2 lb=1:     18 shell pairs
          la=2 lb=2:      6 shell pairs
          la=3 lb=0:      9 shell pairs
          la=3 lb=1:      6 shell pairs
          la=3 lb=2:      3 shell pairs
          la=3 lb=3:      1 shell pairs

Checking whether 4 symmetric matrices of dimension 49 fit in memory
:Max Core in MB      =   4096.00
 MB in use           =      2.35
 MB left             =   4093.65
 MB needed           =      0.04
 Data fit in memory  = YES
Calculating Nuclear repulsion               ... done (  0.0 sec) ENN=     11.815837557985 Eh

Diagonalization of the overlap matrix:
Smallest eigenvalue                        ... 1.462e-02
Time for diagonalization                   ...    0.000 sec
Threshold for overlap eigenvalues          ... 1.000e-07
Number of eigenvalues below threshold      ... 0
Time for construction of square roots      ...    0.002 sec
Total time needed                          ...    0.005 sec

-------------------
DFT GRID GENERATION
-------------------

General Integration Accuracy     IntAcc      ... 4.388
Radial Grid Type                 RadialGrid  ... OptM3 with GC (2021)
Angular Grid (max. ang.)         AngularGrid ... 4 (Lebedev-302)
Angular grid pruning method      GridPruning ... 4 (adaptive)
Weight generation scheme         WeightScheme... mBecke (2022)
Basis function cutoff            BFCut       ... 1.0000e-11
Integration weight cutoff        WCut        ... 1.0000e-14
Partially contracted basis set               ... off
Rotationally invariant grid construction     ... off
Angular grids for H and He will be reduced by one unit

Total number of grid points                  ...    13486
Total number of batches                      ...      212
Average number of points per batch           ...       63
Average number of grid points per atom       ...     6743
Grids setup in   0.0 sec
Initializing property integral containers    ... done (  0.0 sec)

SHARK setup successfully completed in   0.1 seconds

Maximum memory used throughout the entire STARTUP-calculation: 19.1 MB


           ************************************************************
           *        Program running with 8 parallel MPI-processes     *
           *              working on a common directory               *
           ************************************************************
-------------------------------------------------------------------------------
                                 ORCA GUESS
                   Start orbitals & Density for SCF / CASSCF
-------------------------------------------------------------------------------

------------
SCF SETTINGS
------------
Hamiltonian:
 Density Functional     Method          .... DFT(GTOs)
  Functional kind                       .... Exchange
  Functional name                       .... Minnesota N12 exchange functional
  Functional family                     .... GGA
  Functional refs                              
    [ 0] R. Peverati and D. G. Truhlar.,  J. Chem. Theory Comput. 8, 2310 (2012), doi: 10.1021/ct3002656
  Functional external parameters        .... 16
    Parameter  0 _CC00      =  1.000000e+00 : _CC00               
    Parameter  1 _CC01      =  5.078800e-01 : _CC01               
    Parameter  2 _CC02      =  1.682330e-01 : _CC02               
    Parameter  3 _CC03      =  1.288870e-01 : _CC03               
    Parameter  4 _CC10      =  8.602110e-02 : _CC10               
    Parameter  5 _CC11      = -1.710080e+01 : _CC11               
    Parameter  6 _CC12      =  6.508140e+01 : _CC12               
    Parameter  7 _CC13      = -7.017260e+01 : _CC13               
    Parameter  8 _CC20      = -3.907550e-01 : _CC20               
    Parameter  9 _CC21      =  5.133920e+01 : _CC21               
    Parameter 10 _CC22      = -1.662200e+02 : _CC22               
    Parameter 11 _CC23      =  1.427380e+02 : _CC23               
    Parameter 12 _CC30      =  4.036110e-01 : _CC30               
    Parameter 13 _CC31      = -3.446310e+01 : _CC31               
    Parameter 14 _CC32      =  7.616610e+01 : _CC32               
    Parameter 15 _CC33      = -2.418340e+00 : _CC33               
  Functional kind                       .... Correlation
  Functional name                       .... Minnesota N12 correlation functional
  Functional family                     .... GGA
  Functional refs                              
    [ 0] R. Peverati and D. G. Truhlar.,  J. Chem. Theory Comput. 8, 2310 (2012), doi: 10.1021/ct3002656
  Functional external parameters        .... 10
    Parameter  0 _css0      =  1.000000e+00 : u^0 coefficient for same-spin correlation
    Parameter  1 _css1      = -5.531700e+00 : u^1 coefficient for same-spin correlation
    Parameter  2 _css2      =  3.079580e+01 : u^2 coefficient for same-spin correlation
    Parameter  3 _css3      = -5.641960e+01 : u^3 coefficient for same-spin correlation
    Parameter  4 _css4      =  3.212500e+01 : u^4 coefficient for same-spin correlation
    Parameter  5 _cos0      =  1.000000e+00 : u^0 coefficient for opposite-spin correlation
    Parameter  6 _cos1      =  3.245110e+00 : u^1 coefficient for opposite-spin correlation
    Parameter  7 _cos2      = -2.528930e+01 : u^2 coefficient for opposite-spin correlation
    Parameter  8 _cos3      =  1.444070e+01 : u^3 coefficient for opposite-spin correlation
    Parameter  9 _cos4      =  1.968700e+01 : u^4 coefficient for opposite-spin correlation
 Gradients option       PostSCFGGA      .... off


General Settings:
 Integral files         IntName         .... /cluster/projects/nn14654k/ylvaos/basis_set_n_funcs/functionals/N12/LiS/inp/LiS_N12_pc2
 Hartree-Fock type      HFTyp           .... UHF
 Total Charge           Charge          ....    0
 Multiplicity           Mult            ....    2
 Number of Electrons    NEL             ....   19
 Basis Dimension        Dim             ....   49
 Nuclear Repulsion      ENuc            ....     11.8158375580 Eh

Convergence Acceleration:
 AO-DIIS                CNVDIIS         .... on
   Start iteration      DIISMaxIt       ....    12
   Startup error        DIISStart       ....  0.200000
   # of expansion vecs  DIISMaxEq       ....     5
   Bias factor          DIISBfac        ....   1.050
   Max. coefficient     DIISMaxC        ....  10.000
 MO-DIIS                CNVKDIIS        .... off
 Trust-Rad. Augm. Hess. CNVTRAH         .... auto
   Auto Start mean grad. ratio tolernc. ....  1.125000
   Auto Start start iteration           ....    50
   Auto Start num. interpolation iter.  ....    10
   Max. Number of Micro iterations      ....    24
   Max. Number of Macro iterations      .... Maxiter - #DIIS iter
   Number of Davidson start vectors     ....     2
   Converg. threshold    (grad. norm)   ....   1.000e-05
   Grad. Scal. Fac. for Micro threshold ....   0.100
   Minimum threshold for Micro iter.    ....   1.000e-02
   NR start threshold (gradient norm)   ....   1.000e-04
   Initial trust radius                 ....   0.400
   Minimum AH scaling param. (alpha)    ....   1.000
   Maximum AH scaling param. (alpha)    .... 1000.000
   Quad. conv. algorithm                .... NR
   White noise on init. David. guess    .... on
   Maximum white noise                  ....   0.010
   Pseudo random numbers                .... off
   Inactive MOs                         .... canonical
   Orbital update algorithm             .... Taylor
   Preconditioner                       .... Diag
   Full preconditioner red. dimension   ....   250
 SOSCF                 CNVSOSCF           .... on
   Start iteration     SOSCFMaxIt         ....   150
   Startup grad/error  SOSCFStart         ....  0.003300
   Hessian update      SOSCFHessUp        .... L-BFGS
   Autom. constraints  SOSCFAutoConstrain .... off
 Level Shifting         CNVShift        .... on
   Level shift para.    LevelShift      ....    0.2500
   Turn off err/grad.   ShiftErr        ....    0.0010
 Zerner damping         CNVZerner       .... off
 Static damping         CNVDamp         .... on
   Fraction old density DampFac         ....    0.7000
   Max. Damping (<1)    DampMax         ....    0.9800
   Min. Damping (>=0)   DampMin         ....    0.0000
   Turn off err/grad.   DampErr         ....    0.1000

SCF Procedure:
 Maximum # iterations   MaxIter         ....   125
 SCF integral mode      SCFMode         .... Direct
   Integral package                     .... SHARK and LIBINT hybrid scheme
 Reset frequency        DirectResetFreq ....    20
 Integral Threshold     Thresh          ....  2.500e-11 Eh
 Primitive CutOff       TCut            ....  2.500e-12 Eh

Convergence Tolerance:
 Convergence Check Mode ConvCheckMode   .... Total+1el-Energy
 Convergence forced     ConvForced      .... 0
 Energy Change          TolE            ....  1.000e-08 Eh
 1-El. energy change                    ....  1.000e-05 Eh
 Orbital Gradient       TolG            ....  1.000e-05
 Orbital Rotation angle TolX            ....  1.000e-05
 DIIS Error             TolErr          ....  5.000e-07

------------------------------
INITIAL GUESS: MODEL POTENTIAL
------------------------------
Loading Hartree-Fock densities                     ... done
Calculating cut-offs                               ... done
Initializing the effective Hamiltonian             ... done
Setting up the integral package (SHARK)            ... done
Starting the Coulomb interaction                   ... done (   0.0 sec)
Making the grid                                    ... done (   0.0 sec)
Mapping shells                                     ... done
Starting the XC term evaluation                    ... done (   0.0 sec)
  promolecular density results
     # of electrons  =     18.999659774
     EX              =    -26.297695348
     EC              =     -1.157893592
     EX+EC           =    -27.455588940
Transforming the Hamiltonian                       ... done (   0.0 sec)
Diagonalizing the Hamiltonian                      ... done (   0.0 sec)
Back transforming the eigenvectors                 ... done (   0.0 sec)
Now organizing SCF variables                       ... done
                      ------------------
                      INITIAL GUESS DONE (   0.1 sec)
                      ------------------
             **** ENERGY FILE WAS UPDATED (/cluster/projects/nn14654k/ylvaos/basis_set_n_funcs/functionals/N12/LiS/inp/LiS_N12_pc2.en.tmp) ****
Finished Guess after   0.1 sec
Maximum memory used throughout the entire GUESS-calculation: 5.9 MB


           ************************************************************
           *        Program running with 8 parallel MPI-processes     *
           *              working on a common directory               *
           ************************************************************

-------------------------------------------------------------------------------------------
                                      ORCA LEAN-SCF
                              memory conserving SCF solver
-------------------------------------------------------------------------------------------

----------------------------------------D-I-I-S--------------------------------------------
Iteration    Energy (Eh)           Delta-E    RMSDP     MaxDP     DIISErr   Damp  Time(sec)
-------------------------------------------------------------------------------------------
               ***  Starting incremental Fock matrix formation  ***
    1    -405.6861541972216401     0.00e+00  7.30e-03  5.03e-02  7.41e-02  0.700   0.2
Warning: op=0 Small HOMO/LUMO gap (   0.025) - skipping pre-diagonalization
         Will do a full diagonalization
    2    -405.7124120259895221    -2.63e-02  5.95e-03  3.06e-02  4.24e-02  0.700   0.1
                               ***Turning on AO-DIIS***
    3    -405.7236432735041944    -1.12e-02  2.24e-03  1.26e-02  1.46e-02  0.700   0.2
    4    -405.7292947081820103    -5.65e-03  3.14e-03  1.94e-02  7.61e-03  0.000   0.2
    5    -405.7418807109025352    -1.26e-02  9.17e-04  4.95e-03  5.81e-03  0.000   0.2
                              *** Initializing SOSCF ***
---------------------------------------S-O-S-C-F--------------------------------------
Iteration    Energy (Eh)           Delta-E    RMSDP     MaxDP     MaxGrad    Time(sec)
--------------------------------------------------------------------------------------
    6    -405.7422729616581023    -3.92e-04  3.89e-04  2.28e-03  2.70e-03     0.2
               *** Restarting incremental Fock matrix formation ***
    7    -405.7423618624052892    -8.89e-05  4.93e-04  2.41e-03  1.53e-03     0.1
    8    -405.7423842266372276    -2.24e-05  2.82e-04  1.96e-03  1.09e-03     0.1
    9    -405.7423985418159305    -1.43e-05  8.32e-05  4.92e-04  2.23e-04     0.1
   10    -405.7423996302564433    -1.09e-06  9.97e-05  6.42e-04  1.37e-04     0.1
   11    -405.7424003646649453    -7.34e-07  4.82e-05  2.94e-04  8.95e-05     0.2
   12    -405.7424005851893867    -2.21e-07  2.82e-05  1.73e-04  4.97e-05     0.4
   13    -405.7424006518458555    -6.67e-08  8.38e-06  5.42e-05  1.71e-05     0.1
   14    -405.7424006584690801    -6.62e-09  2.71e-06  1.31e-05  5.36e-06     0.1
                 **** Energy Check signals convergence ****

               *****************************************************
               *                     SUCCESS                       *
               *           SCF CONVERGED AFTER  14 CYCLES          *
               *****************************************************

             **** ENERGY FILE WAS UPDATED (/cluster/projects/nn14654k/ylvaos/basis_set_n_funcs/functionals/N12/LiS/inp/LiS_N12_pc2.en.tmp) ****

----------------
TOTAL SCF ENERGY
----------------

Total Energy       :       -405.74240065954439 Eh          -11040.81203 eV

Components:
Nuclear Repulsion  :         11.81583755798484 Eh             321.52529 eV
Electronic Energy  :       -417.55823821752921 Eh          -11362.33731 eV
One Electron Energy:       -585.39109067225309 Eh          -15929.30141 eV
Two Electron Energy:        167.83285245472388 Eh            4566.96410 eV

Virial components:
Potential Energy   :       -811.84124178893080 Eh          -22091.32329 eV
Kinetic Energy     :        406.09884112938641 Eh           11050.51126 eV
Virial Ratio       :          1.99912228148977

DFT components:
N(Alpha)           :        9.999996857224 electrons
N(Beta)            :        8.999996098833 electrons
N(Total)           :       18.999992956056 electrons
E(X)               :      -26.500444818221 Eh       
E(C)               :       -1.172236001417 Eh       
E(XC)              :      -27.672680819638 Eh       

---------------
SCF CONVERGENCE
---------------

  Last Energy change         ...    6.6232e-09  Tolerance :   1.0000e-08
  Last MAX-Density change    ...    1.3063e-05  Tolerance :   1.0000e-07
  Last RMS-Density change    ...    2.7105e-06  Tolerance :   5.0000e-09
  Last DIIS Error            ...    2.7047e-03  Tolerance :   5.0000e-07
  Last Orbital Gradient      ...    5.3589e-06  Tolerance :   1.0000e-05
  Last Orbital Rotation      ...    6.8798e-05  Tolerance :   1.0000e-05


----------------------
UHF SPIN CONTAMINATION
----------------------

Warning: in a DFT calculation there is little theoretical justification to 
         calculate <S**2> as in Hartree-Fock theory. We will do it anyways
         but you should keep in mind that the values have only limited relevance

Expectation value of <S**2>     :     0.753171
Ideal value S*(S+1) for S=0.5   :     0.750000
Deviation                       :     0.003171

----------------
ORBITAL ENERGIES
----------------
                 SPIN UP ORBITALS
  NO   OCC          E(Eh)            E(eV) 
   0   1.0000     -87.834193     -2390.0899 
   1   1.0000      -7.622796      -207.4268 
   2   1.0000      -5.766989      -156.9277 
   3   1.0000      -5.751999      -156.5199 
   4   1.0000      -5.751028      -156.4934 
   5   1.0000      -1.947701       -52.9996 
   6   1.0000      -0.539630       -14.6841 
   7   1.0000      -0.205151        -5.5824 
   8   1.0000      -0.190763        -5.1909 
   9   1.0000      -0.167969        -4.5707 
  10   0.0000      -0.077375        -2.1055 
  11   0.0000       0.016989         0.4623 
  12   0.0000       0.018485         0.5030 
  13   0.0000       0.027070         0.7366 
  14   0.0000       0.109859         2.9894 
  15   0.0000       0.215299         5.8586 
  16   0.0000       0.244118         6.6428 
  17   0.0000       0.249188         6.7807 
  18   0.0000       0.439898        11.9702 
  19   0.0000       0.454597        12.3702 
  20   0.0000       0.465224        12.6594 

                 SPIN DOWN ORBITALS
  NO   OCC          E(Eh)            E(eV) 
   0   1.0000     -87.827115     -2389.8973 
   1   1.0000      -7.618684      -207.3149 
   2   1.0000      -5.756220      -156.6347 
   3   1.0000      -5.748820      -156.4334 
   4   1.0000      -5.747883      -156.4078 
   5   1.0000      -1.947692       -52.9994 
   6   1.0000      -0.504806       -13.7365 
   7   1.0000      -0.177515        -4.8304 
   8   1.0000      -0.154764        -4.2113 
   9   0.0000      -0.146909        -3.9976 
  10   0.0000      -0.076184        -2.0731 
  11   0.0000       0.017302         0.4708 
  12   0.0000       0.023938         0.6514 
  13   0.0000       0.033985         0.9248 
  14   0.0000       0.119347         3.2476 
  15   0.0000       0.256113         6.9692 
  16   0.0000       0.259988         7.0746 
  17   0.0000       0.298297         8.1171 
  18   0.0000       0.465459        12.6658 
  19   0.0000       0.471429        12.8282 
*Only the first 10 virtual orbitals were printed.

                    ********************************
                    * MULLIKEN POPULATION ANALYSIS *
                    ********************************

--------------------------------------------
MULLIKEN ATOMIC CHARGES AND SPIN POPULATIONS
--------------------------------------------
   0 Li:    0.560889    0.011509
   1 S :   -0.560889    0.988491
Sum of atomic charges         :    0.0000000
Sum of atomic spin populations:    1.0000000

-----------------------------------------------------
MULLIKEN REDUCED ORBITAL CHARGES AND SPIN POPULATIONS
-----------------------------------------------------
CHARGE
  0 Lis       :     2.160976  s :     2.160976
      pz      :     0.110441  p :     0.253628
      px      :     0.040400
      py      :     0.102787
      dz2     :     0.008178  d :     0.024508
      dxz     :     0.005363
      dyz     :     0.010962
      dx2y2   :     0.000002
      dxy     :     0.000001

  1 S s       :     5.950609  s :     5.950609
      pz      :     3.765357  p :    10.603162
      px      :     3.039126
      py      :     3.798678
      dz2     :     0.003505  d :     0.006669
      dxz     :     0.000875
      dyz     :     0.001549
      dx2y2   :     0.000508
      dxy     :     0.000232
      f0      :     0.000117  f :     0.000449
      f+1     :    -0.000007
      f-1     :     0.000054
      f+2     :     0.000050
      f-2     :     0.000023
      f+3     :     0.000107
      f-3     :     0.000106


SPIN
  0 Lis       :    -0.011822  s :    -0.011822
      pz      :    -0.004553  p :     0.018423
      px      :     0.030078
      py      :    -0.007102
      dz2     :     0.000263  d :     0.004907
      dxz     :     0.004364
      dyz     :     0.000277
      dx2y2   :     0.000002
      dxy     :     0.000001

  1 S s       :     0.008003  s :     0.008003
      pz      :     0.007436  p :     0.978871
      px      :     0.878878
      py      :     0.092557
      dz2     :     0.000007  d :     0.001494
      dxz     :     0.000735
      dyz     :     0.000070
      dx2y2   :     0.000468
      dxy     :     0.000214
      f0      :    -0.000089  f :     0.000123
      f+1     :    -0.000017
      f-1     :    -0.000045
      f+2     :     0.000047
      f-2     :     0.000022
      f+3     :     0.000103
      f-3     :     0.000103



                     *******************************
                     * LOEWDIN POPULATION ANALYSIS *
                     *******************************

-------------------------------------------
LOEWDIN ATOMIC CHARGES AND SPIN POPULATIONS
-------------------------------------------
   0 Li:    0.210443    0.032086
   1 S :   -0.210443    0.967914

----------------------------------------------------
LOEWDIN REDUCED ORBITAL CHARGES AND SPIN POPULATIONS
----------------------------------------------------
CHARGE
  0 Lis       :     2.252833  s :     2.252833
      pz      :     0.261925  p :     0.431652
      px      :     0.050331
      py      :     0.119396
      dz2     :     0.064475  d :     0.105072
      dxz     :     0.014319
      dyz     :     0.026273
      dx2y2   :     0.000003
      dxy     :     0.000001

  1 S s       :     5.689638  s :     5.689638
      pz      :     3.726722  p :    10.514658
      px      :     3.020561
      py      :     3.767375
      dz2     :     0.003298  d :     0.005525
      dxz     :     0.000522
      dyz     :     0.000965
      dx2y2   :     0.000508
      dxy     :     0.000232
      f0      :     0.000290  f :     0.000621
      f+1     :     0.000024
      f-1     :     0.000021
      f+2     :     0.000050
      f-2     :     0.000023
      f+3     :     0.000107
      f-3     :     0.000106


SPIN
  0 Lis       :    -0.011522  s :    -0.011522
      pz      :    -0.003111  p :     0.029569
      px      :     0.038559
      py      :    -0.005879
      dz2     :     0.001000  d :     0.014038
      dxz     :     0.011949
      dyz     :     0.001085
      dx2y2   :     0.000003
      dxy     :     0.000001

  1 S s       :     0.006786  s :     0.006786
      pz      :     0.005571  p :     0.959183
      px      :     0.863075
      py      :     0.090537
      dz2     :     0.000540  d :     0.001685
      dxz     :     0.000434
      dyz     :     0.000029
      dx2y2   :     0.000468
      dxy     :     0.000214
      f0      :    -0.000020  f :     0.000260
      f+1     :     0.000021
      f-1     :    -0.000015
      f+2     :     0.000047
      f-2     :     0.000022
      f+3     :     0.000103
      f-3     :     0.000103



                      *****************************
                      * MAYER POPULATION ANALYSIS *
                      *****************************

  NA   - Mulliken gross atomic population
  ZA   - Total nuclear charge
  QA   - Mulliken gross atomic charge
  VA   - Mayer's total valence
  BVA  - Mayer's bonded valence
  FA   - Mayer's free valence

  ATOM       NA         ZA         QA         VA         BVA        FA
  0 Li     2.4391     3.0000     0.5609     0.7842     0.7823     0.0019
  1 S     16.5609    16.0000    -0.5609     1.7113     0.7823     0.9289

  Mayer bond orders larger than 0.100000
B(  0-Li,  1-S ) :   0.7823 

-------
TIMINGS
-------

Total SCF time: 0 days 0 hours 0 min 2 sec 

Total time                  ....       2.638 sec
Sum of individual times     ....       2.505 sec  ( 95.0%)

SCF preparation             ....       0.120 sec  (  4.5%)
Fock matrix formation       ....       1.325 sec  ( 50.2%)
  Startup                   ....       0.023 sec  (  1.7% of F)
  Coulomb formation         ....       0.350 sec  ( 26.4% of F)
  XC integration            ....       0.468 sec  ( 35.3% of F)
    XC Preparation          ....       0.000 sec  (  0.0% of XC)
    Basis function eval.    ....       0.016 sec  (  3.4% of XC)
    Density eval.           ....       0.008 sec  (  1.6% of XC)
    XC-Functional eval.     ....       0.024 sec  (  5.2% of XC)
    XC-Potential eval.      ....       0.017 sec  (  3.7% of XC)
Diagonalization             ....       0.000 sec  (  0.0%)
Density matrix formation    ....       0.252 sec  (  9.6%)
Total Energy calculation    ....       0.030 sec  (  1.1%)
Population analysis         ....       0.015 sec  (  0.6%)
Orbital Transformation      ....       0.031 sec  (  1.2%)
Orbital Orthonormalization  ....       0.000 sec  (  0.0%)
DIIS solution               ....       0.250 sec  (  9.5%)
SOSCF solution              ....       0.482 sec  ( 18.3%)
Finished LeanSCF after   2.7 sec

Maximum memory used throughout the entire LEANSCF-calculation: 18.2 MB


           ************************************************************
           *        Program running with 8 parallel MPI-processes     *
           *              working on a common directory               *
           ************************************************************

------------------------------------------------------------------------------
                         ORCA PROPERTY INTEGRAL CALCULATIONS
------------------------------------------------------------------------------

GBWName                                   ... /cluster/projects/nn14654k/ylvaos/basis_set_n_funcs/functionals/N12/LiS/inp/LiS_N12_pc2.gbw
Number of atoms                           ...      2
Number of basis functions                 ...     49
Max core memory                           ...   4096 MB

Dipole integrals                          ... YES
Quadrupole integrals                      ... YES
Linear momentum integrals                 ...  NO
Angular momentum integrals                ...  NO
Higher moments length integrals           ...  NO
Higher moments velocity integrals         ...  NO
Kinetic energy integrals                  ...  NO
GIAO right hand sides                     ...  NO
GIAO dipole derivative integrals          ...  NO
SOC integrals                             ...  NO
EPR diamagnetic integrals (GIAO)          ...  NO
EPR gauge integrals                       ...  NO
Field gradient integrals                  ...  NO (   0 nuclei)
Spin-dipole/Fermi contact integrals       ...  NO (   0 nuclei)
Contact density integrals                 ...  NO (   0 nuclei)
Nucleus-orbit integrals                   ...  NO (   0 nuclei)
Geometric perturbations                   ...  NO (   2 nuclei)

Choice of electric origin   ... Center of mass
Position of electric origin ... (  0.0000,  0.0000,  1.3082) 
Choice of magnetic origin   ... GIAO
Position of magnetic origin ... (  0.0000,  0.0000,  0.0000) 

Calculating integrals                     ... Electric Dipole (Length)     done (  0.0 sec)
Calculating integrals                     ... Electric Quadrupole (Length) done (  0.0 sec)

Property integrals calculated in   0.0 sec

Maximum memory used throughout the entire PROPINT-calculation: 6.1 MB
------------------------------------------------------------------------------
                           ORCA ORBITAL LOCALIZATION
------------------------------------------------------------------------------

Input orbitals are from                  ... /cluster/projects/nn14654k/ylvaos/basis_set_n_funcs/functionals/N12/LiS/inp/LiS_N12_pc2.gbw
Output orbitals are to                   ... /cluster/projects/nn14654k/ylvaos/basis_set_n_funcs/functionals/N12/LiS/inp/LiS_N12_pc2.loc
Max. number of iterations                ... 128
Localizations seeded randomly            ... on
Convergence tolerance                    ... 1.000e-06
Threshold for strong local MOs           ... 9.500e-01
Threshold for bond MOs                   ... 8.500e-01
Operator                                 ... 0
Orbital range for localization           ... 5 to 9
Localization criterion                   ... NEW-BOYS
Doing the dipole integrals               ... o.k.
Initial value of the localization sum :    12.405726
ITERATION   0 : L=   15.5595365414 DL=  3.15e+00 (AVERGE_DL)=    0.5615879837 
ITERATION   1 : L=   15.7831085097 DL=  2.24e-01 (AVERGE_DL)=    0.1495232318 
ITERATION   2 : L=   15.8263996784 DL=  4.33e-02 (AVERGE_DL)=    0.0657960247 
ITERATION   3 : L=   15.8593546417 DL=  3.30e-02 (AVERGE_DL)=    0.0574064136 
ITERATION   4 : L=   15.8742351634 DL=  1.49e-02 (AVERGE_DL)=    0.0385752793 
ITERATION   5 : L=   15.8818465216 DL=  7.61e-03 (AVERGE_DL)=    0.0275886902 
ITERATION   6 : L=   15.8852886511 DL=  3.44e-03 (AVERGE_DL)=    0.0185529769 
ITERATION   7 : L=   15.8868885815 DL=  1.60e-03 (AVERGE_DL)=    0.0126488354 
ITERATION   8 : L=   15.8876565136 DL=  7.68e-04 (AVERGE_DL)=    0.0087631735 
ITERATION   9 : L=   15.8880660709 DL=  4.10e-04 (AVERGE_DL)=    0.0063996666 
ITERATION  10 : L=   15.8883204921 DL=  2.54e-04 (AVERGE_DL)=    0.0050440184 
ITERATION  11 : L=   15.8885060763 DL=  1.86e-04 (AVERGE_DL)=    0.0043079481 
ITERATION  12 : L=   15.8886582433 DL=  1.52e-04 (AVERGE_DL)=    0.0039008588 
ITERATION  13 : L=   15.8887911903 DL=  1.33e-04 (AVERGE_DL)=    0.0036461898 
ITERATION  14 : L=   15.8889105223 DL=  1.19e-04 (AVERGE_DL)=    0.0034544471 
ITERATION  15 : L=   15.8890185398 DL=  1.08e-04 (AVERGE_DL)=    0.0032866002 
ITERATION  16 : L=   15.8891163650 DL=  9.78e-05 (AVERGE_DL)=    0.0031277035 
ITERATION  17 : L=   15.8892047554 DL=  8.84e-05 (AVERGE_DL)=    0.0029730522 
ITERATION  18 : L=   15.8892843836 DL=  7.96e-05 (AVERGE_DL)=    0.0028218461 
ITERATION  19 : L=   15.8893559148 DL=  7.15e-05 (AVERGE_DL)=    0.0026745310 
ITERATION  20 : L=   15.8894200146 DL=  6.41e-05 (AVERGE_DL)=    0.0025317942 
ITERATION  21 : L=   15.8894773364 DL=  5.73e-05 (AVERGE_DL)=    0.0023941982 
ITERATION  22 : L=   15.8895285083 DL=  5.12e-05 (AVERGE_DL)=    0.0022621196 
ITERATION  23 : L=   15.8895741230 DL=  4.56e-05 (AVERGE_DL)=    0.0021357611 
ITERATION  24 : L=   15.8896147332 DL=  4.06e-05 (AVERGE_DL)=    0.0020151972 
ITERATION  25 : L=   15.8896508483 DL=  3.61e-05 (AVERGE_DL)=    0.0019003961 
ITERATION  26 : L=   15.8896829345 DL=  3.21e-05 (AVERGE_DL)=    0.0017912617 
ITERATION  27 : L=   15.8897114163 DL=  2.85e-05 (AVERGE_DL)=    0.0016876558 
ITERATION  28 : L=   15.8897366785 DL=  2.53e-05 (AVERGE_DL)=    0.0015894088 
ITERATION  29 : L=   15.8897590689 DL=  2.24e-05 (AVERGE_DL)=    0.0014963437 
ITERATION  30 : L=   15.8897789010 DL=  1.98e-05 (AVERGE_DL)=    0.0014082642 
ITERATION  31 : L=   15.8897964564 DL=  1.76e-05 (AVERGE_DL)=    0.0013249680 
ITERATION  32 : L=   15.8898119879 DL=  1.55e-05 (AVERGE_DL)=    0.0012462529 
ITERATION  33 : L=   15.8898257218 DL=  1.37e-05 (AVERGE_DL)=    0.0011719164 
ITERATION  34 : L=   15.8898378605 DL=  1.21e-05 (AVERGE_DL)=    0.0011017578 
ITERATION  35 : L=   15.8898485847 DL=  1.07e-05 (AVERGE_DL)=    0.0010355792 
ITERATION  36 : L=   15.8898580556 DL=  9.47e-06 (AVERGE_DL)=    0.0009731866 
ITERATION  37 : L=   15.8898664167 DL=  8.36e-06 (AVERGE_DL)=    0.0009143904 
ITERATION  38 : L=   15.8898737956 DL=  7.38e-06 (AVERGE_DL)=    0.0008590044 
ITERATION  39 : L=   15.8898803057 DL=  6.51e-06 (AVERGE_DL)=    0.0008068527 
ITERATION  40 : L=   15.8898860478 DL=  5.74e-06 (AVERGE_DL)=    0.0007577658 
ITERATION  41 : L=   15.8898911112 DL=  5.06e-06 (AVERGE_DL)=    0.0007115739 
ITERATION  42 : L=   15.8898955750 DL=  4.46e-06 (AVERGE_DL)=    0.0006681176 
ITERATION  43 : L=   15.8898995094 DL=  3.93e-06 (AVERGE_DL)=    0.0006272447 
ITERATION  44 : L=   15.8899029763 DL=  3.47e-06 (AVERGE_DL)=    0.0005888095 
ITERATION  45 : L=   15.8899060308 DL=  3.05e-06 (AVERGE_DL)=    0.0005526730 
ITERATION  46 : L=   15.8899087213 DL=  2.69e-06 (AVERGE_DL)=    0.0005187030 
ITERATION  47 : L=   15.8899110908 DL=  2.37e-06 (AVERGE_DL)=    0.0004867740 
ITERATION  48 : L=   15.8899131772 DL=  2.09e-06 (AVERGE_DL)=    0.0004567669 
ITERATION  49 : L=   15.8899150139 DL=  1.84e-06 (AVERGE_DL)=    0.0004285690 
ITERATION  50 : L=   15.8899166305 DL=  1.62e-06 (AVERGE_DL)=    0.0004020735 
ITERATION  51 : L=   15.8899180532 DL=  1.42e-06 (AVERGE_DL)=    0.0003771855 
ITERATION  52 : L=   15.8899193049 DL=  1.25e-06 (AVERGE_DL)=    0.0003537931 
ITERATION  53 : L=   15.8899204060 DL=  1.10e-06 (AVERGE_DL)=    0.0003318243 
ITERATION  54 : L=   15.8899213744 DL=  9.68e-07 (AVERGE_DL)=    0.0003111875 
LOCALIZATION SUM CONVERGED


--------------------------------------------------------------------------------
                    LOCALIZED MOLECULAR ORBITAL COMPOSITIONS
--------------------------------------------------------------------------------

The Mulliken populations for each LMO on each atom are computed
The LMO`s will be ordered according to atom index and type
  (A) Strongly localized MO`s have populations of >=0.950 on one atom
  (B) Two center bond orbitals have populations of >=0.850 on two atoms
  (C) Other MO`s are considered to be `delocalized`

FOUND  -   3 strongly local MO`s
       -   2 two center bond MO`s
       -   0 significantly delocalized MO`s

Rather strongly localized orbitals:
MO   7:   1S  -   0.959292
MO   6:   1S  -   0.978929
MO   5:   0Li -   1.001907
Bond-like localized orbitals:
MO   9:   1S  -   0.919572  and   0Li -   0.080428
MO   8:   1S  -   0.919337  and   0Li -   0.080663
Localized MO's were stored in: /cluster/projects/nn14654k/ylvaos/basis_set_n_funcs/functionals/N12/LiS/inp/LiS_N12_pc2.loc
------------------------------------------------------------------------------
                           ORCA ORBITAL LOCALIZATION
------------------------------------------------------------------------------

Input orbitals are from                  ... /cluster/projects/nn14654k/ylvaos/basis_set_n_funcs/functionals/N12/LiS/inp/LiS_N12_pc2.loc
Output orbitals are to                   ... /cluster/projects/nn14654k/ylvaos/basis_set_n_funcs/functionals/N12/LiS/inp/LiS_N12_pc2.loc
Max. number of iterations                ... 128
Localizations seeded randomly            ... on
Convergence tolerance                    ... 1.000e-06
Threshold for strong local MOs           ... 9.500e-01
Threshold for bond MOs                   ... 8.500e-01
Operator                                 ... 1
Orbital range for localization           ... 5 to 8
Localization criterion                   ... NEW-BOYS
Doing the dipole integrals               ... o.k.
Initial value of the localization sum :    12.045051
ITERATION   0 : L=   14.8701330668 DL=  2.83e+00 (AVERGE_DL)=    0.6861829563 
ITERATION   1 : L=   14.9229334541 DL=  5.28e-02 (AVERGE_DL)=    0.0938086592 
ITERATION   2 : L=   14.9379953961 DL=  1.51e-02 (AVERGE_DL)=    0.0501031303 
ITERATION   3 : L=   14.9680886882 DL=  3.01e-02 (AVERGE_DL)=    0.0708205386 
ITERATION   4 : L=   15.0345974610 DL=  6.65e-02 (AVERGE_DL)=    0.1052843552 
ITERATION   5 : L=   15.1365868130 DL=  1.02e-01 (AVERGE_DL)=    0.1303772424 
ITERATION   6 : L=   15.2333604463 DL=  9.68e-02 (AVERGE_DL)=    0.1269997594 
ITERATION   7 : L=   15.2934808297 DL=  6.01e-02 (AVERGE_DL)=    0.1001002692 
ITERATION   8 : L=   15.3226716514 DL=  2.92e-02 (AVERGE_DL)=    0.0697505337 
ITERATION   9 : L=   15.3354186131 DL=  1.27e-02 (AVERGE_DL)=    0.0460922295 
ITERATION  10 : L=   15.3407799252 DL=  5.36e-03 (AVERGE_DL)=    0.0298923403 
ITERATION  11 : L=   15.3430108790 DL=  2.23e-03 (AVERGE_DL)=    0.0192827810 
ITERATION  12 : L=   15.3439378922 DL=  9.27e-04 (AVERGE_DL)=    0.0124298909 
ITERATION  13 : L=   15.3443235726 DL=  3.86e-04 (AVERGE_DL)=    0.0080174854 
ITERATION  14 : L=   15.3444843055 DL=  1.61e-04 (AVERGE_DL)=    0.0051757910 
ITERATION  15 : L=   15.3445513886 DL=  6.71e-05 (AVERGE_DL)=    0.0033437284 
ITERATION  16 : L=   15.3445794167 DL=  2.80e-05 (AVERGE_DL)=    0.0021613314 
ITERATION  17 : L=   15.3445911361 DL=  1.17e-05 (AVERGE_DL)=    0.0013975831 
ITERATION  18 : L=   15.3445960389 DL=  4.90e-06 (AVERGE_DL)=    0.0009039549 
ITERATION  19 : L=   15.3445980906 DL=  2.05e-06 (AVERGE_DL)=    0.0005847628 
ITERATION  20 : L=   15.3445989495 DL=  8.59e-07 (AVERGE_DL)=    0.0003783543 
LOCALIZATION SUM CONVERGED


--------------------------------------------------------------------------------
                    LOCALIZED MOLECULAR ORBITAL COMPOSITIONS
--------------------------------------------------------------------------------

The Mulliken populations for each LMO on each atom are computed
The LMO`s will be ordered according to atom index and type
  (A) Strongly localized MO`s have populations of >=0.950 on one atom
  (B) Two center bond orbitals have populations of >=0.850 on two atoms
  (C) Other MO`s are considered to be `delocalized`

FOUND  -   2 strongly local MO`s
       -   2 two center bond MO`s
       -   0 significantly delocalized MO`s

Rather strongly localized orbitals:
MO   6:   1S  -   0.988285
MO   5:   0Li -   1.002006
Bond-like localized orbitals:
MO   8:   1S  -   0.900262  and   0Li -   0.099738
MO   7:   1S  -   0.900137  and   0Li -   0.099863
Localized MO's were stored in: /cluster/projects/nn14654k/ylvaos/basis_set_n_funcs/functionals/N12/LiS/inp/LiS_N12_pc2.loc

-------------------------   --------------------
FINAL SINGLE POINT ENERGY      -405.742400659544
-------------------------   --------------------



           ************************************************************
           *        Program running with 8 parallel MPI-processes     *
           *              working on a common directory               *
           ************************************************************

------------------------------------------------------------------------------
                              ORCA PROPERTY CALCULATIONS
------------------------------------------------------------------------------

GBWName                                 ... /cluster/projects/nn14654k/ylvaos/basis_set_n_funcs/functionals/N12/LiS/inp/LiS_N12_pc2.gbw
Number of atoms                         ...      2
Number of basis functions               ...     49
Max core memory                         ...   4096 MB

Electric properties:
Dipole moment                           ... YES
Quadrupole moment                       ... YES
Static polarizability (Dipole/Dipole)   ...  NO
Static polarizability (Dipole/Quad.)    ...  NO
Static polarizability (Quad./Quad.)     ...  NO
Static polarizability (Velocity)        ...  NO
Static hyperpolarizability              ...  NO

Atomic electric properties:
Dipole moment                           ...  NO
Quadrupole moment                       ...  NO
Static polarizability                   ...  NO

Choice of electric origin               ... Center of mass
Position of electric origin             ...     0.000000     0.000000     1.308198

General magnetic properties:
Magnetizability                         ...  NO

EPR properties:
g-Tensor (aka g-matrix)                 ...  NO
Zero-Field splitting spin-orbit         ...  NO
Zero-field splitting spin-spin          ...  NO
Hyperfine couplings                     ...  NO (   0 nuclei)
Quadrupole couplings                    ...  NO (   0 nuclei)
Contact density                         ...  NO (   0 nuclei)

NMR properties:
Chemical shifts                         ...  NO (   0 nuclei)
Spin-rotation constants                 ...  NO (   0 nuclei)
Spin-spin couplings                     ...  NO (   0 nuclei,    0 pairs)

Choice of magnetic origin               ... GIAO
Position of magnetic origin             ...     0.000000     0.000000     0.000000

Properties with geometric perturbations:
SCF Hessian                             ...  NO
IR spectrum                             ...  NO
VCD spectrum                            ...  NO
X-ray spectroscopy properties:
SCF XES/XAS/RIXS spectra                ...  NO

SCF SOC stabilization energy            ...  NO
Diagonal Born-Oppenheimer correction    ...  NO

-------------
DIPOLE MOMENT
-------------

Method             : SCF
Type of density    : Electron Density
Multiplicity       :   2
Irrep              :   0
Energy             :  -405.7424006595443871 Eh
Basis              : AO
                                X                 Y                 Z
Electronic contribution:      0.000000000      -0.000000000      -4.285086010
Nuclear contribution   :      0.000000000       0.000000000       1.549484202
                        -----------------------------------------
Total Dipole Moment    :      0.000000000      -0.000000000      -2.735601808
                        -----------------------------------------
Magnitude (a.u.)       :      2.735601808
Magnitude (Debye)      :      6.953347204



--------------------
Rotational spectrum 
--------------------
 
Rotational constants in cm-1:             0.000000             0.639339             0.639339 
Rotational constants in MHz :             0.000000         19166.891897         19166.891897 

Dipole components along the rotational axes: 
x,y,z [a.u.] :    -2.735602    -0.000000     0.000000 
x,y,z [Debye]:    -6.953347    -0.000000     0.000000 

 

Dipole moment calculation done in   0.0 sec 

-----------------
QUADRUPOLE MOMENT
-----------------

Method             : SCF
Type of density    : Electron Density
Multiplicity       :   2
Irrep              :   0
Energy             :  -405.7424006595443871 Eh
Basis              : AO

                XX              YY              ZZ              XY              XZ              YZ
  NUC        0.000000000     0.000000000    41.817245673     0.000000000     0.000000000     0.000000000
  EL       -11.700831850   -13.705579562   -45.067076025    -0.678107407     0.000000000    -0.000000000
  TOT      -11.700831850   -13.705579562    -3.249830352    -0.678107407     0.000000000    -0.000000000 (a.u.)
           -15.738019007   -18.434473241    -4.371132968    -0.912077654     0.000000000    -0.000000000 (Buckingham)

diagonalized tensor:
           -13.913405277   -11.493006135    -3.249830352 (a.u.)
           -18.714005936   -15.458486312    -4.371132968 (Buckingham)
           -17.598392592    -7.831833721    25.430226313 (traceless form in Buckingham)

            -0.293025993    -0.956104475     0.000000000
            -0.956104475     0.293025993    -0.000000000
            -0.000000000     0.000000000     1.000000000
        
Isotropic quadrupole :    -9.552080588

Quadrupole moment calculation done in   0.0 sec (  0.0 sec for integrals)

Maximum memory used throughout the entire PROP-calculation: 2.6 MB

--------------------------------
SUGGESTED CITATIONS FOR THIS RUN
--------------------------------

Below you find a list of papers that are relevant to this ORCA run
We neither can nor want to force you to cite these papers, but we appreciate if you do
You receive ORCA, which is the product of decades of hard work by many enthusiastic individuals, for free
The only thing we kindly ask in return is that you cite our papers,
We deeply appreciate it, if you show your appreciation for ORCA by not just citing the generic ORCA reference.

Please note that relegating all ORCA citations to the supporting information does *not* help us.
SI sections are not indexed - citations you put there will not count into any citation statistics
But we need these citations in order to attract the funding resources that allow us to do what we are doing

Therefore, if you are a happy ORCA user, please consider citing a few of the papers listed below in the main body of your paper

In addition to the list printed below, the program has created the file /cluster/projects/nn14654k/ylvaos/basis_set_n_funcs/functionals/N12/LiS/inp/LiS_N12_pc2.bibtex that contains the list in bibtex format
You can import this file easily into all common literature databanks and citation aid programs

It goes without saying that in many instances, there are alternative algorithms to achieve similar
results as the ones you have gotten from ORCA. It is, of course, also the case that in some instances
ORCA just re-implements algorithms worked out by others. We are fully aware of that and we are also
fully appreciative of our colleagues work. Hence this citation list should not be read as indicating
that the listed papers, which are focused on our own work, are the only ones worth citing. It simply
meant to make it easier for users to cite ORCA specific papers. It is not a substitute for doing your
own literature research and citing the relevant literature in a scientifically appropriate manner.

List of essential papers. We consider these as the minimum necessary citations

  1. Neese, F.
     Software update: the ORCA program system, version 6.0
     WIRES Comput. Molec. Sci. 2025 15(1), e70019
     doi.org/10.1002/wcms.70019

List of papers to cite with high priority. The work reported in these papers was absolutely
necessary for this run to complete.
Our perspective: the developers of density functionals and basis sets usually get cited in chemistry papers
Good! But without the algorithms to do something with them, the functionals or basis sets would not do anything.
Hence, in our opinion, the algorithm design and method developments papers are equally worthy of getting cited

  1. Lehtola, S.; Steigemann, C.; Oliveira, M.; Marques, M.
     Recent developments in Libxc - A comprehensive library of functionals for density functional theory
     Software X 2018 7 , 
     doi.org/10.1016/j.softx.2017.11.002
  2. Neese, F.
     The SHARK Integral Generation and Digestion System
     J. Comp. Chem. 2022 44(3), 381
     doi.org/10.1002/jcc.26942

List of suggested additional citations. These are papers that are important in the 'surrounding' of 
of this run, or papers that preceded the highly important papers. If you like your results we are grateful for a citation.

  1. Neese, F.
     The ORCA program system
     WIRES Comput. Molec. Sci. 2012 2(1), 73-78
     doi.org/10.1002/wcms.81
  2. Neese, F.
     Software update: the ORCA program system, version 4.0
     WIRES Comput. Molec. Sci. 2018 8(1), 1-6
     doi.org/10.1002/wcms.1327
  3. Neese, F.; Wennmohs, F.; Becker, U.; Riplinger, C.
     The ORCA quantum chemistry program package
     J. Chem. Phys. 2020 152(22), 224108
     doi.org/10.1063/5.0004608
  4. Neese, F.
     Software update: The ORCA program system—Version 5.0
     WIRES Comput. Molec. Sci. 2022 12(1), e1606
     doi.org/10.1002/wcms.1606

List of optional additional citations

  1. Neese, F.
     Approximate second-order SCF convergence for spin unrestricted wavefunctions
     Chem. Phys. Lett. 2000 325(1-3), 93-98
     doi.org/10.1016/s0009-2614(00)00662-x

Timings for individual modules:

Sum of individual times          ...        4.177 sec (=   0.070 min)
Startup calculation              ...        0.352 sec (=   0.006 min)   8.4 %
SCF iterations                   ...        3.224 sec (=   0.054 min)  77.2 %
Property integrals               ...        0.329 sec (=   0.005 min)   7.9 %
Property calculations            ...        0.256 sec (=   0.004 min)   6.1 %
Orbital localization             ...        0.016 sec (=   0.000 min)   0.4 %
                             ****ORCA TERMINATED NORMALLY****
TOTAL RUN TIME: 0 days 0 hours 0 minutes 5 seconds 156 msec
