
                                 *****************
                                 * O   R   C   A *
                                 *****************

                                            #,                                       
                                            ###                                      
                                            ####                                     
                                            #####                                    
                                            ######                                   
                                           ########,                                 
                                     ,,################,,,,,                         
                               ,,#################################,,                 
                          ,,##########################################,,             
                       ,#########################################, ''#####,          
                    ,#############################################,,   '####,        
                  ,##################################################,,,,####,       
                ,###########''''           ''''###############################       
              ,#####''   ,,,,##########,,,,          '''####'''          '####       
            ,##' ,,,,###########################,,,                        '##       
           ' ,,###''''                  '''############,,,                           
         ,,##''                                '''############,,,,        ,,,,,,###''
      ,#''                                            '''#######################'''  
     '                                                          ''''####''''         
             ,#######,   #######,   ,#######,      ##                                
            ,#'     '#,  ##    ##  ,#'     '#,    #''#        ,####,    ,#,          
            ##       ##  ##   ,#'  ##            #'  '#       #'       ,# #          
            ##       ##  #######   ##           ,######,      #####,      #          
            '#,     ,#'  ##    ##  '#,     ,#' ,#      #,     #,   #      #          
             '#######'   ##     ##  '#######'  #'      '#     '####' #    #          



                #########################################################
                #                        -***-                          #
                #          Department of theory and spectroscopy        #
                #                                                       #
                #                      Frank Neese                      #
                #                                                       #
                #     Directorship, Architecture, Infrastructure        #
                #                    SHARK, DRIVERS                     #
                #        Core code/Algorithms in most modules           #
                #                                                       #
                #        Max Planck Institute fuer Kohlenforschung      #
                #                Kaiser Wilhelm Platz 1                 #
                #                 D-45470 Muelheim/Ruhr                 #
                #                      Germany                          #
                #                                                       #
                #                  All rights reserved                  #
                #                        -***-                          #
                #########################################################


                         Program Version 6.1.1  -  RELEASE   -
                                (GIT: $487d211c$)
                          ($2025-11-21 10:33:24 +0100$)


 With contributions from (in alphabetic order):
[Max-Planck-Institut fuer Kohlenforschung]                               
  Daniel Aravena         : Magnetic Suceptibility                        
  Michael Atanasov       : Ab Initio Ligand Field Theory (pilot matlab implementation)
  Alexander A. Auer      : GIAO ZORA, VPT2 properties, NMR spectrum      
  Ute Becker             : All parallelization in ORCA, NUMFREQ, NUMCALC 
  Giovanni Bistoni       : ED, misc. LED, open-shell LED, HFLD           
  Dmytro Bykov           : pre 5.0 version of the SCF Hessian            
  Marcos Casanova-Páez   : Triplet and SCS-CIS(D). UHF-(DLPNO)-IP/EA/STEOM-CCSD. UHF-CVS-IP/STEOM-CCSD   
  Vijay G. Chilkuri      : MRCI spin determinant printing, contributions to CSF-ICE 
  Pauline Colinet        : FMM embedding                                 
  Dipayan Datta          : RHF DLPNO-CCSD density                        
  Achintya Kumar Dutta   : EOM-CC, STEOM-CC                              
  Nicolas Foglia         : Exact transition moments, OPA infrastructure, MCD improvements    
  Dmitry Ganyushin       : Spin-Orbit,Spin-Spin,Magnetic field MRCI      
  Miquel Garcia-Rates    : C-PCM and meta-GGA Hessian, CCSD/C-PCM, Gaussian charge scheme 
  Tiago L. C. Gouveia    : GS-ROHF, GS-ROCIS                             
  Yang Guo               : DLPNO-NEVPT2, F12-NEVPT2, CIM, IAO-localization        
  Andreas Hansen         : Spin unrestricted coupled pair/coupled cluster methods 
  Ingolf Harden          : AUTO-CI MPn and infrastructure                
  Benjamin Helmich-Paris : MC-RPA, TRAH-(SCF,CASSCF), AVAS, COSX integrals, SCF dyn. polar., MC-PDFT, srDFT 
  Lee Huntington         : MR-EOM, pCC                                   
  Robert Izsak           : Overlap fitted RIJCOSX, COSX-SCS-MP3, EOM     
  Riya Kayal             : Wick's Theorem for AUTO-CI, AUTO-CI UHF-CCSDT 
  Emily Kempfer          : AUTO-CI RHF CISDT and CCSDT, approximate NEVPT4
  Christian Kollmar      : KDIIS, OOCD, Brueckner-CCSD(T), CCSD density, CASPT2, CASPT2-K, improved NEVPT2 
  Axel Koslowski         : Symmetry handling                             
  Simone Kossmann        : meta-GGA functionals, TD-DFT gradient, OOMP2, (MP2 Hessian; deprecated post 5.0) 
  Lucas Lang             : DCDCAS, Hyperfine gauge corrections, ICE-SOC+SSC
  Marvin Lechner         : AUTO-CI (C++ implementation), FIC-MRCC        
  Spencer Leger          : CASSCF response                               
  Dagmar Lenk            : GEPOL surface, SMD, ORCA-2-JSON               
  Dimitrios Liakos       : Extrapolation schemes; Compound Job, Property file
  Dimitrios Manganas     : Further ROCIS development; embedding schemes. LFT, Crystal Embedding 
  Dimitrios Pantazis     : SARC Basis sets                               
  Anastasios Papadopoulos: AUTO-CI, single reference methods and gradients 
  Taras Petrenko         : pre 6.0 DFT Hessian and TD-DFT gradient,  ECA, NRVS 
  Petra Pikulova         : Analytic Raman intensities                    
  Peter Pinski           : DLPNO-MP2, DLPNO-MP2 Gradient                 
  Shashank Vittal Rao    : ES-AILFT, MagRelax                            
  Christoph Reimann      : Effective Core Potentials                     
  Marius Retegan         : Local ZFS, SOC                                
  Christoph Riplinger    : Optimizer, TS searches, QM/MM, DLPNO-CCSD(T), (RO)-DLPNO pert. Triples 
  Michael Roemelt        : Original ROCIS implementation, recursive CI coupling coefficients
  Masaaki Saitow         : Open-shell DLPNO-CCSD energy and density      
  Barbara Sandhoefer     : DKH picture change effects                    
  Yorick L. A. Schmerwitz: GMF and freeze-and-release deltaSCF, NEB S-IDPP initial path                    
  Kantharuban Sivalingam : CASSCF convergence/infrastructure, NEVPT2, NEVPT3, NEVPT4(SD), FIC-MRCI and CEPA variants
  Bernardo de Souza      : ESD, SOC TD-DFT                               
  Georgi L. Stoychev     : AutoAux, RI-MP2 NMR, DLPNO-MP2 response, X2C  
  Van Anh Tran           : RI-MP2 g-tensors                              
  Willem Van den Heuvel  : Paramagnetic NMR                              
  Zikuan Wang            : NOTCH, Electric field optimization            
  Frank Wennmohs         : Technical directorship and infrastructure     
  Hang Xu                : AUTO-CI-Response properties                   
                                                                         
[FACCTs GmbH]                                                            
  Markus Bursch, Nicolas Foglia, Miquel Garcia-Rates, Ingolf Harden, Hagen Neugebauer, Anastasios Papadopoulos, 
  Christoph Riplinger, Bernardo de Souza, Georgi L. Stoychev                                                    
                                                                 
  APM, various basis sets, CI-OPT, improved COSX, DLPNO-Multilevel,           
  DOCKER, DRACO, updates on ESD, Fragmentator, GOAT, IRC, LR-CPCM, L-BFGS, MBIS, meta-GGA TD-DFT gradient, ML-optimized integration grids, 
  MM, NACMEs, nearIR, NEB, NEB-TS, NL-DFT gradient (VV10), 2- and 3-layer-ONIOM, interface openCOSMO-RS, QMMM,   
  Crystal-QMMM, RESP, rigid body optimization, SF, symmetry and pop. for TD-DFT, various functionals, SOLVATOR                                   
                                                                         
[Other institutions]                                                     
  V. Asgeirsson          : NEB                                           
  Christoph Bannwarth    : sTDA-DFT, sTD-DFT, PBEh-3c, B97-3c, D3        
  Giovanni Bistoni       : ETS/NOCV, ADLD/ADEX, COVALED                  
  Martin Brehm           : Molecular dynamics                            
  Ronald Cardenas        : ETS/NOCV                                      
  Martina Colucci        : COVALED                                       
  Sebastian Ehlert       : rSCAN, r2SCAN, r2SCAN-3c, D4, dhf basis sets  
  Marvin Friede          : D4 for Fr, Ra, Ac-Lr                          
  Lars Goerigk           : TD-DFT with DH, B97 family of functionals     
  Stefan Grimme          : VdW corrections, initial TS optimization, DFT functionals, gCP, sTDA/sTD-DF 
  Waldemar Hujo          : DFT-NL                                        
  H. Jonsson             : NEB                                           
  Holger Kruse           : gCP                                           
  Marcel Mueller         : wB97X-3c, vDZP basis set                      
  Hagen Neugebauer       : wr2SCAN, Native XTB                           
  Gianluca Regni         : ADLD/ADEX                                     
  Tobias Risthaus        : pre 6.0 range-separated hybrid DFT and stability analysis
  Lukas Wittmann         : regularized MP2, r2SCAN double-hybrids, wr2SCAN        
                                                                         
We gratefully acknowledge several colleagues who have allowed us to      
interface, adapt or use parts of their codes:                            
  Ed Valeev, F. Pavosevic, A. Kumar             : LibInt (2-el integral package), F12 methods 
  Garnet Chan, S. Sharma, J. Yang, R. Olivares  : DMRG                   
  Ulf Ekstrom                                   : XCFun DFT Library      
  Mihaly Kallay                                 : mrcc  (arbitrary order and MRCC methods)
  Frank Weinhold                                : gennbo (NPA and NBO analysis)           
  Simon Mueller                                 : openCOSMO-RS                            
  Christopher J. Cramer and Donald G. Truhlar   : smd solvation model                     
  S Lehtola, MJT Oliveira, MAL Marques          : LibXC Library                           
  Liviu Ungur et al                             : ANISO software                          


 Your calculation uses the libint2 library for the computation of 2-el integrals
 For citations please refer to: http://libint.valeyev.net

 Your ORCA version has been built with support for libXC version: 7.0.0
 For citations please refer to: https://libxc.gitlab.io

 This ORCA versions uses:
   CBLAS   interface :  Fast vector & matrix operations
   LAPACKE interface :  Fast linear algebra routines
   SCALAPACK package :  Parallel linear algebra routines
   Shared memory     :  Shared parallel matrices
   BLAS/LAPACK       :  OpenBLAS 0.3.29  USE64BITINT DYNAMIC_ARCH NO_AFFINITY Cooperlake SINGLE_THREADED
        Core in use  :  Cooperlake
   Copyright (c) 2011-2014, The OpenBLAS Project


  ***********************************
  * Starting time: Wed May 20 12:36:45 2026
  * Host name:     c1-47
  * Process ID:    3548623
  * Working dir.:  /cluster/projects/nn14654k/ylvaos/basis_set_n_funcs/functionals/N12/LiS/out
  ***********************************

Using LibXC functional ID  82 : Minnesota N12 exchange functional
[ 1]  R. Peverati and D. G. Truhlar.,  J. Chem. Theory Comput. 8, 2310 (2012)
Using LibXC functional ID  80 : Minnesota N12 correlation functional
[ 1]  R. Peverati and D. G. Truhlar.,  J. Chem. Theory Comput. 8, 2310 (2012)
Using LibXC functional ID  82 : Minnesota N12 exchange functional
[ 1]  R. Peverati and D. G. Truhlar.,  J. Chem. Theory Comput. 8, 2310 (2012)
Using LibXC functional ID  80 : Minnesota N12 correlation functional
[ 1]  R. Peverati and D. G. Truhlar.,  J. Chem. Theory Comput. 8, 2310 (2012)
Your calculation utilizes LibXC
by S. Lehtola, C. Steigemann, M. J. T. Oliveira & M. A. L. Marques
Please cite in your paper:
Lehtola, S.; Steigemann, C.; Oliveira, M.J.T.; Marques, M. A. L. Software X, 7, (2018), 1.
   

================================================================================

----- Orbital basis set information -----
Your calculation utilizes the basis: pcseg-2
   F. Jensen, J. Chem. Theory Comput. 10, 1074 (2014).

================================================================================
                                        WARNINGS
                       Please study these warnings very carefully!
================================================================================


WARNING: your system is open-shell and RHF/RKS was chosen
  ===> : WILL SWITCH to UHF/UKS


================================================================================
                                       INPUT FILE
================================================================================
NAME = /cluster/projects/nn14654k/ylvaos/basis_set_n_funcs/functionals/N12/LiS/inp/LiS_N12_pcseg2.inp
|  1> ! dft pcseg-2 TightSCF
|  2> %pal nprocs 8 end
|  3> 
|  4> %loc
|  5>   LocMet NewBoys
|  6>   Occ true
|  7> end
|  8> 
|  9> %method
| 10>   exchange gga_x_N12
| 11>   correlation gga_c_N12
| 12> end
| 13> 
| 14> %elprop
| 15>   Dipole true
| 16>   Quadrupole true
| 17> end
| 18> 
| 19> * xyz 0 2
| 20> Li    0.000000000000   0.000000000000  -1.074850000000
| 21> S    0.000000000000   0.000000000000   1.074850000000
| 22> *
| 23> 
| 24> 
| 25>                          ****END OF INPUT****
================================================================================

                       ****************************
                       * Single Point Calculation *
                       ****************************

---------------------------------
CARTESIAN COORDINATES (ANGSTROEM)
---------------------------------
  Li     0.000000    0.000000   -1.074850
  S      0.000000    0.000000    1.074850

----------------------------
CARTESIAN COORDINATES (A.U.)
----------------------------
  NO LB      ZA    FRAG     MASS         X           Y           Z
   0 Li    3.0000    0     6.941    0.000000    0.000000   -2.031172
   1 S    16.0000    0    32.060    0.000000    0.000000    2.031172

--------------------------------
INTERNAL COORDINATES (ANGSTROEM)
--------------------------------
 Li     0   0   0     0.000000000000     0.00000000     0.00000000
 S      1   0   0     2.149700000000     0.00000000     0.00000000

---------------------------
INTERNAL COORDINATES (A.U.)
---------------------------
 Li     0   0   0     0.000000000000     0.00000000     0.00000000
 S      1   0   0     4.062344270091     0.00000000     0.00000000

---------------------
BASIS SET INFORMATION
---------------------
There are 2 groups of distinct atoms

 Group   1 Type Li  : 11s4p1d contracted to 4s2p1d pattern {7211/31/1}
 Group   2 Type S   : 15s11p2d1f contracted to 5s4p2d1f pattern {83211/7211/11/1}

Atom   0Li   basis set group =>   1
Atom   1S    basis set group =>   2


           ************************************************************
           *        Program running with 8 parallel MPI-processes     *
           *              working on a common directory               *
           ************************************************************
------------------------------------------------------------------------------
                             ORCA STARTUP CALCULATIONS
------------------------------------------------------------------------------
------------------------------------------------------------------------------
                   ___                                                        
                  /   \      - P O W E R E D   B Y -                         
                 /     \                                                     
                 |  |  |   _    _      __       _____    __    __             
                 |  |  |  | |  | |    /  \     |  _  \  |  |  /  |          
                  \  \/   | |  | |   /    \    | | | |  |  | /  /          
                 / \  \   | |__| |  /  /\  \   | |_| |  |  |/  /          
                |  |  |   |  __  | /  /__\  \  |    /   |      \           
                |  |  |   | |  | | |   __   |  |    \   |  |\   \          
                \     /   | |  | | |  |  |  |  | |\  \  |  | \   \       
                 \___/    |_|  |_| |__|  |__|  |_| \__\ |__|  \__/        
                                                                              
                      - O R C A' S   B I G   F R I E N D -                    
                                      &                                       
                       - I N T E G R A L  F E E D E R -                       
                                                                              
 v1 FN, 2020, v2 2021, v3 2022-2024                                           
------------------------------------------------------------------------------


----------------------
SHARK INTEGRAL PACKAGE
----------------------

Number of atoms                             ...      2
Number of basis functions                   ...     49
Number of shells                            ...     19
Maximum angular momentum                    ...      3
Integral batch strategy                     ... SHARK/LIBINT Hybrid
RI-J (if used) integral strategy            ... SPLIT-RIJ (Revised 2003 algorithm where possible)
Printlevel                                  ...      1
Contraction scheme used                     ... SEGMENTED contraction
Prescreening option                         ... SCHWARTZ
   Thresh                                   ... 2.500e-11
   Tcut                                     ... 2.500e-12
   Tpresel                                  ... 2.500e-12 
Coulomb Range Separation                    ... NOT USED
Exchange Range Separation                   ... NOT USED
Multipole approximations                    ... NOT USED
Finite Nucleus Model                        ... NOT USED
CABS basis                                  ... NOT available
Auxiliary Coulomb fitting basis             ... NOT available
Auxiliary J/K fitting basis                 ... NOT available
Auxiliary Correlation fitting basis         ... NOT available
Auxiliary 'external' fitting basis          ... NOT available

Checking pre-screening integrals            ... done (  0.0 sec) Dimension = 19
   => SHARK Basis and OBASIS are compatible. Storing Pre-screening
Shell pair information
Shell pair cut-off parameter TPreSel        ...   2.5e-12
Total number of shell pairs                 ...       190
Shell pairs after pre-screening             ...       190
Total number of primitive shell pairs       ...      1114
Primitive shell pairs kept                  ...       994
          la=0 lb=0:     45 shell pairs
          la=1 lb=0:     54 shell pairs
          la=1 lb=1:     21 shell pairs
          la=2 lb=0:     27 shell pairs
          la=2 lb=1:     18 shell pairs
          la=2 lb=2:      6 shell pairs
          la=3 lb=0:      9 shell pairs
          la=3 lb=1:      6 shell pairs
          la=3 lb=2:      3 shell pairs
          la=3 lb=3:      1 shell pairs

Checking whether 4 symmetric matrices of dimension 49 fit in memory
:Max Core in MB      =   4096.00
 MB in use           =      2.16
 MB left             =   4093.84
 MB needed           =      0.04
 Data fit in memory  = YES
Calculating Nuclear repulsion               ... done (  0.0 sec) ENN=     11.815837557985 Eh

Diagonalization of the overlap matrix:
Smallest eigenvalue                        ... 2.035e-03
Time for diagonalization                   ...    0.001 sec
Threshold for overlap eigenvalues          ... 1.000e-07
Number of eigenvalues below threshold      ... 0
Time for construction of square roots      ...    0.011 sec
Total time needed                          ...    0.017 sec

-------------------
DFT GRID GENERATION
-------------------

General Integration Accuracy     IntAcc      ... 4.388
Radial Grid Type                 RadialGrid  ... OptM3 with GC (2021)
Angular Grid (max. ang.)         AngularGrid ... 4 (Lebedev-302)
Angular grid pruning method      GridPruning ... 4 (adaptive)
Weight generation scheme         WeightScheme... mBecke (2022)
Basis function cutoff            BFCut       ... 1.0000e-11
Integration weight cutoff        WCut        ... 1.0000e-14
Partially contracted basis set               ... off
Rotationally invariant grid construction     ... off
Angular grids for H and He will be reduced by one unit

Total number of grid points                  ...    13486
Total number of batches                      ...      212
Average number of points per batch           ...       63
Average number of grid points per atom       ...     6743
Grids setup in   0.0 sec
Initializing property integral containers    ... done (  0.0 sec)

SHARK setup successfully completed in   0.1 seconds

Maximum memory used throughout the entire STARTUP-calculation: 16.0 MB


           ************************************************************
           *        Program running with 8 parallel MPI-processes     *
           *              working on a common directory               *
           ************************************************************
-------------------------------------------------------------------------------
                                 ORCA GUESS
                   Start orbitals & Density for SCF / CASSCF
-------------------------------------------------------------------------------

------------
SCF SETTINGS
------------
Hamiltonian:
 Density Functional     Method          .... DFT(GTOs)
  Functional kind                       .... Exchange
  Functional name                       .... Minnesota N12 exchange functional
  Functional family                     .... GGA
  Functional refs                              
    [ 0] R. Peverati and D. G. Truhlar.,  J. Chem. Theory Comput. 8, 2310 (2012), doi: 10.1021/ct3002656
  Functional external parameters        .... 16
    Parameter  0 _CC00      =  1.000000e+00 : _CC00               
    Parameter  1 _CC01      =  5.078800e-01 : _CC01               
    Parameter  2 _CC02      =  1.682330e-01 : _CC02               
    Parameter  3 _CC03      =  1.288870e-01 : _CC03               
    Parameter  4 _CC10      =  8.602110e-02 : _CC10               
    Parameter  5 _CC11      = -1.710080e+01 : _CC11               
    Parameter  6 _CC12      =  6.508140e+01 : _CC12               
    Parameter  7 _CC13      = -7.017260e+01 : _CC13               
    Parameter  8 _CC20      = -3.907550e-01 : _CC20               
    Parameter  9 _CC21      =  5.133920e+01 : _CC21               
    Parameter 10 _CC22      = -1.662200e+02 : _CC22               
    Parameter 11 _CC23      =  1.427380e+02 : _CC23               
    Parameter 12 _CC30      =  4.036110e-01 : _CC30               
    Parameter 13 _CC31      = -3.446310e+01 : _CC31               
    Parameter 14 _CC32      =  7.616610e+01 : _CC32               
    Parameter 15 _CC33      = -2.418340e+00 : _CC33               
  Functional kind                       .... Correlation
  Functional name                       .... Minnesota N12 correlation functional
  Functional family                     .... GGA
  Functional refs                              
    [ 0] R. Peverati and D. G. Truhlar.,  J. Chem. Theory Comput. 8, 2310 (2012), doi: 10.1021/ct3002656
  Functional external parameters        .... 10
    Parameter  0 _css0      =  1.000000e+00 : u^0 coefficient for same-spin correlation
    Parameter  1 _css1      = -5.531700e+00 : u^1 coefficient for same-spin correlation
    Parameter  2 _css2      =  3.079580e+01 : u^2 coefficient for same-spin correlation
    Parameter  3 _css3      = -5.641960e+01 : u^3 coefficient for same-spin correlation
    Parameter  4 _css4      =  3.212500e+01 : u^4 coefficient for same-spin correlation
    Parameter  5 _cos0      =  1.000000e+00 : u^0 coefficient for opposite-spin correlation
    Parameter  6 _cos1      =  3.245110e+00 : u^1 coefficient for opposite-spin correlation
    Parameter  7 _cos2      = -2.528930e+01 : u^2 coefficient for opposite-spin correlation
    Parameter  8 _cos3      =  1.444070e+01 : u^3 coefficient for opposite-spin correlation
    Parameter  9 _cos4      =  1.968700e+01 : u^4 coefficient for opposite-spin correlation
 Gradients option       PostSCFGGA      .... off


General Settings:
 Integral files         IntName         .... /cluster/projects/nn14654k/ylvaos/basis_set_n_funcs/functionals/N12/LiS/inp/LiS_N12_pcseg2
 Hartree-Fock type      HFTyp           .... UHF
 Total Charge           Charge          ....    0
 Multiplicity           Mult            ....    2
 Number of Electrons    NEL             ....   19
 Basis Dimension        Dim             ....   49
 Nuclear Repulsion      ENuc            ....     11.8158375580 Eh

Convergence Acceleration:
 AO-DIIS                CNVDIIS         .... on
   Start iteration      DIISMaxIt       ....    12
   Startup error        DIISStart       ....  0.200000
   # of expansion vecs  DIISMaxEq       ....     5
   Bias factor          DIISBfac        ....   1.050
   Max. coefficient     DIISMaxC        ....  10.000
 MO-DIIS                CNVKDIIS        .... off
 Trust-Rad. Augm. Hess. CNVTRAH         .... auto
   Auto Start mean grad. ratio tolernc. ....  1.125000
   Auto Start start iteration           ....    50
   Auto Start num. interpolation iter.  ....    10
   Max. Number of Micro iterations      ....    24
   Max. Number of Macro iterations      .... Maxiter - #DIIS iter
   Number of Davidson start vectors     ....     2
   Converg. threshold    (grad. norm)   ....   1.000e-05
   Grad. Scal. Fac. for Micro threshold ....   0.100
   Minimum threshold for Micro iter.    ....   1.000e-02
   NR start threshold (gradient norm)   ....   1.000e-04
   Initial trust radius                 ....   0.400
   Minimum AH scaling param. (alpha)    ....   1.000
   Maximum AH scaling param. (alpha)    .... 1000.000
   Quad. conv. algorithm                .... NR
   White noise on init. David. guess    .... on
   Maximum white noise                  ....   0.010
   Pseudo random numbers                .... off
   Inactive MOs                         .... canonical
   Orbital update algorithm             .... Taylor
   Preconditioner                       .... Diag
   Full preconditioner red. dimension   ....   250
 SOSCF                 CNVSOSCF           .... on
   Start iteration     SOSCFMaxIt         ....   150
   Startup grad/error  SOSCFStart         ....  0.003300
   Hessian update      SOSCFHessUp        .... L-BFGS
   Autom. constraints  SOSCFAutoConstrain .... off
 Level Shifting         CNVShift        .... on
   Level shift para.    LevelShift      ....    0.2500
   Turn off err/grad.   ShiftErr        ....    0.0010
 Zerner damping         CNVZerner       .... off
 Static damping         CNVDamp         .... on
   Fraction old density DampFac         ....    0.7000
   Max. Damping (<1)    DampMax         ....    0.9800
   Min. Damping (>=0)   DampMin         ....    0.0000
   Turn off err/grad.   DampErr         ....    0.1000

SCF Procedure:
 Maximum # iterations   MaxIter         ....   125
 SCF integral mode      SCFMode         .... Direct
   Integral package                     .... SHARK and LIBINT hybrid scheme
 Reset frequency        DirectResetFreq ....    20
 Integral Threshold     Thresh          ....  2.500e-11 Eh
 Primitive CutOff       TCut            ....  2.500e-12 Eh

Convergence Tolerance:
 Convergence Check Mode ConvCheckMode   .... Total+1el-Energy
 Convergence forced     ConvForced      .... 0
 Energy Change          TolE            ....  1.000e-08 Eh
 1-El. energy change                    ....  1.000e-05 Eh
 Orbital Gradient       TolG            ....  1.000e-05
 Orbital Rotation angle TolX            ....  1.000e-05
 DIIS Error             TolErr          ....  5.000e-07

------------------------------
INITIAL GUESS: MODEL POTENTIAL
------------------------------
Loading Hartree-Fock densities                     ... done
Calculating cut-offs                               ... done
Initializing the effective Hamiltonian             ... done
Setting up the integral package (SHARK)            ... done
Starting the Coulomb interaction                   ... done (   0.0 sec)
Making the grid                                    ... done (   0.0 sec)
Mapping shells                                     ... done
Starting the XC term evaluation                    ... done (   0.0 sec)
  promolecular density results
     # of electrons  =     18.999659774
     EX              =    -26.297695348
     EC              =     -1.157893592
     EX+EC           =    -27.455588940
Transforming the Hamiltonian                       ... done (   0.0 sec)
Diagonalizing the Hamiltonian                      ... done (   0.0 sec)
Back transforming the eigenvectors                 ... done (   0.0 sec)
Now organizing SCF variables                       ... done
                      ------------------
                      INITIAL GUESS DONE (   0.0 sec)
                      ------------------
             **** ENERGY FILE WAS UPDATED (/cluster/projects/nn14654k/ylvaos/basis_set_n_funcs/functionals/N12/LiS/inp/LiS_N12_pcseg2.en.tmp) ****
Finished Guess after   0.1 sec
Maximum memory used throughout the entire GUESS-calculation: 5.7 MB


           ************************************************************
           *        Program running with 8 parallel MPI-processes     *
           *              working on a common directory               *
           ************************************************************

-------------------------------------------------------------------------------------------
                                      ORCA LEAN-SCF
                              memory conserving SCF solver
-------------------------------------------------------------------------------------------

----------------------------------------D-I-I-S--------------------------------------------
Iteration    Energy (Eh)           Delta-E    RMSDP     MaxDP     DIISErr   Damp  Time(sec)
-------------------------------------------------------------------------------------------
               ***  Starting incremental Fock matrix formation  ***
    1    -405.6861936109393696     0.00e+00  7.45e-03  5.49e-02  7.28e-02  0.700   0.1
Warning: op=0 Small HOMO/LUMO gap (   0.023) - skipping pre-diagonalization
         Will do a full diagonalization
    2    -405.7123277396322578    -2.61e-02  5.83e-03  3.41e-02  4.09e-02  0.700   0.1
                               ***Turning on AO-DIIS***
    3    -405.7236936660880247    -1.14e-02  2.17e-03  1.37e-02  1.35e-02  0.700   0.1
    4    -405.7292541070033280    -5.56e-03  3.24e-03  2.02e-02  9.00e-03  0.000   0.1
    5    -405.7416319086943872    -1.24e-02  8.56e-04  4.29e-03  6.53e-03  0.000   0.1
                              *** Initializing SOSCF ***
---------------------------------------S-O-S-C-F--------------------------------------
Iteration    Energy (Eh)           Delta-E    RMSDP     MaxDP     MaxGrad    Time(sec)
--------------------------------------------------------------------------------------
    6    -405.7421484740227697    -5.17e-04  4.12e-04  2.33e-03  3.26e-03     0.1
               *** Restarting incremental Fock matrix formation ***
    7    -405.7422787103223527    -1.30e-04  6.28e-04  2.80e-03  2.05e-03     0.1
    8    -405.7423137457827806    -3.50e-05  3.91e-04  2.78e-03  1.65e-03     0.1
    9    -405.7423373577214534    -2.36e-05  6.72e-05  3.10e-04  2.49e-04     0.1
   10    -405.7423381597351408    -8.02e-07  7.19e-05  3.80e-04  1.31e-04     0.1
   11    -405.7423387221247140    -5.62e-07  6.81e-05  2.47e-04  1.28e-04     0.1
   12    -405.7423390333497082    -3.11e-07  2.50e-05  1.08e-04  4.90e-05     0.1
   13    -405.7423390971381423    -6.38e-08  1.02e-05  4.80e-05  1.89e-05     0.1
   14    -405.7423391082198805    -1.11e-08  2.76e-06  1.31e-05  5.92e-06     0.1
   15    -405.7423391090246128    -8.05e-10  1.11e-06  4.58e-06  2.10e-06     0.1
                 **** Energy Check signals convergence ****

               *****************************************************
               *                     SUCCESS                       *
               *           SCF CONVERGED AFTER  15 CYCLES          *
               *****************************************************

             **** ENERGY FILE WAS UPDATED (/cluster/projects/nn14654k/ylvaos/basis_set_n_funcs/functionals/N12/LiS/inp/LiS_N12_pcseg2.en.tmp) ****

----------------
TOTAL SCF ENERGY
----------------

Total Energy       :       -405.74233910914353 Eh          -11040.81035 eV

Components:
Nuclear Repulsion  :         11.81583755798484 Eh             321.52529 eV
Electronic Energy  :       -417.55817666712835 Eh          -11362.33564 eV
One Electron Energy:       -585.39563817306032 Eh          -15929.42515 eV
Two Electron Energy:        167.83746150593197 Eh            4567.08951 eV

Virial components:
Potential Energy   :       -811.96636900040357 Eh          -22094.72817 eV
Kinetic Energy     :        406.22402989126010 Eh           11053.91782 eV
Virial Ratio       :          1.99881422381082

DFT components:
N(Alpha)           :        9.999998000112 electrons
N(Beta)            :        8.999997823801 electrons
N(Total)           :       18.999995823913 electrons
E(X)               :      -26.508773831689 Eh       
E(C)               :       -1.171642156544 Eh       
E(XC)              :      -27.680415988233 Eh       

---------------
SCF CONVERGENCE
---------------

  Last Energy change         ...    8.0473e-10  Tolerance :   1.0000e-08
  Last MAX-Density change    ...    4.5825e-06  Tolerance :   1.0000e-07
  Last RMS-Density change    ...    1.1133e-06  Tolerance :   5.0000e-09
  Last DIIS Error            ...    3.2635e-03  Tolerance :   5.0000e-07
  Last Orbital Gradient      ...    2.0965e-06  Tolerance :   1.0000e-05
  Last Orbital Rotation      ...    1.5104e-05  Tolerance :   1.0000e-05


----------------------
UHF SPIN CONTAMINATION
----------------------

Warning: in a DFT calculation there is little theoretical justification to 
         calculate <S**2> as in Hartree-Fock theory. We will do it anyways
         but you should keep in mind that the values have only limited relevance

Expectation value of <S**2>     :     0.753190
Ideal value S*(S+1) for S=0.5   :     0.750000
Deviation                       :     0.003190

----------------
ORBITAL ENERGIES
----------------
                 SPIN UP ORBITALS
  NO   OCC          E(Eh)            E(eV) 
   0   1.0000     -87.830554     -2389.9909 
   1   1.0000      -7.622891      -207.4294 
   2   1.0000      -5.767107      -156.9310 
   3   1.0000      -5.752030      -156.5207 
   4   1.0000      -5.751181      -156.4976 
   5   1.0000      -1.940972       -52.8165 
   6   1.0000      -0.540988       -14.7210 
   7   1.0000      -0.206585        -5.6215 
   8   1.0000      -0.192100        -5.2273 
   9   1.0000      -0.169495        -4.6122 
  10   0.0000      -0.077623        -2.1122 
  11   0.0000      -0.021059        -0.5730 
  12   0.0000      -0.009307        -0.2533 
  13   0.0000       0.019527         0.5314 
  14   0.0000       0.051084         1.3901 
  15   0.0000       0.142594         3.8802 
  16   0.0000       0.149501         4.0681 
  17   0.0000       0.232627         6.3301 
  18   0.0000       0.282970         7.7000 
  19   0.0000       0.284962         7.7542 
  20   0.0000       0.308438         8.3930 

                 SPIN DOWN ORBITALS
  NO   OCC          E(Eh)            E(eV) 
   0   1.0000     -87.823579     -2389.8011 
   1   1.0000      -7.618844      -207.3193 
   2   1.0000      -5.756465      -156.6414 
   3   1.0000      -5.748936      -156.4365 
   4   1.0000      -5.748092      -156.4135 
   5   1.0000      -1.940924       -52.8152 
   6   1.0000      -0.505980       -13.7684 
   7   1.0000      -0.178764        -4.8644 
   8   1.0000      -0.156169        -4.2496 
   9   0.0000      -0.147622        -4.0170 
  10   0.0000      -0.073922        -2.0115 
  11   0.0000      -0.011429        -0.3110 
  12   0.0000      -0.009963        -0.2711 
  13   0.0000       0.032922         0.8959 
  14   0.0000       0.051259         1.3948 
  15   0.0000       0.146941         3.9985 
  16   0.0000       0.148062         4.0290 
  17   0.0000       0.240399         6.5416 
  18   0.0000       0.292176         7.9505 
  19   0.0000       0.317734         8.6460 
*Only the first 10 virtual orbitals were printed.

                    ********************************
                    * MULLIKEN POPULATION ANALYSIS *
                    ********************************

--------------------------------------------
MULLIKEN ATOMIC CHARGES AND SPIN POPULATIONS
--------------------------------------------
   0 Li:    0.463585    0.015152
   1 S :   -0.463585    0.984848
Sum of atomic charges         :   -0.0000000
Sum of atomic spin populations:    1.0000000

-----------------------------------------------------
MULLIKEN REDUCED ORBITAL CHARGES AND SPIN POPULATIONS
-----------------------------------------------------
CHARGE
  0 Lis       :     2.181519  s :     2.181519
      pz      :     0.159772  p :     0.325123
      px      :     0.085371
      py      :     0.079980
      dz2     :     0.013928  d :     0.029773
      dxz     :     0.008125
      dyz     :     0.007717
      dx2y2   :     0.000000
      dxy     :     0.000004

  1 S s       :     5.939181  s :     5.939181
      pz      :     3.701514  p :    10.517808
      px      :     3.436551
      py      :     3.379743
      dz2     :     0.003174  d :     0.006170
      dxz     :     0.001153
      dyz     :     0.001105
      dx2y2   :     0.000003
      dxy     :     0.000735
      f0      :     0.000098  f :     0.000426
      f+1     :     0.000024
      f-1     :     0.000020
      f+2     :     0.000000
      f-2     :     0.000072
      f+3     :     0.000105
      f-3     :     0.000106


SPIN
  0 Lis       :    -0.010924  s :    -0.010924
      pz      :    -0.005723  p :     0.021282
      px      :     0.011859
      py      :     0.015146
      dz2     :     0.000303  d :     0.004794
      dxz     :     0.002092
      dyz     :     0.002395
      dx2y2   :     0.000000
      dxy     :     0.000004

  1 S s       :     0.005664  s :     0.005664
      pz      :     0.009983  p :     0.977599
      px      :     0.454297
      py      :     0.513319
      dz2     :     0.000035  d :     0.001463
      dxz     :     0.000352
      dyz     :     0.000399
      dx2y2   :     0.000003
      dxy     :     0.000673
      f0      :    -0.000085  f :     0.000123
      f+1     :    -0.000033
      f-1     :    -0.000031
      f+2     :     0.000000
      f-2     :     0.000068
      f+3     :     0.000102
      f-3     :     0.000102



                     *******************************
                     * LOEWDIN POPULATION ANALYSIS *
                     *******************************

-------------------------------------------
LOEWDIN ATOMIC CHARGES AND SPIN POPULATIONS
-------------------------------------------
   0 Li:    0.144337    0.038745
   1 S :   -0.144337    0.961255

----------------------------------------------------
LOEWDIN REDUCED ORBITAL CHARGES AND SPIN POPULATIONS
----------------------------------------------------
CHARGE
  0 Lis       :     2.259991  s :     2.259991
      pz      :     0.285557  p :     0.490888
      px      :     0.105810
      py      :     0.099520
      dz2     :     0.063566  d :     0.104785
      dxz     :     0.021067
      dyz     :     0.020147
      dx2y2   :     0.000000
      dxy     :     0.000004

  1 S s       :     5.695157  s :     5.695157
      pz      :     3.691214  p :    10.443032
      px      :     3.403618
      py      :     3.348199
      dz2     :     0.003427  d :     0.005545
      dxz     :     0.000706
      dyz     :     0.000675
      dx2y2   :     0.000003
      dxy     :     0.000734
      f0      :     0.000273  f :     0.000603
      f+1     :     0.000023
      f-1     :     0.000023
      f+2     :     0.000000
      f-2     :     0.000072
      f+3     :     0.000105
      f-3     :     0.000106


SPIN
  0 Lis       :    -0.010179  s :    -0.010179
      pz      :    -0.004961  p :     0.034710
      px      :     0.017787
      py      :     0.021884
      dz2     :     0.001021  d :     0.014215
      dxz     :     0.006177
      dyz     :     0.007012
      dx2y2   :     0.000000
      dxy     :     0.000004

  1 S s       :     0.006207  s :     0.006207
      pz      :     0.006666  p :     0.953163
      px      :     0.444400
      py      :     0.502097
      dz2     :     0.000536  d :     0.001647
      dxz     :     0.000204
      dyz     :     0.000232
      dx2y2   :     0.000003
      dxy     :     0.000673
      f0      :    -0.000037  f :     0.000238
      f+1     :     0.000000
      f-1     :     0.000003
      f+2     :     0.000000
      f-2     :     0.000068
      f+3     :     0.000102
      f-3     :     0.000102



                      *****************************
                      * MAYER POPULATION ANALYSIS *
                      *****************************

  NA   - Mulliken gross atomic population
  ZA   - Total nuclear charge
  QA   - Mulliken gross atomic charge
  VA   - Mayer's total valence
  BVA  - Mayer's bonded valence
  FA   - Mayer's free valence

  ATOM       NA         ZA         QA         VA         BVA        FA
  0 Li     2.5364     3.0000     0.4636     0.9376     0.9352     0.0024
  1 S     16.4636    16.0000    -0.4636     1.8533     0.9352     0.9181

  Mayer bond orders larger than 0.100000
B(  0-Li,  1-S ) :   0.9352 

-------
TIMINGS
-------

Total SCF time: 0 days 0 hours 0 min 2 sec 

Total time                  ....       2.071 sec
Sum of individual times     ....       1.662 sec  ( 80.2%)

SCF preparation             ....       0.066 sec  (  3.2%)
Fock matrix formation       ....       0.947 sec  ( 45.7%)
  Startup                   ....       0.021 sec  (  2.3% of F)
  Coulomb formation         ....       0.175 sec  ( 18.5% of F)
  XC integration            ....       0.379 sec  ( 40.1% of F)
    Basis function eval.    ....       0.015 sec  (  3.9% of XC)
    Density eval.           ....       0.008 sec  (  2.2% of XC)
    XC-Functional eval.     ....       0.026 sec  (  6.8% of XC)
    XC-Potential eval.      ....       0.019 sec  (  5.0% of XC)
Diagonalization             ....       0.000 sec  (  0.0%)
Density matrix formation    ....       0.151 sec  (  7.3%)
Total Energy calculation    ....       0.034 sec  (  1.6%)
Population analysis         ....       0.025 sec  (  1.2%)
Orbital Transformation      ....       0.029 sec  (  1.4%)
Orbital Orthonormalization  ....       0.000 sec  (  0.0%)
DIIS solution               ....       0.167 sec  (  8.1%)
SOSCF solution              ....       0.243 sec  ( 11.7%)
Finished LeanSCF after   2.1 sec

Maximum memory used throughout the entire LEANSCF-calculation: 14.9 MB


           ************************************************************
           *        Program running with 8 parallel MPI-processes     *
           *              working on a common directory               *
           ************************************************************

------------------------------------------------------------------------------
                         ORCA PROPERTY INTEGRAL CALCULATIONS
------------------------------------------------------------------------------

GBWName                                   ... /cluster/projects/nn14654k/ylvaos/basis_set_n_funcs/functionals/N12/LiS/inp/LiS_N12_pcseg2.gbw
Number of atoms                           ...      2
Number of basis functions                 ...     49
Max core memory                           ...   4096 MB

Dipole integrals                          ... YES
Quadrupole integrals                      ... YES
Linear momentum integrals                 ...  NO
Angular momentum integrals                ...  NO
Higher moments length integrals           ...  NO
Higher moments velocity integrals         ...  NO
Kinetic energy integrals                  ...  NO
GIAO right hand sides                     ...  NO
GIAO dipole derivative integrals          ...  NO
SOC integrals                             ...  NO
EPR diamagnetic integrals (GIAO)          ...  NO
EPR gauge integrals                       ...  NO
Field gradient integrals                  ...  NO (   0 nuclei)
Spin-dipole/Fermi contact integrals       ...  NO (   0 nuclei)
Contact density integrals                 ...  NO (   0 nuclei)
Nucleus-orbit integrals                   ...  NO (   0 nuclei)
Geometric perturbations                   ...  NO (   2 nuclei)

Choice of electric origin   ... Center of mass
Position of electric origin ... (  0.0000,  0.0000,  1.3082) 
Choice of magnetic origin   ... GIAO
Position of magnetic origin ... (  0.0000,  0.0000,  0.0000) 

Calculating integrals                     ... Electric Dipole (Length)     done (  0.0 sec)
Calculating integrals                     ... Electric Quadrupole (Length) done (  0.0 sec)

Property integrals calculated in   0.0 sec

Maximum memory used throughout the entire PROPINT-calculation: 5.9 MB
------------------------------------------------------------------------------
                           ORCA ORBITAL LOCALIZATION
------------------------------------------------------------------------------

Input orbitals are from                  ... /cluster/projects/nn14654k/ylvaos/basis_set_n_funcs/functionals/N12/LiS/inp/LiS_N12_pcseg2.gbw
Output orbitals are to                   ... /cluster/projects/nn14654k/ylvaos/basis_set_n_funcs/functionals/N12/LiS/inp/LiS_N12_pcseg2.loc
Max. number of iterations                ... 128
Localizations seeded randomly            ... on
Convergence tolerance                    ... 1.000e-06
Threshold for strong local MOs           ... 9.500e-01
Threshold for bond MOs                   ... 8.500e-01
Operator                                 ... 0
Orbital range for localization           ... 5 to 9
Localization criterion                   ... NEW-BOYS
Doing the dipole integrals               ... o.k.
Initial value of the localization sum :    12.321057
ITERATION   0 : L=   15.5600085146 DL=  3.24e+00 (AVERGE_DL)=    0.5691178840 
ITERATION   1 : L=   15.7126443759 DL=  1.53e-01 (AVERGE_DL)=    0.1235458867 
ITERATION   2 : L=   15.7319878540 DL=  1.93e-02 (AVERGE_DL)=    0.0439812211 
ITERATION   3 : L=   15.7517664076 DL=  1.98e-02 (AVERGE_DL)=    0.0444730858 
ITERATION   4 : L=   15.7665800043 DL=  1.48e-02 (AVERGE_DL)=    0.0384884355 
ITERATION   5 : L=   15.7790579392 DL=  1.25e-02 (AVERGE_DL)=    0.0353241205 
ITERATION   6 : L=   15.7884910768 DL=  9.43e-03 (AVERGE_DL)=    0.0307134134 
ITERATION   7 : L=   15.7955271299 DL=  7.04e-03 (AVERGE_DL)=    0.0265255596 
ITERATION   8 : L=   15.8007764387 DL=  5.25e-03 (AVERGE_DL)=    0.0229113700 
ITERATION   9 : L=   15.8048268191 DL=  4.05e-03 (AVERGE_DL)=    0.0201255570 
ITERATION  10 : L=   15.8081044133 DL=  3.28e-03 (AVERGE_DL)=    0.0181041269 
ITERATION  11 : L=   15.8108811801 DL=  2.78e-03 (AVERGE_DL)=    0.0166636335 
ITERATION  12 : L=   15.8133097954 DL=  2.43e-03 (AVERGE_DL)=    0.0155840154 
ITERATION  13 : L=   15.8154661958 DL=  2.16e-03 (AVERGE_DL)=    0.0146846870 
ITERATION  14 : L=   15.8173843220 DL=  1.92e-03 (AVERGE_DL)=    0.0138496432 
ITERATION  15 : L=   15.8190796983 DL=  1.70e-03 (AVERGE_DL)=    0.0130206620 
ITERATION  16 : L=   15.8205630181 DL=  1.48e-03 (AVERGE_DL)=    0.0121791615 
ITERATION  17 : L=   15.8218464610 DL=  1.28e-03 (AVERGE_DL)=    0.0113289137 
ITERATION  18 : L=   15.8229455239 DL=  1.10e-03 (AVERGE_DL)=    0.0104836204 
ITERATION  19 : L=   15.8238785430 DL=  9.33e-04 (AVERGE_DL)=    0.0096592912 
ITERATION  20 : L=   15.8246653513 DL=  7.87e-04 (AVERGE_DL)=    0.0088702216 
ITERATION  21 : L=   15.8253258771 DL=  6.61e-04 (AVERGE_DL)=    0.0081272735 
ITERATION  22 : L=   15.8258790432 DL=  5.53e-04 (AVERGE_DL)=    0.0074375142 
ITERATION  23 : L=   15.8263420625 DL=  4.63e-04 (AVERGE_DL)=    0.0068045522 
ITERATION  24 : L=   15.8267300876 DL=  3.88e-04 (AVERGE_DL)=    0.0062291656 
ITERATION  25 : L=   15.8270561280 DL=  3.26e-04 (AVERGE_DL)=    0.0057099949 
ITERATION  26 : L=   15.8273311429 DL=  2.75e-04 (AVERGE_DL)=    0.0052441863 
ITERATION  27 : L=   15.8275642324 DL=  2.33e-04 (AVERGE_DL)=    0.0048279347 
ITERATION  28 : L=   15.8277628735 DL=  1.99e-04 (AVERGE_DL)=    0.0044569165 
ITERATION  29 : L=   15.8279331627 DL=  1.70e-04 (AVERGE_DL)=    0.0041266119 
ITERATION  30 : L=   15.8280800475 DL=  1.47e-04 (AVERGE_DL)=    0.0038325545 
ITERATION  31 : L=   15.8282075305 DL=  1.27e-04 (AVERGE_DL)=    0.0035704759 
ITERATION  32 : L=   15.8283188475 DL=  1.11e-04 (AVERGE_DL)=    0.0033364209 
ITERATION  33 : L=   15.8284166159 DL=  9.78e-05 (AVERGE_DL)=    0.0031267932 
ITERATION  34 : L=   15.8285029570 DL=  8.63e-05 (AVERGE_DL)=    0.0029383866 
ITERATION  35 : L=   15.8285795959 DL=  7.66e-05 (AVERGE_DL)=    0.0027683737 
ITERATION  36 : L=   15.8286479412 DL=  6.83e-05 (AVERGE_DL)=    0.0026142927 
ITERATION  37 : L=   15.8287091494 DL=  6.12e-05 (AVERGE_DL)=    0.0024740294 
ITERATION  38 : L=   15.8287641747 DL=  5.50e-05 (AVERGE_DL)=    0.0023457470 
ITERATION  39 : L=   15.8288138102 DL=  4.96e-05 (AVERGE_DL)=    0.0022279033 
ITERATION  40 : L=   15.8288587191 DL=  4.49e-05 (AVERGE_DL)=    0.0021191717 
ITERATION  41 : L=   15.8288994597 DL=  4.07e-05 (AVERGE_DL)=    0.0020184303 
ITERATION  42 : L=   15.8289365056 DL=  3.70e-05 (AVERGE_DL)=    0.0019247289 
ITERATION  43 : L=   15.8289702609 DL=  3.38e-05 (AVERGE_DL)=    0.0018372619 
ITERATION  44 : L=   15.8290010734 DL=  3.08e-05 (AVERGE_DL)=    0.0017553512 
ITERATION  45 : L=   15.8290292437 DL=  2.82e-05 (AVERGE_DL)=    0.0016784006 
ITERATION  46 : L=   15.8290550336 DL=  2.58e-05 (AVERGE_DL)=    0.0016059216 
ITERATION  47 : L=   15.8290786720 DL=  2.36e-05 (AVERGE_DL)=    0.0015374791 
ITERATION  48 : L=   15.8291003619 DL=  2.17e-05 (AVERGE_DL)=    0.0014727507 
ITERATION  49 : L=   15.8291202808 DL=  1.99e-05 (AVERGE_DL)=    0.0014113403 
ITERATION  50 : L=   15.8291385881 DL=  1.83e-05 (AVERGE_DL)=    0.0013530450 
ITERATION  51 : L=   15.8291554261 DL=  1.68e-05 (AVERGE_DL)=    0.0012976131 
ITERATION  52 : L=   15.8291709214 DL=  1.55e-05 (AVERGE_DL)=    0.0012448025 
ITERATION  53 : L=   15.8291851889 DL=  1.43e-05 (AVERGE_DL)=    0.0011944651 
ITERATION  54 : L=   15.8291983314 DL=  1.31e-05 (AVERGE_DL)=    0.0011464076 
ITERATION  55 : L=   15.8292104427 DL=  1.21e-05 (AVERGE_DL)=    0.0011005146 
ITERATION  56 : L=   15.8292216072 DL=  1.12e-05 (AVERGE_DL)=    0.0010566232 
ITERATION  57 : L=   15.8292319024 DL=  1.03e-05 (AVERGE_DL)=    0.0010146513 
ITERATION  58 : L=   15.8292413981 DL=  9.50e-06 (AVERGE_DL)=    0.0009744590 
ITERATION  59 : L=   15.8292501586 DL=  8.76e-06 (AVERGE_DL)=    0.0009359746 
ITERATION  60 : L=   15.8292582422 DL=  8.08e-06 (AVERGE_DL)=    0.0008990898 
ITERATION  61 : L=   15.8292657027 DL=  7.46e-06 (AVERGE_DL)=    0.0008637409 
ITERATION  62 : L=   15.8292725890 DL=  6.89e-06 (AVERGE_DL)=    0.0008298376 
ITERATION  63 : L=   15.8292789462 DL=  6.36e-06 (AVERGE_DL)=    0.0007973239 
ITERATION  64 : L=   15.8292848157 DL=  5.87e-06 (AVERGE_DL)=    0.0007661224 
ITERATION  65 : L=   15.8292902353 DL=  5.42e-06 (AVERGE_DL)=    0.0007361844 
ITERATION  66 : L=   15.8292952399 DL=  5.00e-06 (AVERGE_DL)=    0.0007074254 
ITERATION  67 : L=   15.8292998619 DL=  4.62e-06 (AVERGE_DL)=    0.0006798548 
ITERATION  68 : L=   15.8293041308 DL=  4.27e-06 (AVERGE_DL)=    0.0006533702 
ITERATION  69 : L=   15.8293080734 DL=  3.94e-06 (AVERGE_DL)=    0.0006279011 
ITERATION  70 : L=   15.8293117154 DL=  3.64e-06 (AVERGE_DL)=    0.0006034863 
ITERATION  71 : L=   15.8293150797 DL=  3.36e-06 (AVERGE_DL)=    0.0005800318 
ITERATION  72 : L=   15.8293181872 DL=  3.11e-06 (AVERGE_DL)=    0.0005574513 
ITERATION  73 : L=   15.8293210581 DL=  2.87e-06 (AVERGE_DL)=    0.0005358077 
ITERATION  74 : L=   15.8293237104 DL=  2.65e-06 (AVERGE_DL)=    0.0005150025 
ITERATION  75 : L=   15.8293261605 DL=  2.45e-06 (AVERGE_DL)=    0.0004949844 
ITERATION  76 : L=   15.8293284243 DL=  2.26e-06 (AVERGE_DL)=    0.0004757873 
ITERATION  77 : L=   15.8293305157 DL=  2.09e-06 (AVERGE_DL)=    0.0004573283 
ITERATION  78 : L=   15.8293324479 DL=  1.93e-06 (AVERGE_DL)=    0.0004395671 
ITERATION  79 : L=   15.8293342331 DL=  1.79e-06 (AVERGE_DL)=    0.0004225124 
ITERATION  80 : L=   15.8293358827 DL=  1.65e-06 (AVERGE_DL)=    0.0004061496 
ITERATION  81 : L=   15.8293374069 DL=  1.52e-06 (AVERGE_DL)=    0.0003904093 
ITERATION  82 : L=   15.8293388150 DL=  1.41e-06 (AVERGE_DL)=    0.0003752501 
ITERATION  83 : L=   15.8293401160 DL=  1.30e-06 (AVERGE_DL)=    0.0003607004 
ITERATION  84 : L=   15.8293413183 DL=  1.20e-06 (AVERGE_DL)=    0.0003467411 
ITERATION  85 : L=   15.8293424293 DL=  1.11e-06 (AVERGE_DL)=    0.0003333089 
ITERATION  86 : L=   15.8293434557 DL=  1.03e-06 (AVERGE_DL)=    0.0003203722 
ITERATION  87 : L=   15.8293444037 DL=  9.48e-07 (AVERGE_DL)=    0.0003079002 
LOCALIZATION SUM CONVERGED


--------------------------------------------------------------------------------
                    LOCALIZED MOLECULAR ORBITAL COMPOSITIONS
--------------------------------------------------------------------------------

The Mulliken populations for each LMO on each atom are computed
The LMO`s will be ordered according to atom index and type
  (A) Strongly localized MO`s have populations of >=0.950 on one atom
  (B) Two center bond orbitals have populations of >=0.850 on two atoms
  (C) Other MO`s are considered to be `delocalized`

FOUND  -   3 strongly local MO`s
       -   2 two center bond MO`s
       -   0 significantly delocalized MO`s

Rather strongly localized orbitals:
MO   7:   1S  -   0.975525
MO   6:   1S  -   0.975439
MO   5:   0Li -   1.000374
Bond-like localized orbitals:
MO   9:   1S  -   0.886894  and   0Li -   0.113106
MO   8:   1S  -   0.886881  and   0Li -   0.113119
Localized MO's were stored in: /cluster/projects/nn14654k/ylvaos/basis_set_n_funcs/functionals/N12/LiS/inp/LiS_N12_pcseg2.loc
------------------------------------------------------------------------------
                           ORCA ORBITAL LOCALIZATION
------------------------------------------------------------------------------

Input orbitals are from                  ... /cluster/projects/nn14654k/ylvaos/basis_set_n_funcs/functionals/N12/LiS/inp/LiS_N12_pcseg2.loc
Output orbitals are to                   ... /cluster/projects/nn14654k/ylvaos/basis_set_n_funcs/functionals/N12/LiS/inp/LiS_N12_pcseg2.loc
Max. number of iterations                ... 128
Localizations seeded randomly            ... on
Convergence tolerance                    ... 1.000e-06
Threshold for strong local MOs           ... 9.500e-01
Threshold for bond MOs                   ... 8.500e-01
Operator                                 ... 1
Orbital range for localization           ... 5 to 8
Localization criterion                   ... NEW-BOYS
Doing the dipole integrals               ... o.k.
Initial value of the localization sum :    11.961952
ITERATION   0 : L=   14.8699639565 DL=  2.91e+00 (AVERGE_DL)=    0.6961815346 
ITERATION   1 : L=   14.9246224227 DL=  5.47e-02 (AVERGE_DL)=    0.0954449809 
ITERATION   2 : L=   14.9324819892 DL=  7.86e-03 (AVERGE_DL)=    0.0361929240 
ITERATION   3 : L=   14.9439637553 DL=  1.15e-02 (AVERGE_DL)=    0.0437450305 
ITERATION   4 : L=   14.9681301143 DL=  2.42e-02 (AVERGE_DL)=    0.0634643719 
ITERATION   5 : L=   15.0118053021 DL=  4.37e-02 (AVERGE_DL)=    0.0853182159 
ITERATION   6 : L=   15.0751740483 DL=  6.34e-02 (AVERGE_DL)=    0.1027689529 
ITERATION   7 : L=   15.1429950361 DL=  6.78e-02 (AVERGE_DL)=    0.1063179099 
ITERATION   8 : L=   15.1964519307 DL=  5.35e-02 (AVERGE_DL)=    0.0943900547 
ITERATION   9 : L=   15.2299727311 DL=  3.35e-02 (AVERGE_DL)=    0.0747449000 
ITERATION  10 : L=   15.2483483666 DL=  1.84e-02 (AVERGE_DL)=    0.0553408160 
ITERATION  11 : L=   15.2577675295 DL=  9.42e-03 (AVERGE_DL)=    0.0396214650 
ITERATION  12 : L=   15.2624523775 DL=  4.68e-03 (AVERGE_DL)=    0.0279429417 
ITERATION  13 : L=   15.2647540731 DL=  2.30e-03 (AVERGE_DL)=    0.0195861157 
ITERATION  14 : L=   15.2658800874 DL=  1.13e-03 (AVERGE_DL)=    0.0136992359 
ITERATION  15 : L=   15.2664304390 DL=  5.50e-04 (AVERGE_DL)=    0.0095773306 
ITERATION  16 : L=   15.2666995220 DL=  2.69e-04 (AVERGE_DL)=    0.0066968029 
ITERATION  17 : L=   15.2668311791 DL=  1.32e-04 (AVERGE_DL)=    0.0046843199 
ITERATION  18 : L=   15.2668956436 DL=  6.45e-05 (AVERGE_DL)=    0.0032778156 
ITERATION  19 : L=   15.2669272276 DL=  3.16e-05 (AVERGE_DL)=    0.0022943408 
ITERATION  20 : L=   15.2669427096 DL=  1.55e-05 (AVERGE_DL)=    0.0016063416 
ITERATION  21 : L=   15.2669503014 DL=  7.59e-06 (AVERGE_DL)=    0.0011248593 
ITERATION  22 : L=   15.2669540252 DL=  3.72e-06 (AVERGE_DL)=    0.0007878030 
ITERATION  23 : L=   15.2669558520 DL=  1.83e-06 (AVERGE_DL)=    0.0005517809 
ITERATION  24 : L=   15.2669567484 DL=  8.96e-07 (AVERGE_DL)=    0.0003865298 
LOCALIZATION SUM CONVERGED


--------------------------------------------------------------------------------
                    LOCALIZED MOLECULAR ORBITAL COMPOSITIONS
--------------------------------------------------------------------------------

The Mulliken populations for each LMO on each atom are computed
The LMO`s will be ordered according to atom index and type
  (A) Strongly localized MO`s have populations of >=0.950 on one atom
  (B) Two center bond orbitals have populations of >=0.850 on two atoms
  (C) Other MO`s are considered to be `delocalized`

FOUND  -   2 strongly local MO`s
       -   2 two center bond MO`s
       -   0 significantly delocalized MO`s

Rather strongly localized orbitals:
MO   6:   1S  -   0.976737
MO   5:   0Li -   1.000488
Bond-like localized orbitals:
MO   8:   1S  -   0.881722  and   0Li -   0.118278
MO   7:   1S  -   0.881507  and   0Li -   0.118493
Localized MO's were stored in: /cluster/projects/nn14654k/ylvaos/basis_set_n_funcs/functionals/N12/LiS/inp/LiS_N12_pcseg2.loc

-------------------------   --------------------
FINAL SINGLE POINT ENERGY      -405.742339109144
-------------------------   --------------------



           ************************************************************
           *        Program running with 8 parallel MPI-processes     *
           *              working on a common directory               *
           ************************************************************

------------------------------------------------------------------------------
                              ORCA PROPERTY CALCULATIONS
------------------------------------------------------------------------------

GBWName                                 ... /cluster/projects/nn14654k/ylvaos/basis_set_n_funcs/functionals/N12/LiS/inp/LiS_N12_pcseg2.gbw
Number of atoms                         ...      2
Number of basis functions               ...     49
Max core memory                         ...   4096 MB

Electric properties:
Dipole moment                           ... YES
Quadrupole moment                       ... YES
Static polarizability (Dipole/Dipole)   ...  NO
Static polarizability (Dipole/Quad.)    ...  NO
Static polarizability (Quad./Quad.)     ...  NO
Static polarizability (Velocity)        ...  NO
Static hyperpolarizability              ...  NO

Atomic electric properties:
Dipole moment                           ...  NO
Quadrupole moment                       ...  NO
Static polarizability                   ...  NO

Choice of electric origin               ... Center of mass
Position of electric origin             ...     0.000000     0.000000     1.308198

General magnetic properties:
Magnetizability                         ...  NO

EPR properties:
g-Tensor (aka g-matrix)                 ...  NO
Zero-Field splitting spin-orbit         ...  NO
Zero-field splitting spin-spin          ...  NO
Hyperfine couplings                     ...  NO (   0 nuclei)
Quadrupole couplings                    ...  NO (   0 nuclei)
Contact density                         ...  NO (   0 nuclei)

NMR properties:
Chemical shifts                         ...  NO (   0 nuclei)
Spin-rotation constants                 ...  NO (   0 nuclei)
Spin-spin couplings                     ...  NO (   0 nuclei,    0 pairs)

Choice of magnetic origin               ... GIAO
Position of magnetic origin             ...     0.000000     0.000000     0.000000

Properties with geometric perturbations:
SCF Hessian                             ...  NO
IR spectrum                             ...  NO
VCD spectrum                            ...  NO
X-ray spectroscopy properties:
SCF XES/XAS/RIXS spectra                ...  NO

SCF SOC stabilization energy            ...  NO
Diagonal Born-Oppenheimer correction    ...  NO

-------------
DIPOLE MOMENT
-------------

Method             : SCF
Type of density    : Electron Density
Multiplicity       :   2
Irrep              :   0
Energy             :  -405.7423391091435292 Eh
Basis              : AO
                                X                 Y                 Z
Electronic contribution:     -0.000000000      -0.000000000      -4.222423046
Nuclear contribution   :      0.000000000       0.000000000       1.549484202
                        -----------------------------------------
Total Dipole Moment    :     -0.000000000      -0.000000000      -2.672938844
                        -----------------------------------------
Magnitude (a.u.)       :      2.672938844
Magnitude (Debye)      :      6.794070607



--------------------
Rotational spectrum 
--------------------
 
Rotational constants in cm-1:             0.000000             0.639339             0.639339 
Rotational constants in MHz :             0.000000         19166.891897         19166.891897 

Dipole components along the rotational axes: 
x,y,z [a.u.] :    -2.672939    -0.000000    -0.000000 
x,y,z [Debye]:    -6.794071    -0.000000    -0.000000 

 

Dipole moment calculation done in   0.0 sec 

-----------------
QUADRUPOLE MOMENT
-----------------

Method             : SCF
Type of density    : Electron Density
Multiplicity       :   2
Irrep              :   0
Energy             :  -405.7423391091435292 Eh
Basis              : AO

                XX              YY              ZZ              XY              XZ              YZ
  NUC        0.000000000     0.000000000    41.817245673     0.000000000     0.000000000     0.000000000
  EL       -12.916268318   -12.758834573   -45.191252416     1.253567100     0.000000001     0.000000000
  TOT      -12.916268318   -12.758834573    -3.374006743     1.253567100     0.000000001     0.000000000 (a.u.)
           -17.372822623   -17.161068853    -4.538154460     1.686090622     0.000000001     0.000000000 (Buckingham)

diagonalized tensor:
           -14.093587600   -11.581515291    -3.374006743 (a.u.)
           -18.956357322   -15.577534154    -4.538154460 (Buckingham)
           -17.797026030    -7.660556527    25.457582557 (traceless form in Buckingham)

            -0.728927591     0.684590803     0.000000000
             0.684590803     0.728927591     0.000000000
             0.000000000    -0.000000000     1.000000000
        
Isotropic quadrupole :    -9.683036544

Quadrupole moment calculation done in   0.0 sec (  0.0 sec for integrals)

Maximum memory used throughout the entire PROP-calculation: 2.4 MB

--------------------------------
SUGGESTED CITATIONS FOR THIS RUN
--------------------------------

Below you find a list of papers that are relevant to this ORCA run
We neither can nor want to force you to cite these papers, but we appreciate if you do
You receive ORCA, which is the product of decades of hard work by many enthusiastic individuals, for free
The only thing we kindly ask in return is that you cite our papers,
We deeply appreciate it, if you show your appreciation for ORCA by not just citing the generic ORCA reference.

Please note that relegating all ORCA citations to the supporting information does *not* help us.
SI sections are not indexed - citations you put there will not count into any citation statistics
But we need these citations in order to attract the funding resources that allow us to do what we are doing

Therefore, if you are a happy ORCA user, please consider citing a few of the papers listed below in the main body of your paper

In addition to the list printed below, the program has created the file /cluster/projects/nn14654k/ylvaos/basis_set_n_funcs/functionals/N12/LiS/inp/LiS_N12_pcseg2.bibtex that contains the list in bibtex format
You can import this file easily into all common literature databanks and citation aid programs

It goes without saying that in many instances, there are alternative algorithms to achieve similar
results as the ones you have gotten from ORCA. It is, of course, also the case that in some instances
ORCA just re-implements algorithms worked out by others. We are fully aware of that and we are also
fully appreciative of our colleagues work. Hence this citation list should not be read as indicating
that the listed papers, which are focused on our own work, are the only ones worth citing. It simply
meant to make it easier for users to cite ORCA specific papers. It is not a substitute for doing your
own literature research and citing the relevant literature in a scientifically appropriate manner.

List of essential papers. We consider these as the minimum necessary citations

  1. Neese, F.
     Software update: the ORCA program system, version 6.0
     WIRES Comput. Molec. Sci. 2025 15(1), e70019
     doi.org/10.1002/wcms.70019

List of papers to cite with high priority. The work reported in these papers was absolutely
necessary for this run to complete.
Our perspective: the developers of density functionals and basis sets usually get cited in chemistry papers
Good! But without the algorithms to do something with them, the functionals or basis sets would not do anything.
Hence, in our opinion, the algorithm design and method developments papers are equally worthy of getting cited

  1. Lehtola, S.; Steigemann, C.; Oliveira, M.; Marques, M.
     Recent developments in Libxc - A comprehensive library of functionals for density functional theory
     Software X 2018 7 , 
     doi.org/10.1016/j.softx.2017.11.002
  2. Neese, F.
     The SHARK Integral Generation and Digestion System
     J. Comp. Chem. 2022 44(3), 381
     doi.org/10.1002/jcc.26942

List of suggested additional citations. These are papers that are important in the 'surrounding' of 
of this run, or papers that preceded the highly important papers. If you like your results we are grateful for a citation.

  1. Neese, F.
     The ORCA program system
     WIRES Comput. Molec. Sci. 2012 2(1), 73-78
     doi.org/10.1002/wcms.81
  2. Neese, F.
     Software update: the ORCA program system, version 4.0
     WIRES Comput. Molec. Sci. 2018 8(1), 1-6
     doi.org/10.1002/wcms.1327
  3. Neese, F.; Wennmohs, F.; Becker, U.; Riplinger, C.
     The ORCA quantum chemistry program package
     J. Chem. Phys. 2020 152(22), 224108
     doi.org/10.1063/5.0004608
  4. Neese, F.
     Software update: The ORCA program system—Version 5.0
     WIRES Comput. Molec. Sci. 2022 12(1), e1606
     doi.org/10.1002/wcms.1606

List of optional additional citations

  1. Neese, F.
     Approximate second-order SCF convergence for spin unrestricted wavefunctions
     Chem. Phys. Lett. 2000 325(1-3), 93-98
     doi.org/10.1016/s0009-2614(00)00662-x

Timings for individual modules:

Sum of individual times          ...        3.819 sec (=   0.064 min)
Startup calculation              ...        0.430 sec (=   0.007 min)  11.3 %
SCF iterations                   ...        2.724 sec (=   0.045 min)  71.3 %
Property integrals               ...        0.376 sec (=   0.006 min)   9.8 %
Property calculations            ...        0.281 sec (=   0.005 min)   7.4 %
Orbital localization             ...        0.009 sec (=   0.000 min)   0.2 %
                             ****ORCA TERMINATED NORMALLY****
TOTAL RUN TIME: 0 days 0 hours 0 minutes 4 seconds 875 msec
