
                                 *****************
                                 * O   R   C   A *
                                 *****************

                                            #,                                       
                                            ###                                      
                                            ####                                     
                                            #####                                    
                                            ######                                   
                                           ########,                                 
                                     ,,################,,,,,                         
                               ,,#################################,,                 
                          ,,##########################################,,             
                       ,#########################################, ''#####,          
                    ,#############################################,,   '####,        
                  ,##################################################,,,,####,       
                ,###########''''           ''''###############################       
              ,#####''   ,,,,##########,,,,          '''####'''          '####       
            ,##' ,,,,###########################,,,                        '##       
           ' ,,###''''                  '''############,,,                           
         ,,##''                                '''############,,,,        ,,,,,,###''
      ,#''                                            '''#######################'''  
     '                                                          ''''####''''         
             ,#######,   #######,   ,#######,      ##                                
            ,#'     '#,  ##    ##  ,#'     '#,    #''#        ,####,    ,#,          
            ##       ##  ##   ,#'  ##            #'  '#       #'       ,# #          
            ##       ##  #######   ##           ,######,      #####,      #          
            '#,     ,#'  ##    ##  '#,     ,#' ,#      #,     #,   #      #          
             '#######'   ##     ##  '#######'  #'      '#     '####' #    #          



                #########################################################
                #                        -***-                          #
                #          Department of theory and spectroscopy        #
                #                                                       #
                #                      Frank Neese                      #
                #                                                       #
                #     Directorship, Architecture, Infrastructure        #
                #                    SHARK, DRIVERS                     #
                #        Core code/Algorithms in most modules           #
                #                                                       #
                #        Max Planck Institute fuer Kohlenforschung      #
                #                Kaiser Wilhelm Platz 1                 #
                #                 D-45470 Muelheim/Ruhr                 #
                #                      Germany                          #
                #                                                       #
                #                  All rights reserved                  #
                #                        -***-                          #
                #########################################################


                         Program Version 6.1.1  -  RELEASE   -
                                (GIT: $487d211c$)
                          ($2025-11-21 10:33:24 +0100$)


 With contributions from (in alphabetic order):
[Max-Planck-Institut fuer Kohlenforschung]                               
  Daniel Aravena         : Magnetic Suceptibility                        
  Michael Atanasov       : Ab Initio Ligand Field Theory (pilot matlab implementation)
  Alexander A. Auer      : GIAO ZORA, VPT2 properties, NMR spectrum      
  Ute Becker             : All parallelization in ORCA, NUMFREQ, NUMCALC 
  Giovanni Bistoni       : ED, misc. LED, open-shell LED, HFLD           
  Dmytro Bykov           : pre 5.0 version of the SCF Hessian            
  Marcos Casanova-Páez   : Triplet and SCS-CIS(D). UHF-(DLPNO)-IP/EA/STEOM-CCSD. UHF-CVS-IP/STEOM-CCSD   
  Vijay G. Chilkuri      : MRCI spin determinant printing, contributions to CSF-ICE 
  Pauline Colinet        : FMM embedding                                 
  Dipayan Datta          : RHF DLPNO-CCSD density                        
  Achintya Kumar Dutta   : EOM-CC, STEOM-CC                              
  Nicolas Foglia         : Exact transition moments, OPA infrastructure, MCD improvements    
  Dmitry Ganyushin       : Spin-Orbit,Spin-Spin,Magnetic field MRCI      
  Miquel Garcia-Rates    : C-PCM and meta-GGA Hessian, CCSD/C-PCM, Gaussian charge scheme 
  Tiago L. C. Gouveia    : GS-ROHF, GS-ROCIS                             
  Yang Guo               : DLPNO-NEVPT2, F12-NEVPT2, CIM, IAO-localization        
  Andreas Hansen         : Spin unrestricted coupled pair/coupled cluster methods 
  Ingolf Harden          : AUTO-CI MPn and infrastructure                
  Benjamin Helmich-Paris : MC-RPA, TRAH-(SCF,CASSCF), AVAS, COSX integrals, SCF dyn. polar., MC-PDFT, srDFT 
  Lee Huntington         : MR-EOM, pCC                                   
  Robert Izsak           : Overlap fitted RIJCOSX, COSX-SCS-MP3, EOM     
  Riya Kayal             : Wick's Theorem for AUTO-CI, AUTO-CI UHF-CCSDT 
  Emily Kempfer          : AUTO-CI RHF CISDT and CCSDT, approximate NEVPT4
  Christian Kollmar      : KDIIS, OOCD, Brueckner-CCSD(T), CCSD density, CASPT2, CASPT2-K, improved NEVPT2 
  Axel Koslowski         : Symmetry handling                             
  Simone Kossmann        : meta-GGA functionals, TD-DFT gradient, OOMP2, (MP2 Hessian; deprecated post 5.0) 
  Lucas Lang             : DCDCAS, Hyperfine gauge corrections, ICE-SOC+SSC
  Marvin Lechner         : AUTO-CI (C++ implementation), FIC-MRCC        
  Spencer Leger          : CASSCF response                               
  Dagmar Lenk            : GEPOL surface, SMD, ORCA-2-JSON               
  Dimitrios Liakos       : Extrapolation schemes; Compound Job, Property file
  Dimitrios Manganas     : Further ROCIS development; embedding schemes. LFT, Crystal Embedding 
  Dimitrios Pantazis     : SARC Basis sets                               
  Anastasios Papadopoulos: AUTO-CI, single reference methods and gradients 
  Taras Petrenko         : pre 6.0 DFT Hessian and TD-DFT gradient,  ECA, NRVS 
  Petra Pikulova         : Analytic Raman intensities                    
  Peter Pinski           : DLPNO-MP2, DLPNO-MP2 Gradient                 
  Shashank Vittal Rao    : ES-AILFT, MagRelax                            
  Christoph Reimann      : Effective Core Potentials                     
  Marius Retegan         : Local ZFS, SOC                                
  Christoph Riplinger    : Optimizer, TS searches, QM/MM, DLPNO-CCSD(T), (RO)-DLPNO pert. Triples 
  Michael Roemelt        : Original ROCIS implementation, recursive CI coupling coefficients
  Masaaki Saitow         : Open-shell DLPNO-CCSD energy and density      
  Barbara Sandhoefer     : DKH picture change effects                    
  Yorick L. A. Schmerwitz: GMF and freeze-and-release deltaSCF, NEB S-IDPP initial path                    
  Kantharuban Sivalingam : CASSCF convergence/infrastructure, NEVPT2, NEVPT3, NEVPT4(SD), FIC-MRCI and CEPA variants
  Bernardo de Souza      : ESD, SOC TD-DFT                               
  Georgi L. Stoychev     : AutoAux, RI-MP2 NMR, DLPNO-MP2 response, X2C  
  Van Anh Tran           : RI-MP2 g-tensors                              
  Willem Van den Heuvel  : Paramagnetic NMR                              
  Zikuan Wang            : NOTCH, Electric field optimization            
  Frank Wennmohs         : Technical directorship and infrastructure     
  Hang Xu                : AUTO-CI-Response properties                   
                                                                         
[FACCTs GmbH]                                                            
  Markus Bursch, Nicolas Foglia, Miquel Garcia-Rates, Ingolf Harden, Hagen Neugebauer, Anastasios Papadopoulos, 
  Christoph Riplinger, Bernardo de Souza, Georgi L. Stoychev                                                    
                                                                 
  APM, various basis sets, CI-OPT, improved COSX, DLPNO-Multilevel,           
  DOCKER, DRACO, updates on ESD, Fragmentator, GOAT, IRC, LR-CPCM, L-BFGS, MBIS, meta-GGA TD-DFT gradient, ML-optimized integration grids, 
  MM, NACMEs, nearIR, NEB, NEB-TS, NL-DFT gradient (VV10), 2- and 3-layer-ONIOM, interface openCOSMO-RS, QMMM,   
  Crystal-QMMM, RESP, rigid body optimization, SF, symmetry and pop. for TD-DFT, various functionals, SOLVATOR                                   
                                                                         
[Other institutions]                                                     
  V. Asgeirsson          : NEB                                           
  Christoph Bannwarth    : sTDA-DFT, sTD-DFT, PBEh-3c, B97-3c, D3        
  Giovanni Bistoni       : ETS/NOCV, ADLD/ADEX, COVALED                  
  Martin Brehm           : Molecular dynamics                            
  Ronald Cardenas        : ETS/NOCV                                      
  Martina Colucci        : COVALED                                       
  Sebastian Ehlert       : rSCAN, r2SCAN, r2SCAN-3c, D4, dhf basis sets  
  Marvin Friede          : D4 for Fr, Ra, Ac-Lr                          
  Lars Goerigk           : TD-DFT with DH, B97 family of functionals     
  Stefan Grimme          : VdW corrections, initial TS optimization, DFT functionals, gCP, sTDA/sTD-DF 
  Waldemar Hujo          : DFT-NL                                        
  H. Jonsson             : NEB                                           
  Holger Kruse           : gCP                                           
  Marcel Mueller         : wB97X-3c, vDZP basis set                      
  Hagen Neugebauer       : wr2SCAN, Native XTB                           
  Gianluca Regni         : ADLD/ADEX                                     
  Tobias Risthaus        : pre 6.0 range-separated hybrid DFT and stability analysis
  Lukas Wittmann         : regularized MP2, r2SCAN double-hybrids, wr2SCAN        
                                                                         
We gratefully acknowledge several colleagues who have allowed us to      
interface, adapt or use parts of their codes:                            
  Ed Valeev, F. Pavosevic, A. Kumar             : LibInt (2-el integral package), F12 methods 
  Garnet Chan, S. Sharma, J. Yang, R. Olivares  : DMRG                   
  Ulf Ekstrom                                   : XCFun DFT Library      
  Mihaly Kallay                                 : mrcc  (arbitrary order and MRCC methods)
  Frank Weinhold                                : gennbo (NPA and NBO analysis)           
  Simon Mueller                                 : openCOSMO-RS                            
  Christopher J. Cramer and Donald G. Truhlar   : smd solvation model                     
  S Lehtola, MJT Oliveira, MAL Marques          : LibXC Library                           
  Liviu Ungur et al                             : ANISO software                          


 Your calculation uses the libint2 library for the computation of 2-el integrals
 For citations please refer to: http://libint.valeyev.net

 Your ORCA version has been built with support for libXC version: 7.0.0
 For citations please refer to: https://libxc.gitlab.io

 This ORCA versions uses:
   CBLAS   interface :  Fast vector & matrix operations
   LAPACKE interface :  Fast linear algebra routines
   SCALAPACK package :  Parallel linear algebra routines
   Shared memory     :  Shared parallel matrices
   BLAS/LAPACK       :  OpenBLAS 0.3.29  USE64BITINT DYNAMIC_ARCH NO_AFFINITY Cooperlake SINGLE_THREADED
        Core in use  :  Cooperlake
   Copyright (c) 2011-2014, The OpenBLAS Project


  ***********************************
  * Starting time: Wed May 20 12:36:45 2026
  * Host name:     c1-5
  * Process ID:    921005
  * Working dir.:  /cluster/projects/nn14654k/ylvaos/basis_set_n_funcs/functionals/N12/LiS/out
  ***********************************

Using LibXC functional ID  82 : Minnesota N12 exchange functional
[ 1]  R. Peverati and D. G. Truhlar.,  J. Chem. Theory Comput. 8, 2310 (2012)
Using LibXC functional ID  80 : Minnesota N12 correlation functional
[ 1]  R. Peverati and D. G. Truhlar.,  J. Chem. Theory Comput. 8, 2310 (2012)
Using LibXC functional ID  82 : Minnesota N12 exchange functional
[ 1]  R. Peverati and D. G. Truhlar.,  J. Chem. Theory Comput. 8, 2310 (2012)
Using LibXC functional ID  80 : Minnesota N12 correlation functional
[ 1]  R. Peverati and D. G. Truhlar.,  J. Chem. Theory Comput. 8, 2310 (2012)
Your calculation utilizes LibXC
by S. Lehtola, C. Steigemann, M. J. T. Oliveira & M. A. L. Marques
Please cite in your paper:
Lehtola, S.; Steigemann, C.; Oliveira, M.J.T.; Marques, M. A. L. Software X, 7, (2018), 1.
   

================================================================================

----- Orbital basis set information -----
Your calculation utilizes the basis: cc-pVDZ 
       H, B-Ne : Obtained from the ccRepo (grant-hill.group.shef.ac.uk/ccrepo) Feb. 2017
                 T. H. Dunning, Jr., J. Chem. Phys. 90, 1007 (1989)
            He : Obtained from the ccRepo (grant-hill.group.shef.ac.uk/ccrepo) Feb. 2017
                 D. E. Woon, T. H. Dunning, Jr., J. Chem. Phys. 100, 2975 (1994)
  Li-Be, Na-Mg : Obtained from the ccRepo (grant-hill.group.shef.ac.uk/ccrepo) Feb. 2017
                 B. P. Prascher, D. E. Woon, K. A. Peterson, T. H. Dunning, Jr., A. K. Wilson, Theor. Chem. Acc. 128, 69 (2011)
         Al-Ar : Obtained from the ccRepo (grant-hill.group.shef.ac.uk/ccrepo) Feb. 2017
                 D. E. Woon, T. H. Dunning, Jr., J. Chem. Phys. 98, 1358 (1993)
            Ca : Obtained from the Peterson Research Group Website (tyr0.chem.wsu.edu/~kipeters) Feb. 2017
                 J. Koput, K. A. Peterson, J. Phys. Chem. 106, 9595 (2002)
         Sc-Zn : Obtained from the ccRepo (grant-hill.group.shef.ac.uk/ccrepo) Feb. 2017
                 N. B. Balabanov, K. A. Peterson, J. Chem. Phys. 123, 064107 (2005)
                 N. B. Balabanov, K. A. Peterson, J. Chem. Phys. 125, 074110 (2006)
         Ga-Kr : Obtained from the ccRepo (grant-hill.group.shef.ac.uk/ccrepo) Feb. 2017
                 A. K. Wilson, D. E. Woon, K. A. Peterson, T. H. Dunning, Jr., J. Chem. Phys. 110, 7667 (1999)

================================================================================
                                        WARNINGS
                       Please study these warnings very carefully!
================================================================================


WARNING: your system is open-shell and RHF/RKS was chosen
  ===> : WILL SWITCH to UHF/UKS


================================================================================
                                       INPUT FILE
================================================================================
NAME = /cluster/projects/nn14654k/ylvaos/basis_set_n_funcs/functionals/N12/LiS/inp/LiS_N12_ccpvdz.inp
|  1> ! dft cc-pVDZ TightSCF
|  2> %pal nprocs 8 end
|  3> 
|  4> %loc
|  5>   LocMet NewBoys
|  6>   Occ true
|  7> end
|  8> 
|  9> %method
| 10>   exchange gga_x_N12
| 11>   correlation gga_c_N12
| 12> end
| 13> 
| 14> %elprop
| 15>   Dipole true
| 16>   Quadrupole true
| 17> end
| 18> 
| 19> * xyz 0 2
| 20> Li    0.000000000000   0.000000000000  -1.074850000000
| 21> S    0.000000000000   0.000000000000   1.074850000000
| 22> *
| 23> 
| 24> 
| 25>                          ****END OF INPUT****
================================================================================

                       ****************************
                       * Single Point Calculation *
                       ****************************

---------------------------------
CARTESIAN COORDINATES (ANGSTROEM)
---------------------------------
  Li     0.000000    0.000000   -1.074850
  S      0.000000    0.000000    1.074850

----------------------------
CARTESIAN COORDINATES (A.U.)
----------------------------
  NO LB      ZA    FRAG     MASS         X           Y           Z
   0 Li    3.0000    0     6.941    0.000000    0.000000   -2.031172
   1 S    16.0000    0    32.060    0.000000    0.000000    2.031172

--------------------------------
INTERNAL COORDINATES (ANGSTROEM)
--------------------------------
 Li     0   0   0     0.000000000000     0.00000000     0.00000000
 S      1   0   0     2.149700000000     0.00000000     0.00000000

---------------------------
INTERNAL COORDINATES (A.U.)
---------------------------
 Li     0   0   0     0.000000000000     0.00000000     0.00000000
 S      1   0   0     4.062344270091     0.00000000     0.00000000

---------------------
BASIS SET INFORMATION
---------------------
There are 2 groups of distinct atoms

 Group   1 Type Li  : 17s4p1d contracted to 3s2p1d pattern {881/31/1}
 Group   2 Type S   : 34s15p1d contracted to 4s3p1d pattern {1111111/771/1}

Atom   0Li   basis set group =>   1
Atom   1S    basis set group =>   2


           ************************************************************
           *        Program running with 8 parallel MPI-processes     *
           *              working on a common directory               *
           ************************************************************
------------------------------------------------------------------------------
                             ORCA STARTUP CALCULATIONS
------------------------------------------------------------------------------
------------------------------------------------------------------------------
                   ___                                                        
                  /   \      - P O W E R E D   B Y -                         
                 /     \                                                     
                 |  |  |   _    _      __       _____    __    __             
                 |  |  |  | |  | |    /  \     |  _  \  |  |  /  |          
                  \  \/   | |  | |   /    \    | | | |  |  | /  /          
                 / \  \   | |__| |  /  /\  \   | |_| |  |  |/  /          
                |  |  |   |  __  | /  /__\  \  |    /   |      \           
                |  |  |   | |  | | |   __   |  |    \   |  |\   \          
                \     /   | |  | | |  |  |  |  | |\  \  |  | \   \       
                 \___/    |_|  |_| |__|  |__|  |_| \__\ |__|  \__/        
                                                                              
                      - O R C A' S   B I G   F R I E N D -                    
                                      &                                       
                       - I N T E G R A L  F E E D E R -                       
                                                                              
 v1 FN, 2020, v2 2021, v3 2022-2024                                           
------------------------------------------------------------------------------


----------------------
SHARK INTEGRAL PACKAGE
----------------------

Number of atoms                             ...      2
Number of basis functions                   ...     61
Number of shells                            ...     33
Maximum angular momentum                    ...      2
Integral batch strategy                     ... SHARK/LIBINT Hybrid
RI-J (if used) integral strategy            ... SPLIT-RIJ (Revised 2003 algorithm where possible)
Printlevel                                  ...      1
Contraction scheme used                     ... PARTIAL GENERAL contraction
Prescreening option                         ... SCHWARTZ
   Thresh                                   ... 2.500e-11
   Tcut                                     ... 2.500e-12
   Tpresel                                  ... 2.500e-12 
Coulomb Range Separation                    ... NOT USED
Exchange Range Separation                   ... NOT USED
Multipole approximations                    ... NOT USED
Finite Nucleus Model                        ... NOT USED
CABS basis                                  ... NOT available
Auxiliary Coulomb fitting basis             ... NOT available
Auxiliary J/K fitting basis                 ... NOT available
Auxiliary Correlation fitting basis         ... NOT available
Auxiliary 'external' fitting basis          ... NOT available

Checking pre-screening integrals            ... done (  0.0 sec) Dimension = 33
Save PGC pre-screening integrals            ... done (  0.0 sec) Dimension = 33
Calculate PGC overlap integrals             ... done (  0.0 sec) Dimension = 14
Calculating pre-screening integrals (ORCA)  ... done (  0.1 sec) Dimension = 14
Shell pair information
Shell pair cut-off parameter TPreSel        ...   2.5e-12
Total number of shell pairs                 ...       561
Shell pairs after pre-screening             ...       479
Total number of primitive shell pairs       ...       633
Primitive shell pairs kept                  ...       551
          la=0 lb=0:    176 shell pairs
          la=1 lb=0:    183 shell pairs
          la=1 lb=1:     55 shell pairs
          la=2 lb=0:     42 shell pairs
          la=2 lb=1:     20 shell pairs
          la=2 lb=2:      3 shell pairs

Checking whether 4 symmetric matrices of dimension 61 fit in memory
:Max Core in MB      =   4096.00
 MB in use           =      1.66
 MB left             =   4094.34
 MB needed           =      0.06
 Data fit in memory  = YES
Calculating Nuclear repulsion               ... done (  0.0 sec) ENN=     11.815837557985 Eh

Diagonalization of the overlap matrix:
Smallest eigenvalue                        ... 1.244e-02
Time for diagonalization                   ...    0.000 sec
Threshold for overlap eigenvalues          ... 1.000e-07
Number of eigenvalues below threshold      ... 0
Time for construction of square roots      ...    0.002 sec
Total time needed                          ...    0.004 sec

-------------------
DFT GRID GENERATION
-------------------

General Integration Accuracy     IntAcc      ... 4.388
Radial Grid Type                 RadialGrid  ... OptM3 with GC (2021)
Angular Grid (max. ang.)         AngularGrid ... 4 (Lebedev-302)
Angular grid pruning method      GridPruning ... 4 (adaptive)
Weight generation scheme         WeightScheme... mBecke (2022)
Basis function cutoff            BFCut       ... 1.0000e-11
Integration weight cutoff        WCut        ... 1.0000e-14
Partially contracted basis set               ... off
Rotationally invariant grid construction     ... off
Angular grids for H and He will be reduced by one unit

Total number of grid points                  ...    13486
Total number of batches                      ...      212
Average number of points per batch           ...       63
Average number of grid points per atom       ...     6743

---------------------
SHARK GRID GENERATION
---------------------

General Integration Accuracy     IntAcc      ... 4.388
Radial Grid Type                 RadialGrid  ... OptM3 with GC (2021)
Angular Grid (max. ang.)         AngularGrid ... 4 (Lebedev-302)
Angular grid pruning method      GridPruning ... 4 (adaptive)
Weight generation scheme         WeightScheme... mBecke (2022)
Basis function cutoff            BFCut       ... 1.0000e-11
Integration weight cutoff        WCut        ... 1.0000e-14
Partially contracted basis set               ... off
Rotationally invariant grid construction     ... off
Angular grids for H and He will be reduced by one unit
Core-polarized basis detected: some atoms will have their core
                               angular grid increased.
Steep s-basis detected: some atoms will have their radial
                        grid points doubled.

Total number of grid points                  ...    31699
Total number of batches                      ...      497
Average number of points per batch           ...       63
Average number of grid points per atom       ...    15850
Grids setup in   1.2 sec
Initializing property integral containers    ... done (  0.0 sec)

SHARK setup successfully completed in   1.3 seconds

Maximum memory used throughout the entire STARTUP-calculation: 24.9 MB


           ************************************************************
           *        Program running with 8 parallel MPI-processes     *
           *              working on a common directory               *
           ************************************************************
-------------------------------------------------------------------------------
                                 ORCA GUESS
                   Start orbitals & Density for SCF / CASSCF
-------------------------------------------------------------------------------

------------
SCF SETTINGS
------------
Hamiltonian:
 Density Functional     Method          .... DFT(GTOs)
  Functional kind                       .... Exchange
  Functional name                       .... Minnesota N12 exchange functional
  Functional family                     .... GGA
  Functional refs                              
    [ 0] R. Peverati and D. G. Truhlar.,  J. Chem. Theory Comput. 8, 2310 (2012), doi: 10.1021/ct3002656
  Functional external parameters        .... 16
    Parameter  0 _CC00      =  1.000000e+00 : _CC00               
    Parameter  1 _CC01      =  5.078800e-01 : _CC01               
    Parameter  2 _CC02      =  1.682330e-01 : _CC02               
    Parameter  3 _CC03      =  1.288870e-01 : _CC03               
    Parameter  4 _CC10      =  8.602110e-02 : _CC10               
    Parameter  5 _CC11      = -1.710080e+01 : _CC11               
    Parameter  6 _CC12      =  6.508140e+01 : _CC12               
    Parameter  7 _CC13      = -7.017260e+01 : _CC13               
    Parameter  8 _CC20      = -3.907550e-01 : _CC20               
    Parameter  9 _CC21      =  5.133920e+01 : _CC21               
    Parameter 10 _CC22      = -1.662200e+02 : _CC22               
    Parameter 11 _CC23      =  1.427380e+02 : _CC23               
    Parameter 12 _CC30      =  4.036110e-01 : _CC30               
    Parameter 13 _CC31      = -3.446310e+01 : _CC31               
    Parameter 14 _CC32      =  7.616610e+01 : _CC32               
    Parameter 15 _CC33      = -2.418340e+00 : _CC33               
  Functional kind                       .... Correlation
  Functional name                       .... Minnesota N12 correlation functional
  Functional family                     .... GGA
  Functional refs                              
    [ 0] R. Peverati and D. G. Truhlar.,  J. Chem. Theory Comput. 8, 2310 (2012), doi: 10.1021/ct3002656
  Functional external parameters        .... 10
    Parameter  0 _css0      =  1.000000e+00 : u^0 coefficient for same-spin correlation
    Parameter  1 _css1      = -5.531700e+00 : u^1 coefficient for same-spin correlation
    Parameter  2 _css2      =  3.079580e+01 : u^2 coefficient for same-spin correlation
    Parameter  3 _css3      = -5.641960e+01 : u^3 coefficient for same-spin correlation
    Parameter  4 _css4      =  3.212500e+01 : u^4 coefficient for same-spin correlation
    Parameter  5 _cos0      =  1.000000e+00 : u^0 coefficient for opposite-spin correlation
    Parameter  6 _cos1      =  3.245110e+00 : u^1 coefficient for opposite-spin correlation
    Parameter  7 _cos2      = -2.528930e+01 : u^2 coefficient for opposite-spin correlation
    Parameter  8 _cos3      =  1.444070e+01 : u^3 coefficient for opposite-spin correlation
    Parameter  9 _cos4      =  1.968700e+01 : u^4 coefficient for opposite-spin correlation
 Gradients option       PostSCFGGA      .... off


General Settings:
 Integral files         IntName         .... /cluster/projects/nn14654k/ylvaos/basis_set_n_funcs/functionals/N12/LiS/inp/LiS_N12_ccpvdz
 Hartree-Fock type      HFTyp           .... UHF
 Total Charge           Charge          ....    0
 Multiplicity           Mult            ....    2
 Number of Electrons    NEL             ....   19
 Basis Dimension        Dim             ....   32
 Nuclear Repulsion      ENuc            ....     11.8158375580 Eh

Convergence Acceleration:
 AO-DIIS                CNVDIIS         .... on
   Start iteration      DIISMaxIt       ....    12
   Startup error        DIISStart       ....  0.200000
   # of expansion vecs  DIISMaxEq       ....     5
   Bias factor          DIISBfac        ....   1.050
   Max. coefficient     DIISMaxC        ....  10.000
 MO-DIIS                CNVKDIIS        .... off
 Trust-Rad. Augm. Hess. CNVTRAH         .... auto
   Auto Start mean grad. ratio tolernc. ....  1.125000
   Auto Start start iteration           ....    50
   Auto Start num. interpolation iter.  ....    10
   Max. Number of Micro iterations      ....    24
   Max. Number of Macro iterations      .... Maxiter - #DIIS iter
   Number of Davidson start vectors     ....     2
   Converg. threshold    (grad. norm)   ....   1.000e-05
   Grad. Scal. Fac. for Micro threshold ....   0.100
   Minimum threshold for Micro iter.    ....   1.000e-02
   NR start threshold (gradient norm)   ....   1.000e-04
   Initial trust radius                 ....   0.400
   Minimum AH scaling param. (alpha)    ....   1.000
   Maximum AH scaling param. (alpha)    .... 1000.000
   Quad. conv. algorithm                .... NR
   White noise on init. David. guess    .... on
   Maximum white noise                  ....   0.010
   Pseudo random numbers                .... off
   Inactive MOs                         .... canonical
   Orbital update algorithm             .... Taylor
   Preconditioner                       .... Diag
   Full preconditioner red. dimension   ....   250
 SOSCF                 CNVSOSCF           .... on
   Start iteration     SOSCFMaxIt         ....   150
   Startup grad/error  SOSCFStart         ....  0.003300
   Hessian update      SOSCFHessUp        .... L-BFGS
   Autom. constraints  SOSCFAutoConstrain .... off
 Level Shifting         CNVShift        .... on
   Level shift para.    LevelShift      ....    0.2500
   Turn off err/grad.   ShiftErr        ....    0.0010
 Zerner damping         CNVZerner       .... off
 Static damping         CNVDamp         .... on
   Fraction old density DampFac         ....    0.7000
   Max. Damping (<1)    DampMax         ....    0.9800
   Min. Damping (>=0)   DampMin         ....    0.0000
   Turn off err/grad.   DampErr         ....    0.1000

SCF Procedure:
 Maximum # iterations   MaxIter         ....   125
 SCF integral mode      SCFMode         .... Direct
   Integral package                     .... SHARK and LIBINT hybrid scheme
 Reset frequency        DirectResetFreq ....    20
 Integral Threshold     Thresh          ....  2.500e-11 Eh
 Primitive CutOff       TCut            ....  2.500e-12 Eh

Convergence Tolerance:
 Convergence Check Mode ConvCheckMode   .... Total+1el-Energy
 Convergence forced     ConvForced      .... 0
 Energy Change          TolE            ....  1.000e-08 Eh
 1-El. energy change                    ....  1.000e-05 Eh
 Orbital Gradient       TolG            ....  1.000e-05
 Orbital Rotation angle TolX            ....  1.000e-05
 DIIS Error             TolErr          ....  5.000e-07

------------------------------
INITIAL GUESS: MODEL POTENTIAL
------------------------------
Loading Hartree-Fock densities                     ... done
Calculating cut-offs                               ... done
Initializing the effective Hamiltonian             ... done
Setting up the integral package (SHARK)            ... done
Starting the Coulomb interaction                   ... done (   0.0 sec)
Making the grid                                    ... done (   0.0 sec)
Mapping shells                                     ... done
Starting the XC term evaluation                    ... done (   0.0 sec)
  promolecular density results
     # of electrons  =     18.999659774
     EX              =    -26.297695348
     EC              =     -1.157893592
     EX+EC           =    -27.455588940
Transforming the Hamiltonian                       ... done (   0.0 sec)
Diagonalizing the Hamiltonian                      ... done (   0.0 sec)
Back transforming the eigenvectors                 ... done (   0.0 sec)
Now organizing SCF variables                       ... done
                      ------------------
                      INITIAL GUESS DONE (   0.0 sec)
                      ------------------
             **** ENERGY FILE WAS UPDATED (/cluster/projects/nn14654k/ylvaos/basis_set_n_funcs/functionals/N12/LiS/inp/LiS_N12_ccpvdz.en.tmp) ****
Finished Guess after   0.1 sec
Maximum memory used throughout the entire GUESS-calculation: 3.9 MB


           ************************************************************
           *        Program running with 8 parallel MPI-processes     *
           *              working on a common directory               *
           ************************************************************

-------------------------------------------------------------------------------------------
                                      ORCA LEAN-SCF
                              memory conserving SCF solver
-------------------------------------------------------------------------------------------

----------------------------------------D-I-I-S--------------------------------------------
Iteration    Energy (Eh)           Delta-E    RMSDP     MaxDP     DIISErr   Damp  Time(sec)
-------------------------------------------------------------------------------------------
               ***  Starting incremental Fock matrix formation  ***
    1    -405.6575647961191748     0.00e+00  1.29e-02  4.09e-02  7.31e-02  0.700   0.1
Warning: op=0 Small HOMO/LUMO gap (   0.019) - skipping pre-diagonalization
         Will do a full diagonalization
    2    -405.6813145260734359    -2.37e-02  1.08e-02  3.47e-02  4.18e-02  0.700   0.1
                               ***Turning on AO-DIIS***
    3    -405.6922169745567999    -1.09e-02  4.33e-03  1.33e-02  1.42e-02  0.700   0.1
    4    -405.6972397920393405    -5.02e-03  6.22e-03  1.85e-02  8.68e-03  0.000   0.1
    5    -405.7081921462864784    -1.10e-02  1.90e-03  4.47e-03  9.58e-03  0.000   0.1
    6    -405.7089369365357925    -7.45e-04  9.18e-04  2.14e-03  4.87e-03  0.000   0.4
                              *** Initializing SOSCF ***
---------------------------------------S-O-S-C-F--------------------------------------
Iteration    Energy (Eh)           Delta-E    RMSDP     MaxDP     MaxGrad    Time(sec)
--------------------------------------------------------------------------------------
    7    -405.7091338824149034    -1.97e-04  5.28e-04  1.34e-03  2.70e-03     0.1
               *** Restarting incremental Fock matrix formation ***
    8    -405.7091942562179270    -6.04e-05  9.26e-04  2.59e-03  1.67e-03     0.1
    9    -405.7092141157212950    -1.99e-05  5.55e-04  1.56e-03  1.22e-03     0.1
   10    -405.7092294178398220    -1.53e-05  1.68e-04  6.07e-04  2.17e-04     0.1
   11    -405.7092311320331532    -1.71e-06  6.02e-04  1.98e-03  1.98e-04     0.1
   12    -405.7092346782825416    -3.55e-06  2.30e-04  9.03e-04  2.10e-04     0.1
   13    -405.7092356467732657    -9.68e-07  2.10e-04  9.08e-04  1.22e-04     0.2
   14    -405.7092361647543157    -5.18e-07  4.18e-05  1.60e-04  5.11e-05     0.1
   15    -405.7092362170869819    -5.23e-08  2.31e-05  8.92e-05  2.12e-05     0.1
   16    -405.7092362309932128    -1.39e-08  7.20e-06  1.92e-05  8.04e-06     0.1
   17    -405.7092362325506656    -1.56e-09  3.31e-06  9.90e-06  2.99e-06     0.1
                 **** Energy Check signals convergence ****

               *****************************************************
               *                     SUCCESS                       *
               *           SCF CONVERGED AFTER  17 CYCLES          *
               *****************************************************

             **** ENERGY FILE WAS UPDATED (/cluster/projects/nn14654k/ylvaos/basis_set_n_funcs/functionals/N12/LiS/inp/LiS_N12_ccpvdz.en.tmp) ****

----------------
TOTAL SCF ENERGY
----------------

Total Energy       :       -405.70923623284369 Eh          -11039.90958 eV

Components:
Nuclear Repulsion  :         11.81583755798484 Eh             321.52529 eV
Electronic Energy  :       -417.52507379082851 Eh          -11361.43486 eV
One Electron Energy:       -585.07635277068744 Eh          -15920.73695 eV
Two Electron Energy:        167.55127897985889 Eh            4559.30209 eV

Virial components:
Potential Energy   :       -810.98840675067436 Eh          -22068.11647 eV
Kinetic Energy     :        405.27917051783061 Eh           11028.20689 eV
Virial Ratio       :          2.00106115918680

DFT components:
N(Alpha)           :        9.999996650278 electrons
N(Beta)            :        8.999995849835 electrons
N(Total)           :       18.999992500113 electrons
E(X)               :      -26.465636569162 Eh       
E(C)               :       -1.173856335287 Eh       
E(XC)              :      -27.639492904450 Eh       

---------------
SCF CONVERGENCE
---------------

  Last Energy change         ...    1.5575e-09  Tolerance :   1.0000e-08
  Last MAX-Density change    ...    9.9009e-06  Tolerance :   1.0000e-07
  Last RMS-Density change    ...    3.3112e-06  Tolerance :   5.0000e-09
  Last DIIS Error            ...    2.6984e-03  Tolerance :   5.0000e-07
  Last Orbital Gradient      ...    2.9894e-06  Tolerance :   1.0000e-05
  Last Orbital Rotation      ...    3.6125e-05  Tolerance :   1.0000e-05


----------------------
UHF SPIN CONTAMINATION
----------------------

Warning: in a DFT calculation there is little theoretical justification to 
         calculate <S**2> as in Hartree-Fock theory. We will do it anyways
         but you should keep in mind that the values have only limited relevance

Expectation value of <S**2>     :     0.754698
Ideal value S*(S+1) for S=0.5   :     0.750000
Deviation                       :     0.004698

----------------
ORBITAL ENERGIES
----------------
                 SPIN UP ORBITALS
  NO   OCC          E(Eh)            E(eV) 
   0   1.0000     -87.892128     -2391.6664 
   1   1.0000      -7.639752      -207.8882 
   2   1.0000      -5.786862      -157.4685 
   3   1.0000      -5.772151      -157.0682 
   4   1.0000      -5.770807      -157.0316 
   5   1.0000      -1.947494       -52.9940 
   6   1.0000      -0.541223       -14.7274 
   7   1.0000      -0.204639        -5.5685 
   8   1.0000      -0.190849        -5.1933 
   9   1.0000      -0.166765        -4.5379 
  10   0.0000      -0.063685        -1.7330 
  11   0.0000      -0.021745        -0.5917 
  12   0.0000      -0.005171        -0.1407 
  13   0.0000       0.013209         0.3594 
  14   0.0000       0.060453         1.6450 
  15   0.0000       0.065465         1.7814 
  16   0.0000       0.068062         1.8521 
  17   0.0000       0.175418         4.7734 
  18   0.0000       0.222129         6.0444 
  19   0.0000       0.224829         6.1179 
  20   0.0000       0.247679         6.7397 

                 SPIN DOWN ORBITALS
  NO   OCC          E(Eh)            E(eV) 
   0   1.0000     -87.885305     -2391.4807 
   1   1.0000      -7.635471      -207.7717 
   2   1.0000      -5.776286      -157.1807 
   3   1.0000      -5.768691      -156.9741 
   4   1.0000      -5.767326      -156.9369 
   5   1.0000      -1.947695       -52.9995 
   6   1.0000      -0.505863       -13.7652 
   7   1.0000      -0.176805        -4.8111 
   8   1.0000      -0.152736        -4.1562 
   9   0.0000      -0.147528        -4.0144 
  10   0.0000      -0.083952        -2.2845 
  11   0.0000      -0.016626        -0.4524 
  12   0.0000      -0.014112        -0.3840 
  13   0.0000       0.016474         0.4483 
  14   0.0000       0.058057         1.5798 
  15   0.0000       0.058840         1.6011 
  16   0.0000       0.062127         1.6906 
  17   0.0000       0.166602         4.5335 
  18   0.0000       0.222024         6.0416 
  19   0.0000       0.231496         6.2993 
*Only the first 10 virtual orbitals were printed.

                    ********************************
                    * MULLIKEN POPULATION ANALYSIS *
                    ********************************

--------------------------------------------
MULLIKEN ATOMIC CHARGES AND SPIN POPULATIONS
--------------------------------------------
   0 Li:    0.254994    0.012184
   1 S :   -0.254994    0.987816
Sum of atomic charges         :   -0.0000000
Sum of atomic spin populations:    1.0000000

-----------------------------------------------------
MULLIKEN REDUCED ORBITAL CHARGES AND SPIN POPULATIONS
-----------------------------------------------------
CHARGE
  0 Lis       :     2.247942  s :     2.247942
      pz      :     0.187943  p :     0.417610
      px      :     0.057165
      py      :     0.172503
      dz2     :     0.021344  d :     0.079454
      dxz     :     0.017205
      dyz     :     0.040876
      dx2y2   :     0.000025
      dxy     :     0.000003

  1 S s       :     5.897260  s :     5.897260
      pz      :     3.641978  p :    10.351957
      px      :     2.954841
      py      :     3.755138
      dz2     :     0.002845  d :     0.005777
      dxz     :     0.000783
      dyz     :     0.001489
      dx2y2   :     0.000583
      dxy     :     0.000077


SPIN
  0 Lis       :    -0.025781  s :    -0.025781
      pz      :    -0.006757  p :     0.021352
      px      :     0.051122
      py      :    -0.023013
      dz2     :    -0.001435  d :     0.016613
      dxz     :     0.016011
      dyz     :     0.002021
      dx2y2   :     0.000015
      dxy     :     0.000002

  1 S s       :     0.012217  s :     0.012217
      pz      :     0.021115  p :     0.974242
      px      :     0.902137
      py      :     0.050990
      dz2     :    -0.000012  d :     0.001357
      dxz     :     0.000737
      dyz     :    -0.000004
      dx2y2   :     0.000563
      dxy     :     0.000074



                     *******************************
                     * LOEWDIN POPULATION ANALYSIS *
                     *******************************

-------------------------------------------
LOEWDIN ATOMIC CHARGES AND SPIN POPULATIONS
-------------------------------------------
   0 Li:   -0.064603    0.069595
   1 S :    0.064603    0.930405

----------------------------------------------------
LOEWDIN REDUCED ORBITAL CHARGES AND SPIN POPULATIONS
----------------------------------------------------
CHARGE
  0 Lis       :     2.244810  s :     2.244810
      pz      :     0.277649  p :     0.549293
      px      :     0.072028
      py      :     0.199616
      dz2     :     0.125433  d :     0.270500
      dxz     :     0.048408
      dyz     :     0.096629
      dx2y2   :     0.000026
      dxy     :     0.000003

  1 S s       :     5.600439  s :     5.600439
      pz      :     3.746616  p :    10.328787
      px      :     2.909200
      py      :     3.672971
      dz2     :     0.004366  d :     0.006170
      dxz     :     0.000357
      dyz     :     0.000790
      dx2y2   :     0.000581
      dxy     :     0.000077


SPIN
  0 Lis       :    -0.019186  s :    -0.019186
      pz      :    -0.003416  p :     0.039430
      px      :     0.065160
      py      :    -0.022313
      dz2     :     0.000513  d :     0.049351
      dxz     :     0.045289
      dyz     :     0.003531
      dx2y2   :     0.000016
      dxy     :     0.000002

  1 S s       :     0.007071  s :     0.007071
      pz      :     0.014245  p :     0.922279
      px      :     0.859225
      py      :     0.048809
      dz2     :     0.000120  d :     0.001055
      dxz     :     0.000332
      dyz     :    -0.000032
      dx2y2   :     0.000561
      dxy     :     0.000074



                      *****************************
                      * MAYER POPULATION ANALYSIS *
                      *****************************

  NA   - Mulliken gross atomic population
  ZA   - Total nuclear charge
  QA   - Mulliken gross atomic charge
  VA   - Mayer's total valence
  BVA  - Mayer's bonded valence
  FA   - Mayer's free valence

  ATOM       NA         ZA         QA         VA         BVA        FA
  0 Li     2.7450     3.0000     0.2550     1.2564     1.2497     0.0067
  1 S     16.2550    16.0000    -0.2550     2.1191     1.2497     0.8694

  Mayer bond orders larger than 0.100000
B(  0-Li,  1-S ) :   1.2497 

-------
TIMINGS
-------

Total SCF time: 0 days 0 hours 0 min 2 sec 

Total time                  ....       2.023 sec
Sum of individual times     ....       1.930 sec  ( 95.4%)

SCF preparation             ....       0.067 sec  (  3.3%)
Fock matrix formation       ....       1.472 sec  ( 72.8%)
  Startup                   ....       0.020 sec  (  1.4% of F)
  Coulomb formation         ....       0.063 sec  (  4.3% of F)
  XC integration            ....       0.765 sec  ( 52.0% of F)
    Basis function eval.    ....       0.020 sec  (  2.6% of XC)
    Density eval.           ....       0.007 sec  (  0.9% of XC)
    XC-Functional eval.     ....       0.033 sec  (  4.3% of XC)
    XC-Potential eval.      ....       0.012 sec  (  1.6% of XC)
Diagonalization             ....       0.000 sec  (  0.0%)
Density matrix formation    ....       0.153 sec  (  7.6%)
Total Energy calculation    ....       0.037 sec  (  1.8%)
Population analysis         ....       0.012 sec  (  0.6%)
Orbital Transformation      ....       0.018 sec  (  0.9%)
Orbital Orthonormalization  ....       0.000 sec  (  0.0%)
DIIS solution               ....       0.061 sec  (  3.0%)
SOSCF solution              ....       0.108 sec  (  5.3%)
Finished LeanSCF after   2.1 sec

Maximum memory used throughout the entire LEANSCF-calculation: 5.9 MB


           ************************************************************
           *        Program running with 8 parallel MPI-processes     *
           *              working on a common directory               *
           ************************************************************

------------------------------------------------------------------------------
                         ORCA PROPERTY INTEGRAL CALCULATIONS
------------------------------------------------------------------------------

GBWName                                   ... /cluster/projects/nn14654k/ylvaos/basis_set_n_funcs/functionals/N12/LiS/inp/LiS_N12_ccpvdz.gbw
Number of atoms                           ...      2
Number of basis functions                 ...     61
Max core memory                           ...   4096 MB

Dipole integrals                          ... YES
Quadrupole integrals                      ... YES
Linear momentum integrals                 ...  NO
Angular momentum integrals                ...  NO
Higher moments length integrals           ...  NO
Higher moments velocity integrals         ...  NO
Kinetic energy integrals                  ...  NO
GIAO right hand sides                     ...  NO
GIAO dipole derivative integrals          ...  NO
SOC integrals                             ...  NO
EPR diamagnetic integrals (GIAO)          ...  NO
EPR gauge integrals                       ...  NO
Field gradient integrals                  ...  NO (   0 nuclei)
Spin-dipole/Fermi contact integrals       ...  NO (   0 nuclei)
Contact density integrals                 ...  NO (   0 nuclei)
Nucleus-orbit integrals                   ...  NO (   0 nuclei)
Geometric perturbations                   ...  NO (   2 nuclei)

Choice of electric origin   ... Center of mass
Position of electric origin ... (  0.0000,  0.0000,  1.3082) 
Choice of magnetic origin   ... GIAO
Position of magnetic origin ... (  0.0000,  0.0000,  0.0000) 

Calculating integrals                     ... Electric Dipole (Length)     done (  0.0 sec)
Calculating integrals                     ... Electric Quadrupole (Length) done (  0.0 sec)

Property integrals calculated in   0.0 sec

Maximum memory used throughout the entire PROPINT-calculation: 4.1 MB
------------------------------------------------------------------------------
                           ORCA ORBITAL LOCALIZATION
------------------------------------------------------------------------------

Input orbitals are from                  ... /cluster/projects/nn14654k/ylvaos/basis_set_n_funcs/functionals/N12/LiS/inp/LiS_N12_ccpvdz.gbw
Output orbitals are to                   ... /cluster/projects/nn14654k/ylvaos/basis_set_n_funcs/functionals/N12/LiS/inp/LiS_N12_ccpvdz.loc
Max. number of iterations                ... 128
Localizations seeded randomly            ... on
Convergence tolerance                    ... 1.000e-06
Threshold for strong local MOs           ... 9.500e-01
Threshold for bond MOs                   ... 8.500e-01
Operator                                 ... 0
Orbital range for localization           ... 5 to 9
Localization criterion                   ... NEW-BOYS
Doing the dipole integrals               ... o.k.
Initial value of the localization sum :    12.348714
ITERATION   0 : L=   15.6777658569 DL=  3.33e+00 (AVERGE_DL)=    0.5769793915 
ITERATION   1 : L=   15.7786452745 DL=  1.01e-01 (AVERGE_DL)=    0.1004387463 
ITERATION   2 : L=   15.8332851311 DL=  5.46e-02 (AVERGE_DL)=    0.0739187774 
ITERATION   3 : L=   15.8450178149 DL=  1.17e-02 (AVERGE_DL)=    0.0342530055 
ITERATION   4 : L=   15.8485040733 DL=  3.49e-03 (AVERGE_DL)=    0.0186715246 
ITERATION   5 : L=   15.8495517946 DL=  1.05e-03 (AVERGE_DL)=    0.0102358263 
ITERATION   6 : L=   15.8499805968 DL=  4.29e-04 (AVERGE_DL)=    0.0065482988 
ITERATION   7 : L=   15.8502193703 DL=  2.39e-04 (AVERGE_DL)=    0.0048864452 
ITERATION   8 : L=   15.8503770796 DL=  1.58e-04 (AVERGE_DL)=    0.0039712628 
ITERATION   9 : L=   15.8504866017 DL=  1.10e-04 (AVERGE_DL)=    0.0033094133 
ITERATION  10 : L=   15.8505632646 DL=  7.67e-05 (AVERGE_DL)=    0.0027688068 
ITERATION  11 : L=   15.8506172823 DL=  5.40e-05 (AVERGE_DL)=    0.0023241700 
ITERATION  12 : L=   15.8506560010 DL=  3.87e-05 (AVERGE_DL)=    0.0019677074 
ITERATION  13 : L=   15.8506845664 DL=  2.86e-05 (AVERGE_DL)=    0.0016901306 
ITERATION  14 : L=   15.8507064416 DL=  2.19e-05 (AVERGE_DL)=    0.0014790263 
ITERATION  15 : L=   15.8507238877 DL=  1.74e-05 (AVERGE_DL)=    0.0013208359 
ITERATION  16 : L=   15.8507383547 DL=  1.45e-05 (AVERGE_DL)=    0.0012027901 
ITERATION  17 : L=   15.8507507680 DL=  1.24e-05 (AVERGE_DL)=    0.0011141463 
ITERATION  18 : L=   15.8507617179 DL=  1.09e-05 (AVERGE_DL)=    0.0010464203 
ITERATION  19 : L=   15.8507715862 DL=  9.87e-06 (AVERGE_DL)=    0.0009933924 
ITERATION  20 : L=   15.8507806230 DL=  9.04e-06 (AVERGE_DL)=    0.0009506205 
ITERATION  21 : L=   15.8507889959 DL=  8.37e-06 (AVERGE_DL)=    0.0009150340 
ITERATION  22 : L=   15.8507968194 DL=  7.82e-06 (AVERGE_DL)=    0.0008845102 
ITERATION  23 : L=   15.8508041748 DL=  7.36e-06 (AVERGE_DL)=    0.0008576321 
ITERATION  24 : L=   15.8508111202 DL=  6.95e-06 (AVERGE_DL)=    0.0008333909 
ITERATION  25 : L=   15.8508176994 DL=  6.58e-06 (AVERGE_DL)=    0.0008111256 
ITERATION  26 : L=   15.8508239462 DL=  6.25e-06 (AVERGE_DL)=    0.0007903671 
ITERATION  27 : L=   15.8508298870 DL=  5.94e-06 (AVERGE_DL)=    0.0007707656 
ITERATION  28 : L=   15.8508355436 DL=  5.66e-06 (AVERGE_DL)=    0.0007520993 
ITERATION  29 : L=   15.8508409340 DL=  5.39e-06 (AVERGE_DL)=    0.0007341959 
ITERATION  30 : L=   15.8508460739 DL=  5.14e-06 (AVERGE_DL)=    0.0007169321 
ITERATION  31 : L=   15.8508509771 DL=  4.90e-06 (AVERGE_DL)=    0.0007002258 
ITERATION  32 : L=   15.8508556555 DL=  4.68e-06 (AVERGE_DL)=    0.0006839936 
ITERATION  33 : L=   15.8508601205 DL=  4.46e-06 (AVERGE_DL)=    0.0006681999 
ITERATION  34 : L=   15.8508643821 DL=  4.26e-06 (AVERGE_DL)=    0.0006528102 
ITERATION  35 : L=   15.8508684497 DL=  4.07e-06 (AVERGE_DL)=    0.0006377805 
ITERATION  36 : L=   15.8508723323 DL=  3.88e-06 (AVERGE_DL)=    0.0006231052 
ITERATION  37 : L=   15.8508760383 DL=  3.71e-06 (AVERGE_DL)=    0.0006087686 
ITERATION  38 : L=   15.8508795754 DL=  3.54e-06 (AVERGE_DL)=    0.0005947392 
ITERATION  39 : L=   15.8508829513 DL=  3.38e-06 (AVERGE_DL)=    0.0005810206 
ITERATION  40 : L=   15.8508861730 DL=  3.22e-06 (AVERGE_DL)=    0.0005676004 
ITERATION  41 : L=   15.8508892474 DL=  3.07e-06 (AVERGE_DL)=    0.0005544703 
ITERATION  42 : L=   15.8508921810 DL=  2.93e-06 (AVERGE_DL)=    0.0005416295 
ITERATION  43 : L=   15.8508949800 DL=  2.80e-06 (AVERGE_DL)=    0.0005290550 
ITERATION  44 : L=   15.8508976505 DL=  2.67e-06 (AVERGE_DL)=    0.0005167665 
ITERATION  45 : L=   15.8509001980 DL=  2.55e-06 (AVERGE_DL)=    0.0005047314 
ITERATION  46 : L=   15.8509026281 DL=  2.43e-06 (AVERGE_DL)=    0.0004929622 
ITERATION  47 : L=   15.8509049461 DL=  2.32e-06 (AVERGE_DL)=    0.0004814498 
ITERATION  48 : L=   15.8509071568 DL=  2.21e-06 (AVERGE_DL)=    0.0004701891 
ITERATION  49 : L=   15.8509092653 DL=  2.11e-06 (AVERGE_DL)=    0.0004591759 
ITERATION  50 : L=   15.8509112759 DL=  2.01e-06 (AVERGE_DL)=    0.0004484056 
ITERATION  51 : L=   15.8509131933 DL=  1.92e-06 (AVERGE_DL)=    0.0004378738 
ITERATION  52 : L=   15.8509150216 DL=  1.83e-06 (AVERGE_DL)=    0.0004275839 
ITERATION  53 : L=   15.8509167648 DL=  1.74e-06 (AVERGE_DL)=    0.0004175198 
ITERATION  54 : L=   15.8509184267 DL=  1.66e-06 (AVERGE_DL)=    0.0004076715 
ITERATION  55 : L=   15.8509200112 DL=  1.58e-06 (AVERGE_DL)=    0.0003980510 
ITERATION  56 : L=   15.8509215217 DL=  1.51e-06 (AVERGE_DL)=    0.0003886477 
ITERATION  57 : L=   15.8509229615 DL=  1.44e-06 (AVERGE_DL)=    0.0003794567 
ITERATION  58 : L=   15.8509243340 DL=  1.37e-06 (AVERGE_DL)=    0.0003704744 
ITERATION  59 : L=   15.8509256423 DL=  1.31e-06 (AVERGE_DL)=    0.0003616965 
ITERATION  60 : L=   15.8509268892 DL=  1.25e-06 (AVERGE_DL)=    0.0003531191 
ITERATION  61 : L=   15.8509280777 DL=  1.19e-06 (AVERGE_DL)=    0.0003447381 
ITERATION  62 : L=   15.8509292103 DL=  1.13e-06 (AVERGE_DL)=    0.0003365496 
ITERATION  63 : L=   15.8509302898 DL=  1.08e-06 (AVERGE_DL)=    0.0003285613 
ITERATION  64 : L=   15.8509313186 DL=  1.03e-06 (AVERGE_DL)=    0.0003207377 
ITERATION  65 : L=   15.8509322990 DL=  9.80e-07 (AVERGE_DL)=    0.0003131116 
LOCALIZATION SUM CONVERGED


--------------------------------------------------------------------------------
                    LOCALIZED MOLECULAR ORBITAL COMPOSITIONS
--------------------------------------------------------------------------------

The Mulliken populations for each LMO on each atom are computed
The LMO`s will be ordered according to atom index and type
  (A) Strongly localized MO`s have populations of >=0.950 on one atom
  (B) Two center bond orbitals have populations of >=0.850 on two atoms
  (C) Other MO`s are considered to be `delocalized`

FOUND  -   2 strongly local MO`s
       -   3 two center bond MO`s
       -   0 significantly delocalized MO`s

Rather strongly localized orbitals:
MO   6:   1S  -   0.967705
MO   5:   0Li -   1.001264
Bond-like localized orbitals:
MO   9:   1S  -   0.873733  and   0Li -   0.126267
MO   8:   1S  -   0.909766  and   0Li -   0.090234
MO   7:   1S  -   0.874776  and   0Li -   0.125224
Localized MO's were stored in: /cluster/projects/nn14654k/ylvaos/basis_set_n_funcs/functionals/N12/LiS/inp/LiS_N12_ccpvdz.loc
------------------------------------------------------------------------------
                           ORCA ORBITAL LOCALIZATION
------------------------------------------------------------------------------

Input orbitals are from                  ... /cluster/projects/nn14654k/ylvaos/basis_set_n_funcs/functionals/N12/LiS/inp/LiS_N12_ccpvdz.loc
Output orbitals are to                   ... /cluster/projects/nn14654k/ylvaos/basis_set_n_funcs/functionals/N12/LiS/inp/LiS_N12_ccpvdz.loc
Max. number of iterations                ... 128
Localizations seeded randomly            ... on
Convergence tolerance                    ... 1.000e-06
Threshold for strong local MOs           ... 9.500e-01
Threshold for bond MOs                   ... 8.500e-01
Operator                                 ... 1
Orbital range for localization           ... 5 to 8
Localization criterion                   ... NEW-BOYS
Doing the dipole integrals               ... o.k.
Initial value of the localization sum :    13.314237
ITERATION   0 : L=   14.6260897214 DL=  1.31e+00 (AVERGE_DL)=    0.4675918221 
ITERATION   1 : L=   14.7397025836 DL=  1.14e-01 (AVERGE_DL)=    0.1376062390 
ITERATION   2 : L=   14.9086264012 DL=  1.69e-01 (AVERGE_DL)=    0.1677914467 
ITERATION   3 : L=   15.1140055093 DL=  2.05e-01 (AVERGE_DL)=    0.1850131113 
ITERATION   4 : L=   15.2352155680 DL=  1.21e-01 (AVERGE_DL)=    0.1421326016 
ITERATION   5 : L=   15.2827128561 DL=  4.75e-02 (AVERGE_DL)=    0.0889731121 
ITERATION   6 : L=   15.2975197940 DL=  1.48e-02 (AVERGE_DL)=    0.0496771879 
ITERATION   7 : L=   15.3017134534 DL=  4.19e-03 (AVERGE_DL)=    0.0264375345 
ITERATION   8 : L=   15.3028529431 DL=  1.14e-03 (AVERGE_DL)=    0.0137809634 
ITERATION   9 : L=   15.3031570732 DL=  3.04e-04 (AVERGE_DL)=    0.0071195745 
ITERATION  10 : L=   15.3032375775 DL=  8.05e-05 (AVERGE_DL)=    0.0036629749 
ITERATION  11 : L=   15.3032588034 DL=  2.12e-05 (AVERGE_DL)=    0.0018808661 
ITERATION  12 : L=   15.3032643888 DL=  5.59e-06 (AVERGE_DL)=    0.0009648284 
ITERATION  13 : L=   15.3032658570 DL=  1.47e-06 (AVERGE_DL)=    0.0004946766 
ITERATION  14 : L=   15.3032662429 DL=  3.86e-07 (AVERGE_DL)=    0.0002535925 
LOCALIZATION SUM CONVERGED


--------------------------------------------------------------------------------
                    LOCALIZED MOLECULAR ORBITAL COMPOSITIONS
--------------------------------------------------------------------------------

The Mulliken populations for each LMO on each atom are computed
The LMO`s will be ordered according to atom index and type
  (A) Strongly localized MO`s have populations of >=0.950 on one atom
  (B) Two center bond orbitals have populations of >=0.850 on two atoms
  (C) Other MO`s are considered to be `delocalized`

FOUND  -   2 strongly local MO`s
       -   2 two center bond MO`s
       -   0 significantly delocalized MO`s

Rather strongly localized orbitals:
MO   6:   1S  -   0.979359
MO   5:   0Li -   1.001295
Bond-like localized orbitals:
MO   8:   1S  -   0.829321  and   0Li -   0.170679
MO   7:   1S  -   0.829387  and   0Li -   0.170613
Localized MO's were stored in: /cluster/projects/nn14654k/ylvaos/basis_set_n_funcs/functionals/N12/LiS/inp/LiS_N12_ccpvdz.loc

-------------------------   --------------------
FINAL SINGLE POINT ENERGY      -405.709236232844
-------------------------   --------------------



           ************************************************************
           *        Program running with 8 parallel MPI-processes     *
           *              working on a common directory               *
           ************************************************************

------------------------------------------------------------------------------
                              ORCA PROPERTY CALCULATIONS
------------------------------------------------------------------------------

GBWName                                 ... /cluster/projects/nn14654k/ylvaos/basis_set_n_funcs/functionals/N12/LiS/inp/LiS_N12_ccpvdz.gbw
Number of atoms                         ...      2
Number of basis functions               ...     61
Max core memory                         ...   4096 MB

Electric properties:
Dipole moment                           ... YES
Quadrupole moment                       ... YES
Static polarizability (Dipole/Dipole)   ...  NO
Static polarizability (Dipole/Quad.)    ...  NO
Static polarizability (Quad./Quad.)     ...  NO
Static polarizability (Velocity)        ...  NO
Static hyperpolarizability              ...  NO

Atomic electric properties:
Dipole moment                           ...  NO
Quadrupole moment                       ...  NO
Static polarizability                   ...  NO

Choice of electric origin               ... Center of mass
Position of electric origin             ...     0.000000     0.000000     1.308198

General magnetic properties:
Magnetizability                         ...  NO

EPR properties:
g-Tensor (aka g-matrix)                 ...  NO
Zero-Field splitting spin-orbit         ...  NO
Zero-field splitting spin-spin          ...  NO
Hyperfine couplings                     ...  NO (   0 nuclei)
Quadrupole couplings                    ...  NO (   0 nuclei)
Contact density                         ...  NO (   0 nuclei)

NMR properties:
Chemical shifts                         ...  NO (   0 nuclei)
Spin-rotation constants                 ...  NO (   0 nuclei)
Spin-spin couplings                     ...  NO (   0 nuclei,    0 pairs)

Choice of magnetic origin               ... GIAO
Position of magnetic origin             ...     0.000000     0.000000     0.000000

Properties with geometric perturbations:
SCF Hessian                             ...  NO
IR spectrum                             ...  NO
VCD spectrum                            ...  NO
X-ray spectroscopy properties:
SCF XES/XAS/RIXS spectra                ...  NO

SCF SOC stabilization energy            ...  NO
Diagonal Born-Oppenheimer correction    ...  NO

-------------
DIPOLE MOMENT
-------------

Method             : SCF
Type of density    : Electron Density
Multiplicity       :   2
Irrep              :   0
Energy             :  -405.7092362328436934 Eh
Basis              : AO
                                X                 Y                 Z
Electronic contribution:     -0.000000001      -0.000000001      -4.067338990
Nuclear contribution   :      0.000000000       0.000000000       1.549484202
                        -----------------------------------------
Total Dipole Moment    :     -0.000000001      -0.000000001      -2.517854788
                        -----------------------------------------
Magnitude (a.u.)       :      2.517854788
Magnitude (Debye)      :      6.399878263



--------------------
Rotational spectrum 
--------------------
 
Rotational constants in cm-1:             0.000000             0.639339             0.639339 
Rotational constants in MHz :             0.000000         19166.891897         19166.891897 

Dipole components along the rotational axes: 
x,y,z [a.u.] :    -2.517855    -0.000000    -0.000000 
x,y,z [Debye]:    -6.399878    -0.000000    -0.000000 

 

Dipole moment calculation done in   0.0 sec 

-----------------
QUADRUPOLE MOMENT
-----------------

Method             : SCF
Type of density    : Electron Density
Multiplicity       :   2
Irrep              :   0
Energy             :  -405.7092362328436934 Eh
Basis              : AO

                XX              YY              ZZ              XY              XZ              YZ
  NUC        0.000000000     0.000000000    41.817245673     0.000000000     0.000000000     0.000000000
  EL       -11.748249356   -14.200401328   -45.268703266    -0.444948801     0.000000002     0.000000001
  TOT      -11.748249356   -14.200401328    -3.451457593    -0.444948801     0.000000002     0.000000001 (a.u.)
           -15.801797174   -19.100025440    -4.642328502    -0.598471355     0.000000003     0.000000002 (Buckingham)

diagonalized tensor:
           -14.278641929   -11.670008755    -3.451457593 (a.u.)
           -19.205261725   -15.696560890    -4.642328502 (Buckingham)
           -18.071634057    -7.545531554    25.617165611 (traceless form in Buckingham)

             0.173184724     0.984889360     0.000000000
             0.984889360    -0.173184724     0.000000000
            -0.000000000    -0.000000000     1.000000000
        
Isotropic quadrupole :    -9.800036092

Quadrupole moment calculation done in   0.0 sec (  0.0 sec for integrals)

Maximum memory used throughout the entire PROP-calculation: 1.8 MB

--------------------------------
SUGGESTED CITATIONS FOR THIS RUN
--------------------------------

Below you find a list of papers that are relevant to this ORCA run
We neither can nor want to force you to cite these papers, but we appreciate if you do
You receive ORCA, which is the product of decades of hard work by many enthusiastic individuals, for free
The only thing we kindly ask in return is that you cite our papers,
We deeply appreciate it, if you show your appreciation for ORCA by not just citing the generic ORCA reference.

Please note that relegating all ORCA citations to the supporting information does *not* help us.
SI sections are not indexed - citations you put there will not count into any citation statistics
But we need these citations in order to attract the funding resources that allow us to do what we are doing

Therefore, if you are a happy ORCA user, please consider citing a few of the papers listed below in the main body of your paper

In addition to the list printed below, the program has created the file /cluster/projects/nn14654k/ylvaos/basis_set_n_funcs/functionals/N12/LiS/inp/LiS_N12_ccpvdz.bibtex that contains the list in bibtex format
You can import this file easily into all common literature databanks and citation aid programs

It goes without saying that in many instances, there are alternative algorithms to achieve similar
results as the ones you have gotten from ORCA. It is, of course, also the case that in some instances
ORCA just re-implements algorithms worked out by others. We are fully aware of that and we are also
fully appreciative of our colleagues work. Hence this citation list should not be read as indicating
that the listed papers, which are focused on our own work, are the only ones worth citing. It simply
meant to make it easier for users to cite ORCA specific papers. It is not a substitute for doing your
own literature research and citing the relevant literature in a scientifically appropriate manner.

List of essential papers. We consider these as the minimum necessary citations

  1. Neese, F.
     Software update: the ORCA program system, version 6.0
     WIRES Comput. Molec. Sci. 2025 15(1), e70019
     doi.org/10.1002/wcms.70019

List of papers to cite with high priority. The work reported in these papers was absolutely
necessary for this run to complete.
Our perspective: the developers of density functionals and basis sets usually get cited in chemistry papers
Good! But without the algorithms to do something with them, the functionals or basis sets would not do anything.
Hence, in our opinion, the algorithm design and method developments papers are equally worthy of getting cited

  1. Lehtola, S.; Steigemann, C.; Oliveira, M.; Marques, M.
     Recent developments in Libxc - A comprehensive library of functionals for density functional theory
     Software X 2018 7 , 
     doi.org/10.1016/j.softx.2017.11.002
  2. Neese, F.
     The SHARK Integral Generation and Digestion System
     J. Comp. Chem. 2022 44(3), 381
     doi.org/10.1002/jcc.26942

List of suggested additional citations. These are papers that are important in the 'surrounding' of 
of this run, or papers that preceded the highly important papers. If you like your results we are grateful for a citation.

  1. Neese, F.
     The ORCA program system
     WIRES Comput. Molec. Sci. 2012 2(1), 73-78
     doi.org/10.1002/wcms.81
  2. Neese, F.
     Software update: the ORCA program system, version 4.0
     WIRES Comput. Molec. Sci. 2018 8(1), 1-6
     doi.org/10.1002/wcms.1327
  3. Neese, F.; Wennmohs, F.; Becker, U.; Riplinger, C.
     The ORCA quantum chemistry program package
     J. Chem. Phys. 2020 152(22), 224108
     doi.org/10.1063/5.0004608
  4. Neese, F.
     Software update: The ORCA program system—Version 5.0
     WIRES Comput. Molec. Sci. 2022 12(1), e1606
     doi.org/10.1002/wcms.1606

List of optional additional citations

  1. Neese, F.
     Approximate second-order SCF convergence for spin unrestricted wavefunctions
     Chem. Phys. Lett. 2000 325(1-3), 93-98
     doi.org/10.1016/s0009-2614(00)00662-x

Timings for individual modules:

Sum of individual times          ...        4.758 sec (=   0.079 min)
Startup calculation              ...        1.514 sec (=   0.025 min)  31.8 %
SCF iterations                   ...        2.597 sec (=   0.043 min)  54.6 %
Property integrals               ...        0.271 sec (=   0.005 min)   5.7 %
Property calculations            ...        0.370 sec (=   0.006 min)   7.8 %
Orbital localization             ...        0.007 sec (=   0.000 min)   0.1 %
                             ****ORCA TERMINATED NORMALLY****
TOTAL RUN TIME: 0 days 0 hours 0 minutes 5 seconds 558 msec
