
                                 *****************
                                 * O   R   C   A *
                                 *****************

                                            #,                                       
                                            ###                                      
                                            ####                                     
                                            #####                                    
                                            ######                                   
                                           ########,                                 
                                     ,,################,,,,,                         
                               ,,#################################,,                 
                          ,,##########################################,,             
                       ,#########################################, ''#####,          
                    ,#############################################,,   '####,        
                  ,##################################################,,,,####,       
                ,###########''''           ''''###############################       
              ,#####''   ,,,,##########,,,,          '''####'''          '####       
            ,##' ,,,,###########################,,,                        '##       
           ' ,,###''''                  '''############,,,                           
         ,,##''                                '''############,,,,        ,,,,,,###''
      ,#''                                            '''#######################'''  
     '                                                          ''''####''''         
             ,#######,   #######,   ,#######,      ##                                
            ,#'     '#,  ##    ##  ,#'     '#,    #''#        ,####,    ,#,          
            ##       ##  ##   ,#'  ##            #'  '#       #'       ,# #          
            ##       ##  #######   ##           ,######,      #####,      #          
            '#,     ,#'  ##    ##  '#,     ,#' ,#      #,     #,   #      #          
             '#######'   ##     ##  '#######'  #'      '#     '####' #    #          



                #########################################################
                #                        -***-                          #
                #          Department of theory and spectroscopy        #
                #                                                       #
                #                      Frank Neese                      #
                #                                                       #
                #     Directorship, Architecture, Infrastructure        #
                #                    SHARK, DRIVERS                     #
                #        Core code/Algorithms in most modules           #
                #                                                       #
                #        Max Planck Institute fuer Kohlenforschung      #
                #                Kaiser Wilhelm Platz 1                 #
                #                 D-45470 Muelheim/Ruhr                 #
                #                      Germany                          #
                #                                                       #
                #                  All rights reserved                  #
                #                        -***-                          #
                #########################################################


                         Program Version 6.1.1  -  RELEASE   -
                                (GIT: $487d211c$)
                          ($2025-11-21 10:33:24 +0100$)


 With contributions from (in alphabetic order):
[Max-Planck-Institut fuer Kohlenforschung]                               
  Daniel Aravena         : Magnetic Suceptibility                        
  Michael Atanasov       : Ab Initio Ligand Field Theory (pilot matlab implementation)
  Alexander A. Auer      : GIAO ZORA, VPT2 properties, NMR spectrum      
  Ute Becker             : All parallelization in ORCA, NUMFREQ, NUMCALC 
  Giovanni Bistoni       : ED, misc. LED, open-shell LED, HFLD           
  Dmytro Bykov           : pre 5.0 version of the SCF Hessian            
  Marcos Casanova-Páez   : Triplet and SCS-CIS(D). UHF-(DLPNO)-IP/EA/STEOM-CCSD. UHF-CVS-IP/STEOM-CCSD   
  Vijay G. Chilkuri      : MRCI spin determinant printing, contributions to CSF-ICE 
  Pauline Colinet        : FMM embedding                                 
  Dipayan Datta          : RHF DLPNO-CCSD density                        
  Achintya Kumar Dutta   : EOM-CC, STEOM-CC                              
  Nicolas Foglia         : Exact transition moments, OPA infrastructure, MCD improvements    
  Dmitry Ganyushin       : Spin-Orbit,Spin-Spin,Magnetic field MRCI      
  Miquel Garcia-Rates    : C-PCM and meta-GGA Hessian, CCSD/C-PCM, Gaussian charge scheme 
  Tiago L. C. Gouveia    : GS-ROHF, GS-ROCIS                             
  Yang Guo               : DLPNO-NEVPT2, F12-NEVPT2, CIM, IAO-localization        
  Andreas Hansen         : Spin unrestricted coupled pair/coupled cluster methods 
  Ingolf Harden          : AUTO-CI MPn and infrastructure                
  Benjamin Helmich-Paris : MC-RPA, TRAH-(SCF,CASSCF), AVAS, COSX integrals, SCF dyn. polar., MC-PDFT, srDFT 
  Lee Huntington         : MR-EOM, pCC                                   
  Robert Izsak           : Overlap fitted RIJCOSX, COSX-SCS-MP3, EOM     
  Riya Kayal             : Wick's Theorem for AUTO-CI, AUTO-CI UHF-CCSDT 
  Emily Kempfer          : AUTO-CI RHF CISDT and CCSDT, approximate NEVPT4
  Christian Kollmar      : KDIIS, OOCD, Brueckner-CCSD(T), CCSD density, CASPT2, CASPT2-K, improved NEVPT2 
  Axel Koslowski         : Symmetry handling                             
  Simone Kossmann        : meta-GGA functionals, TD-DFT gradient, OOMP2, (MP2 Hessian; deprecated post 5.0) 
  Lucas Lang             : DCDCAS, Hyperfine gauge corrections, ICE-SOC+SSC
  Marvin Lechner         : AUTO-CI (C++ implementation), FIC-MRCC        
  Spencer Leger          : CASSCF response                               
  Dagmar Lenk            : GEPOL surface, SMD, ORCA-2-JSON               
  Dimitrios Liakos       : Extrapolation schemes; Compound Job, Property file
  Dimitrios Manganas     : Further ROCIS development; embedding schemes. LFT, Crystal Embedding 
  Dimitrios Pantazis     : SARC Basis sets                               
  Anastasios Papadopoulos: AUTO-CI, single reference methods and gradients 
  Taras Petrenko         : pre 6.0 DFT Hessian and TD-DFT gradient,  ECA, NRVS 
  Petra Pikulova         : Analytic Raman intensities                    
  Peter Pinski           : DLPNO-MP2, DLPNO-MP2 Gradient                 
  Shashank Vittal Rao    : ES-AILFT, MagRelax                            
  Christoph Reimann      : Effective Core Potentials                     
  Marius Retegan         : Local ZFS, SOC                                
  Christoph Riplinger    : Optimizer, TS searches, QM/MM, DLPNO-CCSD(T), (RO)-DLPNO pert. Triples 
  Michael Roemelt        : Original ROCIS implementation, recursive CI coupling coefficients
  Masaaki Saitow         : Open-shell DLPNO-CCSD energy and density      
  Barbara Sandhoefer     : DKH picture change effects                    
  Yorick L. A. Schmerwitz: GMF and freeze-and-release deltaSCF, NEB S-IDPP initial path                    
  Kantharuban Sivalingam : CASSCF convergence/infrastructure, NEVPT2, NEVPT3, NEVPT4(SD), FIC-MRCI and CEPA variants
  Bernardo de Souza      : ESD, SOC TD-DFT                               
  Georgi L. Stoychev     : AutoAux, RI-MP2 NMR, DLPNO-MP2 response, X2C  
  Van Anh Tran           : RI-MP2 g-tensors                              
  Willem Van den Heuvel  : Paramagnetic NMR                              
  Zikuan Wang            : NOTCH, Electric field optimization            
  Frank Wennmohs         : Technical directorship and infrastructure     
  Hang Xu                : AUTO-CI-Response properties                   
                                                                         
[FACCTs GmbH]                                                            
  Markus Bursch, Nicolas Foglia, Miquel Garcia-Rates, Ingolf Harden, Hagen Neugebauer, Anastasios Papadopoulos, 
  Christoph Riplinger, Bernardo de Souza, Georgi L. Stoychev                                                    
                                                                 
  APM, various basis sets, CI-OPT, improved COSX, DLPNO-Multilevel,           
  DOCKER, DRACO, updates on ESD, Fragmentator, GOAT, IRC, LR-CPCM, L-BFGS, MBIS, meta-GGA TD-DFT gradient, ML-optimized integration grids, 
  MM, NACMEs, nearIR, NEB, NEB-TS, NL-DFT gradient (VV10), 2- and 3-layer-ONIOM, interface openCOSMO-RS, QMMM,   
  Crystal-QMMM, RESP, rigid body optimization, SF, symmetry and pop. for TD-DFT, various functionals, SOLVATOR                                   
                                                                         
[Other institutions]                                                     
  V. Asgeirsson          : NEB                                           
  Christoph Bannwarth    : sTDA-DFT, sTD-DFT, PBEh-3c, B97-3c, D3        
  Giovanni Bistoni       : ETS/NOCV, ADLD/ADEX, COVALED                  
  Martin Brehm           : Molecular dynamics                            
  Ronald Cardenas        : ETS/NOCV                                      
  Martina Colucci        : COVALED                                       
  Sebastian Ehlert       : rSCAN, r2SCAN, r2SCAN-3c, D4, dhf basis sets  
  Marvin Friede          : D4 for Fr, Ra, Ac-Lr                          
  Lars Goerigk           : TD-DFT with DH, B97 family of functionals     
  Stefan Grimme          : VdW corrections, initial TS optimization, DFT functionals, gCP, sTDA/sTD-DF 
  Waldemar Hujo          : DFT-NL                                        
  H. Jonsson             : NEB                                           
  Holger Kruse           : gCP                                           
  Marcel Mueller         : wB97X-3c, vDZP basis set                      
  Hagen Neugebauer       : wr2SCAN, Native XTB                           
  Gianluca Regni         : ADLD/ADEX                                     
  Tobias Risthaus        : pre 6.0 range-separated hybrid DFT and stability analysis
  Lukas Wittmann         : regularized MP2, r2SCAN double-hybrids, wr2SCAN        
                                                                         
We gratefully acknowledge several colleagues who have allowed us to      
interface, adapt or use parts of their codes:                            
  Ed Valeev, F. Pavosevic, A. Kumar             : LibInt (2-el integral package), F12 methods 
  Garnet Chan, S. Sharma, J. Yang, R. Olivares  : DMRG                   
  Ulf Ekstrom                                   : XCFun DFT Library      
  Mihaly Kallay                                 : mrcc  (arbitrary order and MRCC methods)
  Frank Weinhold                                : gennbo (NPA and NBO analysis)           
  Simon Mueller                                 : openCOSMO-RS                            
  Christopher J. Cramer and Donald G. Truhlar   : smd solvation model                     
  S Lehtola, MJT Oliveira, MAL Marques          : LibXC Library                           
  Liviu Ungur et al                             : ANISO software                          


 Your calculation uses the libint2 library for the computation of 2-el integrals
 For citations please refer to: http://libint.valeyev.net

 Your ORCA version has been built with support for libXC version: 7.0.0
 For citations please refer to: https://libxc.gitlab.io

 This ORCA versions uses:
   CBLAS   interface :  Fast vector & matrix operations
   LAPACKE interface :  Fast linear algebra routines
   SCALAPACK package :  Parallel linear algebra routines
   Shared memory     :  Shared parallel matrices
   BLAS/LAPACK       :  OpenBLAS 0.3.29  USE64BITINT DYNAMIC_ARCH NO_AFFINITY Cooperlake SINGLE_THREADED
        Core in use  :  Cooperlake
   Copyright (c) 2011-2014, The OpenBLAS Project


  ***********************************
  * Starting time: Wed May 20 12:32:45 2026
  * Host name:     c1-44
  * Process ID:    2294637
  * Working dir.:  /cluster/projects/nn14654k/ylvaos/basis_set_n_funcs/functionals/gga_c_pbe/CH3COOH/out
  ***********************************

Using LibXC functional ID 130 : Perdew, Burke & Ernzerhof
[ 1]  J. P. Perdew, K. Burke, and M. Ernzerhof.,  Phys. Rev. Lett. 77, 3865 (1996)
[ 2]  J. P. Perdew, K. Burke, and M. Ernzerhof.,  Phys. Rev. Lett. 78, 1396 (1997)
Using LibXC functional ID 130 : Perdew, Burke & Ernzerhof
[ 1]  J. P. Perdew, K. Burke, and M. Ernzerhof.,  Phys. Rev. Lett. 77, 3865 (1996)
[ 2]  J. P. Perdew, K. Burke, and M. Ernzerhof.,  Phys. Rev. Lett. 78, 1396 (1997)
Your calculation utilizes LibXC
by S. Lehtola, C. Steigemann, M. J. T. Oliveira & M. A. L. Marques
Please cite in your paper:
Lehtola, S.; Steigemann, C.; Oliveira, M.J.T.; Marques, M. A. L. Software X, 7, (2018), 1.
   

================================================================================

----- Orbital basis set information -----
Your calculation utilizes the basis: pcseg-2
   F. Jensen, J. Chem. Theory Comput. 10, 1074 (2014).

================================================================================
                                        WARNINGS
                       Please study these warnings very carefully!
================================================================================


================================================================================
                                       INPUT FILE
================================================================================
NAME = /cluster/projects/nn14654k/ylvaos/basis_set_n_funcs/functionals/gga_c_pbe/CH3COOH/inp/CH3COOH_gga_c_pbe_pcseg2.inp
|  1> ! dft pcseg-2 TightSCF
|  2> %pal nprocs 8 end
|  3> 
|  4> %loc
|  5>   LocMet NewBoys
|  6>   Occ true
|  7> end
|  8> 
|  9> %method
| 10>   exchange None
| 11>   correlation gga_c_pbe
| 12> end
| 13> 
| 14> %elprop
| 15>   Dipole true
| 16>   Quadrupole true
| 17> end
| 18> 
| 19> * xyz 0 1
| 20> C    0.000000000000   0.154560000000   0.000000000000
| 21> C    1.073776000000  -0.892748000000   0.000000000000
| 22> O    0.166384000000   1.360084000000   0.000000000000
| 23> O   -1.236449000000  -0.415036000000   0.000000000000
| 24> H   -1.867646000000   0.333582000000   0.000000000000
| 25> H    2.048189000000  -0.408135000000   0.000000000000
| 26> H    0.968661000000  -1.528353000000   0.881747000000
| 27> H    0.968661000000  -1.528353000000  -0.881747000000
| 28> *
| 29> 
| 30> 
| 31>                          ****END OF INPUT****
================================================================================

                       ****************************
                       * Single Point Calculation *
                       ****************************

---------------------------------
CARTESIAN COORDINATES (ANGSTROEM)
---------------------------------
  C      0.000000    0.154560    0.000000
  C      1.073776   -0.892748    0.000000
  O      0.166384    1.360084    0.000000
  O     -1.236449   -0.415036    0.000000
  H     -1.867646    0.333582    0.000000
  H      2.048189   -0.408135    0.000000
  H      0.968661   -1.528353    0.881747
  H      0.968661   -1.528353   -0.881747

----------------------------
CARTESIAN COORDINATES (A.U.)
----------------------------
  NO LB      ZA    FRAG     MASS         X           Y           Z
   0 C     6.0000    0    12.011    0.000000    0.292076    0.000000
   1 C     6.0000    0    12.011    2.029143   -1.687049    0.000000
   2 O     8.0000    0    15.999    0.314420    2.570186    0.000000
   3 O     8.0000    0    15.999   -2.336550   -0.784304    0.000000
   4 H     1.0000    0     1.008   -3.529339    0.630379    0.000000
   5 H     1.0000    0     1.008    3.870516   -0.771263    0.000000
   6 H     1.0000    0     1.008    1.830504   -2.888169    1.666260
   7 H     1.0000    0     1.008    1.830504   -2.888169   -1.666260

--------------------------------
INTERNAL COORDINATES (ANGSTROEM)
--------------------------------
 C      0   0   0     0.000000000000     0.00000000     0.00000000
 C      1   0   0     1.499949647502     0.00000000     0.00000000
 O      1   2   0     1.216951827326   126.42686784     0.00000000
 O      1   2   3     1.361339683113   110.98078396   180.00000000
 H      4   1   2     0.979203024267   105.40175469   180.00000085
 H      2   1   3     1.088269476893   109.27200725     0.00000000
 H      2   1   3     1.092025938913   109.72406365   120.93315147
 H      2   1   3     1.092025938913   109.72406365   239.06684853

---------------------------
INTERNAL COORDINATES (A.U.)
---------------------------
 C      0   0   0     0.000000000000     0.00000000     0.00000000
 C      1   0   0     2.834494048450     0.00000000     0.00000000
 O      1   2   0     2.299705671821   126.42686784     0.00000000
 O      1   2   3     2.572559176322   110.98078396   180.00000000
 H      4   1   2     1.850425545371   105.40175469   180.00000085
 H      2   1   3     2.056531271234   109.27200725     0.00000000
 H      2   1   3     2.063629955684   109.72406365   120.93315147
 H      2   1   3     2.063629955684   109.72406365   239.06684853

---------------------
BASIS SET INFORMATION
---------------------
There are 3 groups of distinct atoms

 Group   1 Type C   : 11s6p2d1f contracted to 4s3p2d1f pattern {7211/411/11/1}
 Group   2 Type O   : 11s6p2d1f contracted to 4s3p2d1f pattern {7211/411/11/1}
 Group   3 Type H   : 6s2p1d contracted to 3s2p1d pattern {411/11/1}

Atom   0C    basis set group =>   1
Atom   1C    basis set group =>   1
Atom   2O    basis set group =>   2
Atom   3O    basis set group =>   2
Atom   4H    basis set group =>   3
Atom   5H    basis set group =>   3
Atom   6H    basis set group =>   3
Atom   7H    basis set group =>   3


           ************************************************************
           *        Program running with 8 parallel MPI-processes     *
           *              working on a common directory               *
           ************************************************************
------------------------------------------------------------------------------
                             ORCA STARTUP CALCULATIONS
------------------------------------------------------------------------------
------------------------------------------------------------------------------
                   ___                                                        
                  /   \      - P O W E R E D   B Y -                         
                 /     \                                                     
                 |  |  |   _    _      __       _____    __    __             
                 |  |  |  | |  | |    /  \     |  _  \  |  |  /  |          
                  \  \/   | |  | |   /    \    | | | |  |  | /  /          
                 / \  \   | |__| |  /  /\  \   | |_| |  |  |/  /          
                |  |  |   |  __  | /  /__\  \  |    /   |      \           
                |  |  |   | |  | | |   __   |  |    \   |  |\   \          
                \     /   | |  | | |  |  |  |  | |\  \  |  | \   \       
                 \___/    |_|  |_| |__|  |__|  |_| \__\ |__|  \__/        
                                                                              
                      - O R C A' S   B I G   F R I E N D -                    
                                      &                                       
                       - I N T E G R A L  F E E D E R -                       
                                                                              
 v1 FN, 2020, v2 2021, v3 2022-2024                                           
------------------------------------------------------------------------------


----------------------
SHARK INTEGRAL PACKAGE
----------------------

Number of atoms                             ...      8
Number of basis functions                   ...    176
Number of shells                            ...     64
Maximum angular momentum                    ...      3
Integral batch strategy                     ... SHARK/LIBINT Hybrid
RI-J (if used) integral strategy            ... SPLIT-RIJ (Revised 2003 algorithm where possible)
Printlevel                                  ...      1
Contraction scheme used                     ... SEGMENTED contraction
Prescreening option                         ... SCHWARTZ
   Thresh                                   ... 2.500e-11
   Tcut                                     ... 2.500e-12
   Tpresel                                  ... 2.500e-12 
Coulomb Range Separation                    ... NOT USED
Exchange Range Separation                   ... NOT USED
Multipole approximations                    ... NOT USED
Finite Nucleus Model                        ... NOT USED
CABS basis                                  ... NOT available
Auxiliary Coulomb fitting basis             ... NOT available
Auxiliary J/K fitting basis                 ... NOT available
Auxiliary Correlation fitting basis         ... NOT available
Auxiliary 'external' fitting basis          ... NOT available

Checking pre-screening integrals            ... done (  0.0 sec) Dimension = 64
   => SHARK Basis and OBASIS are compatible. Storing Pre-screening
Shell pair information
Shell pair cut-off parameter TPreSel        ...   2.5e-12
Total number of shell pairs                 ...      2080
Shell pairs after pre-screening             ...      2055
Total number of primitive shell pairs       ...      6922
Primitive shell pairs kept                  ...      5575
          la=0 lb=0:    403 shell pairs
          la=1 lb=0:    551 shell pairs
          la=1 lb=1:    207 shell pairs
          la=2 lb=0:    332 shell pairs
          la=2 lb=1:    235 shell pairs
          la=2 lb=2:     77 shell pairs
          la=3 lb=0:    112 shell pairs
          la=3 lb=1:     80 shell pairs
          la=3 lb=2:     48 shell pairs
          la=3 lb=3:     10 shell pairs

Checking whether 4 symmetric matrices of dimension 176 fit in memory
:Max Core in MB      =   4096.00
 MB in use           =      4.63
 MB left             =   4091.37
 MB needed           =      0.48
 Data fit in memory  = YES
Calculating Nuclear repulsion               ... done (  0.0 sec) ENN=    120.693288504615 Eh

Diagonalization of the overlap matrix:
Smallest eigenvalue                        ... 5.081e-04
Time for diagonalization                   ...    0.002 sec
Threshold for overlap eigenvalues          ... 1.000e-07
Number of eigenvalues below threshold      ... 0
Time for construction of square roots      ...    0.002 sec
Total time needed                          ...    0.007 sec

-------------------
DFT GRID GENERATION
-------------------

General Integration Accuracy     IntAcc      ... 4.388
Radial Grid Type                 RadialGrid  ... OptM3 with GC (2021)
Angular Grid (max. ang.)         AngularGrid ... 4 (Lebedev-302)
Angular grid pruning method      GridPruning ... 4 (adaptive)
Weight generation scheme         WeightScheme... mBecke (2022)
Basis function cutoff            BFCut       ... 1.0000e-11
Integration weight cutoff        WCut        ... 1.0000e-14
Partially contracted basis set               ... off
Rotationally invariant grid construction     ... off
Angular grids for H and He will be reduced by one unit
Diffuse basis detected: some atoms will have their outermost
                        angular grid increased by 1.

Total number of grid points                  ...    38011
Total number of batches                      ...      598
Average number of points per batch           ...       63
Average number of grid points per atom       ...     4751
Grids setup in   0.1 sec
Initializing property integral containers    ... done (  0.0 sec)

SHARK setup successfully completed in   0.2 seconds

Maximum memory used throughout the entire STARTUP-calculation: 14.0 MB


           ************************************************************
           *        Program running with 8 parallel MPI-processes     *
           *              working on a common directory               *
           ************************************************************
-------------------------------------------------------------------------------
                                 ORCA GUESS
                   Start orbitals & Density for SCF / CASSCF
-------------------------------------------------------------------------------

------------
SCF SETTINGS
------------
Hamiltonian:
 Density Functional     Method          .... DFT(GTOs)
 Exchange Functional    Exchange        .... no Exchange
  Functional kind                       .... Correlation
  Functional name                       .... Perdew, Burke & Ernzerhof
  Functional family                     .... GGA
  Functional refs                              
    [ 0] J. P. Perdew, K. Burke, and M. Ernzerhof.,  Phys. Rev. Lett. 77, 3865 (1996), doi: 10.1103/PhysRevLett.77.3865
    [ 1] J. P. Perdew, K. Burke, and M. Ernzerhof.,  Phys. Rev. Lett. 78, 1396 (1997), doi: 10.1103/PhysRevLett.78.1396
  Functional external parameters        .... 3
    Parameter  0 _beta      =  6.672455e-02 : beta constant       
    Parameter  1 _gamma     =  3.109069e-02 : (1 - ln(2))/Pi^2 in the PBE
    Parameter  2 _B         =  1.000000e+00 : Multiplies the A t^2 term. Used in the SPBE functional
 Gradients option       PostSCFGGA      .... off


General Settings:
 Integral files         IntName         .... /cluster/projects/nn14654k/ylvaos/basis_set_n_funcs/functionals/gga_c_pbe/CH3COOH/inp/CH3COOH_gga_c_pbe_pcseg2
 Hartree-Fock type      HFTyp           .... RHF
 Total Charge           Charge          ....    0
 Multiplicity           Mult            ....    1
 Number of Electrons    NEL             ....   32
 Basis Dimension        Dim             ....  176
 Nuclear Repulsion      ENuc            ....    120.6932885046 Eh

Convergence Acceleration:
 AO-DIIS                CNVDIIS         .... on
   Start iteration      DIISMaxIt       ....    12
   Startup error        DIISStart       ....  0.200000
   # of expansion vecs  DIISMaxEq       ....     5
   Bias factor          DIISBfac        ....   1.050
   Max. coefficient     DIISMaxC        ....  10.000
 MO-DIIS                CNVKDIIS        .... off
 Trust-Rad. Augm. Hess. CNVTRAH         .... auto
   Auto Start mean grad. ratio tolernc. ....  1.125000
   Auto Start start iteration           ....    50
   Auto Start num. interpolation iter.  ....    10
   Max. Number of Micro iterations      ....    24
   Max. Number of Macro iterations      .... Maxiter - #DIIS iter
   Number of Davidson start vectors     ....     2
   Converg. threshold    (grad. norm)   ....   1.000e-05
   Grad. Scal. Fac. for Micro threshold ....   0.100
   Minimum threshold for Micro iter.    ....   1.000e-02
   NR start threshold (gradient norm)   ....   1.000e-04
   Initial trust radius                 ....   0.400
   Minimum AH scaling param. (alpha)    ....   1.000
   Maximum AH scaling param. (alpha)    .... 1000.000
   Quad. conv. algorithm                .... NR
   White noise on init. David. guess    .... on
   Maximum white noise                  ....   0.010
   Pseudo random numbers                .... off
   Inactive MOs                         .... canonical
   Orbital update algorithm             .... Taylor
   Preconditioner                       .... Diag
   Full preconditioner red. dimension   ....   250
 SOSCF                 CNVSOSCF           .... on
   Start iteration     SOSCFMaxIt         ....   150
   Startup grad/error  SOSCFStart         ....  0.003300
   Hessian update      SOSCFHessUp        .... L-BFGS
   Autom. constraints  SOSCFAutoConstrain .... off
 Level Shifting         CNVShift        .... on
   Level shift para.    LevelShift      ....    0.2500
   Turn off err/grad.   ShiftErr        ....    0.0010
 Zerner damping         CNVZerner       .... off
 Static damping         CNVDamp         .... on
   Fraction old density DampFac         ....    0.7000
   Max. Damping (<1)    DampMax         ....    0.9800
   Min. Damping (>=0)   DampMin         ....    0.0000
   Turn off err/grad.   DampErr         ....    0.1000

SCF Procedure:
 Maximum # iterations   MaxIter         ....   125
 SCF integral mode      SCFMode         .... Direct
   Integral package                     .... SHARK and LIBINT hybrid scheme
 Reset frequency        DirectResetFreq ....    20
 Integral Threshold     Thresh          ....  2.500e-11 Eh
 Primitive CutOff       TCut            ....  2.500e-12 Eh

Convergence Tolerance:
 Convergence Check Mode ConvCheckMode   .... Total+1el-Energy
 Convergence forced     ConvForced      .... 0
 Energy Change          TolE            ....  1.000e-08 Eh
 1-El. energy change                    ....  1.000e-05 Eh
 Orbital Gradient       TolG            ....  1.000e-05
 Orbital Rotation angle TolX            ....  1.000e-05
 DIIS Error             TolErr          ....  5.000e-07

------------------------------
INITIAL GUESS: MODEL POTENTIAL
------------------------------
Loading Hartree-Fock densities                     ... done
Calculating cut-offs                               ... done
Initializing the effective Hamiltonian             ... done
Setting up the integral package (SHARK)            ... done
Starting the Coulomb interaction                   ... done (   0.0 sec)
Making the grid                                    ... done (   0.0 sec)
Mapping shells                                     ... done
Starting the XC term evaluation                    ... done (   0.0 sec)
  promolecular density results
     # of electrons  =     31.996961635
     EX              =      0.000000000
     EC              =     -1.055039526
     EX+EC           =     -1.055039526
Transforming the Hamiltonian                       ... done (   0.0 sec)
Diagonalizing the Hamiltonian                      ... done (   0.0 sec)
Back transforming the eigenvectors                 ... done (   0.0 sec)
Now organizing SCF variables                       ... done
                      ------------------
                      INITIAL GUESS DONE (   0.1 sec)
                      ------------------
             **** ENERGY FILE WAS UPDATED (/cluster/projects/nn14654k/ylvaos/basis_set_n_funcs/functionals/gga_c_pbe/CH3COOH/inp/CH3COOH_gga_c_pbe_pcseg2.en.tmp) ****
Finished Guess after   0.2 sec
Maximum memory used throughout the entire GUESS-calculation: 9.0 MB


           ************************************************************
           *        Program running with 8 parallel MPI-processes     *
           *              working on a common directory               *
           ************************************************************

-------------------------------------------------------------------------------------------
                                      ORCA LEAN-SCF
                              memory conserving SCF solver
-------------------------------------------------------------------------------------------

----------------------------------------D-I-I-S--------------------------------------------
Iteration    Energy (Eh)           Delta-E    RMSDP     MaxDP     DIISErr   Damp  Time(sec)
-------------------------------------------------------------------------------------------
               ***  Starting incremental Fock matrix formation  ***
    1    -197.0745402295061126     0.00e+00  3.53e-01  1.02e+01  9.67e-01  0.700   0.6
Warning: op=0 Small HOMO/LUMO gap (  -1.144) - skipping pre-diagonalization
         LevelShift set to 1.000 Eh
         Will do a full diagonalization
    2    -198.9168830052701082    -1.84e+00  2.48e-01  7.19e+00  2.90e-01  0.700   0.4
    3    -199.5981631227081721    -6.81e-01  1.73e-01  5.03e+00  2.34e-01  0.700   0.4
    4    -200.0773473092013433    -4.79e-01  1.21e-01  3.50e+00  2.32e-01  0.700   0.3
                               ***Turning on AO-DIIS***
    5    -200.4801563891983847    -4.03e-01  8.42e-02  2.44e+00  1.71e-01  0.700   0.4
    6    -200.7551193376721699    -2.75e-01  5.85e-02  1.68e+00  1.56e-01  0.700   0.4
    7    -200.9513099057743375    -1.96e-01  4.03e-02  1.14e+00  1.50e-01  0.700   0.4
    8    -201.1109888999778263    -1.60e-01  2.74e-02  7.40e-01  1.45e-01  0.700   0.4
    9    -201.2407003320465151    -1.30e-01  1.88e-02  4.72e-01  1.16e-01  0.700   0.4
   10    -201.3310005576354342    -9.03e-02  1.31e-02  3.00e-01  8.17e-02  0.700   0.4
   11    -201.3930852081896319    -6.21e-02  3.11e-02  6.31e-01  5.50e-02  0.000   0.3
   12    -201.5313015659842222    -1.38e-01  3.15e-03  4.10e-02  1.05e-02  0.000   0.4
   13    -201.5327171736076934    -1.42e-03  2.14e-03  2.72e-02  7.81e-03  0.000   0.3
   14    -201.5335493739430603    -8.32e-04  1.59e-03  2.31e-02  7.69e-03  0.000   0.7
   15    -201.5340159682803005    -4.67e-04  1.31e-03  2.05e-02  7.22e-03  0.000   0.3
   16    -201.5343232998575331    -3.07e-04  1.17e-03  1.88e-02  6.51e-03  0.000   0.3
   17    -201.5345581507309589    -2.35e-04  9.38e-04  1.48e-02  5.07e-03  0.000   0.3
   18    -201.5346983451382243    -1.40e-04  8.14e-04  1.31e-02  4.94e-03  0.000   0.4
   19    -201.5348033355625148    -1.05e-04  7.11e-04  1.12e-02  4.41e-03  0.000   0.3
   20    -201.5348809880194381    -7.77e-05  6.25e-04  1.01e-02  3.98e-03  0.000   0.4
               *** Restarting incremental Fock matrix formation ***
                             ****Resetting DIIS****
Warning: op=0 Small HOMO/LUMO gap (   0.069) - skipping pre-diagonalization
         Will do a full diagonalization
   21    -201.5349420134480170    -6.10e-05  5.62e-03  9.78e-02  3.39e-03  0.000   0.4
   22    -201.5349061351015507     3.59e-05  9.92e-04  2.18e-02  1.25e-02  0.000   0.4
   23    -201.5350899048904125    -1.84e-04  4.82e-04  8.14e-03  4.18e-03  0.000   0.3
   24    -201.5351172205748753    -2.73e-05  3.38e-04  5.89e-03  3.47e-03  0.000   0.3
                              *** Initializing SOSCF ***
---------------------------------------S-O-S-C-F--------------------------------------
Iteration    Energy (Eh)           Delta-E    RMSDP     MaxDP     MaxGrad    Time(sec)
--------------------------------------------------------------------------------------
   25    -201.5351317025205162    -1.45e-05  1.55e-04  2.43e-03  1.40e-03     0.3
               *** Restarting incremental Fock matrix formation ***
   26    -201.5351345724354246    -2.87e-06  2.76e-04  5.36e-03  2.57e-04     0.3
   27    -201.5351283914013720     6.18e-06  1.88e-04  4.07e-03  1.00e-03     0.3
   28    -201.5351351560424291    -6.76e-06  4.60e-05  4.79e-04  7.86e-05     0.5
   29    -201.5351346202660352     5.36e-07  2.97e-05  2.75e-04  1.86e-04     0.3
   30    -201.5351352765174511    -6.56e-07  1.71e-05  2.98e-04  1.29e-05     0.3
   31    -201.5351352658961446     1.06e-08  1.11e-05  2.26e-04  3.16e-05     0.3
   32    -201.5351352798818425    -1.40e-08  3.22e-06  3.27e-05  4.72e-06     0.3
   33    -201.5351352799068536    -2.50e-11  1.74e-06  1.70e-05  5.01e-06     0.3
                 **** Energy Check signals convergence ****

               *****************************************************
               *                     SUCCESS                       *
               *           SCF CONVERGED AFTER  33 CYCLES          *
               *****************************************************

             **** ENERGY FILE WAS UPDATED (/cluster/projects/nn14654k/ylvaos/basis_set_n_funcs/functionals/gga_c_pbe/CH3COOH/inp/CH3COOH_gga_c_pbe_pcseg2.en.tmp) ****

----------------
TOTAL SCF ENERGY
----------------

Total Energy       :       -201.53513528029396 Eh           -5484.04983 eV

Components:
Nuclear Repulsion  :        120.69328850461517 Eh            3284.23135 eV
Electronic Energy  :       -322.22842378490913 Eh           -8768.28118 eV
One Electron Energy:       -538.88231509949935 Eh          -14663.73328 eV
Two Electron Energy:        216.65389131459023 Eh            5895.45210 eV

Virial components:
Potential Energy   :       -417.30254373678758 Eh          -11355.37951 eV
Kinetic Energy     :        215.76740845649365 Eh            5871.32968 eV
Virial Ratio       :          1.93403881856852

DFT components:
N(Alpha)           :       16.000038822728 electrons
N(Beta)            :       16.000038822728 electrons
N(Total)           :       32.000077645456 electrons
E(X)               :        0.000000000000 Eh       
E(C)               :       -1.037002112604 Eh       
E(XC)              :       -1.037002112604 Eh       

---------------
SCF CONVERGENCE
---------------

  Last Energy change         ...    2.5011e-11  Tolerance :   1.0000e-08
  Last MAX-Density change    ...    1.6971e-05  Tolerance :   1.0000e-07
  Last RMS-Density change    ...    1.7419e-06  Tolerance :   5.0000e-09
  Last DIIS Error            ...    1.3982e-03  Tolerance :   5.0000e-07
  Last Orbital Gradient      ...    5.0128e-06  Tolerance :   1.0000e-05
  Last Orbital Rotation      ...    7.5948e-06  Tolerance :   1.0000e-05


----------------
ORBITAL ENERGIES
----------------

  NO   OCC          E(Eh)            E(eV) 
   0   2.0000     -16.631712      -452.5719 
   1   2.0000     -16.594776      -451.5668 
   2   2.0000      -8.306419      -226.0291 
   3   2.0000      -8.220925      -223.7028 
   4   2.0000      -0.687506       -18.7080 
   5   2.0000      -0.593523       -16.1506 
   6   2.0000      -0.401989       -10.9387 
   7   2.0000      -0.259188        -7.0529 
   8   2.0000      -0.188588        -5.1317 
   9   2.0000      -0.170112        -4.6290 
  10   2.0000      -0.144781        -3.9397 
  11   2.0000      -0.097794        -2.6611 
  12   2.0000      -0.088518        -2.4087 
  13   2.0000      -0.067075        -1.8252 
  14   2.0000      -0.021607        -0.5879 
  15   2.0000       0.024491         0.6664 
  16   0.0000       0.097042         2.6406 
  17   0.0000       0.131650         3.5824 
  18   0.0000       0.148969         4.0537 
  19   0.0000       0.159976         4.3532 
  20   0.0000       0.200676         5.4607 
  21   0.0000       0.211188         5.7467 
  22   0.0000       0.253121         6.8878 
  23   0.0000       0.269612         7.3365 
  24   0.0000       0.277043         7.5387 
  25   0.0000       0.283560         7.7161 
  26   0.0000       0.304246         8.2789 
*Only the first 10 virtual orbitals were printed.

                    ********************************
                    * MULLIKEN POPULATION ANALYSIS *
                    ********************************

-----------------------
MULLIKEN ATOMIC CHARGES
-----------------------
   0 C :   -0.185974
   1 C :    0.075643
   2 O :    0.013420
   3 O :    0.073182
   4 H :   -0.077634
   5 H :   -0.000110
   6 H :    0.050736
   7 H :    0.050736
Sum of atomic charges:   -0.0000000

--------------------------------
MULLIKEN REDUCED ORBITAL CHARGES
--------------------------------
  0 C s       :     2.738743  s :     2.738743
      pz      :     0.964729  p :     3.210546
      px      :     1.081412
      py      :     1.164405
      dz2     :     0.001705  d :     0.230370
      dxz     :     0.028538
      dyz     :     0.043323
      dx2y2   :     0.056000
      dxy     :     0.100804
      f0      :     0.001037  f :     0.006314
      f+1     :     0.000968
      f-1     :     0.001329
      f+2     :     0.001247
      f-2     :     0.000592
      f+3     :     0.002319
      f-3     :    -0.001177

  1 C s       :     2.630461  s :     2.630461
      pz      :     1.105408  p :     3.272776
      px      :     1.065313
      py      :     1.102055
      dz2     :     0.003284  d :     0.023427
      dxz     :     0.002860
      dyz     :     0.003998
      dx2y2   :     0.005187
      dxy     :     0.008099
      f0      :     0.000112  f :    -0.002307
      f+1     :    -0.000001
      f-1     :    -0.001591
      f+2     :    -0.000096
      f-2     :     0.000142
      f+3     :    -0.000054
      f-3     :    -0.000820

  2 O s       :     3.514279  s :     3.514279
      pz      :     1.324490  p :     4.440678
      px      :     1.596129
      py      :     1.520059
      dz2     :     0.002406  d :     0.029543
      dxz     :     0.000427
      dyz     :     0.010509
      dx2y2   :     0.007599
      dxy     :     0.008603
      f0      :     0.000266  f :     0.002080
      f+1     :     0.000054
      f-1     :    -0.000046
      f+2     :     0.000578
      f-2     :     0.000059
      f+3     :     0.000835
      f-3     :     0.000335

  3 O s       :     3.455664  s :     3.455664
      pz      :     1.639630  p :     4.445235
      px      :     1.274225
      py      :     1.531380
      dz2     :     0.002835  d :     0.024823
      dxz     :     0.003181
      dyz     :     0.002956
      dx2y2   :     0.006073
      dxy     :     0.009778
      f0      :     0.000311  f :     0.001096
      f+1     :     0.000369
      f-1     :     0.000071
      f+2     :     0.000108
      f-2     :     0.000149
      f+3     :     0.000249
      f-3     :    -0.000161

  4 H s       :     0.972058  s :     0.972058
      pz      :     0.024318  p :     0.099290
      px      :     0.033834
      py      :     0.041138
      dz2     :     0.000923  d :     0.006287
      dxz     :     0.000625
      dyz     :     0.000711
      dx2y2   :     0.001264
      dxy     :     0.002764

  5 H s       :     0.966079  s :     0.966079
      pz      :     0.004174  p :     0.033442
      px      :     0.022398
      py      :     0.006870
      dz2     :    -0.000029  d :     0.000589
      dxz     :     0.000174
      dyz     :     0.000072
      dx2y2   :     0.000304
      dxy     :     0.000068

  6 H s       :     0.910063  s :     0.910063
      pz      :     0.017838  p :     0.038460
      px      :     0.004373
      py      :     0.016249
      dz2     :     0.000267  d :     0.000741
      dxz     :     0.000195
      dyz     :     0.000059
      dx2y2   :     0.000122
      dxy     :     0.000098

  7 H s       :     0.910063  s :     0.910063
      pz      :     0.017838  p :     0.038460
      px      :     0.004373
      py      :     0.016249
      dz2     :     0.000267  d :     0.000741
      dxz     :     0.000195
      dyz     :     0.000059
      dx2y2   :     0.000122
      dxy     :     0.000098



                     *******************************
                     * LOEWDIN POPULATION ANALYSIS *
                     *******************************

----------------------
LOEWDIN ATOMIC CHARGES
----------------------
   0 C :   -0.392583
   1 C :    0.020447
   2 O :    0.171927
   3 O :    0.381084
   4 H :   -0.203879
   5 H :   -0.005931
   6 H :    0.014467
   7 H :    0.014467

-------------------------------
LOEWDIN REDUCED ORBITAL CHARGES
-------------------------------
  0 C s       :     2.743606  s :     2.743606
      pz      :     0.854428  p :     2.934313
      px      :     0.973889
      py      :     1.105997
      dz2     :     0.033591  d :     0.646467
      dxz     :     0.079227
      dyz     :     0.115681
      dx2y2   :     0.167796
      dxy     :     0.250172
      f0      :     0.002478  f :     0.068196
      f+1     :     0.002995
      f-1     :     0.005451
      f+2     :     0.011091
      f-2     :     0.004412
      f+3     :     0.027856
      f-3     :     0.013912

  1 C s       :     2.698157  s :     2.698157
      pz      :     1.065873  p :     3.138322
      px      :     1.032956
      py      :     1.039492
      dz2     :     0.022327  d :     0.131089
      dxz     :     0.009684
      dyz     :     0.032505
      dx2y2   :     0.029468
      dxy     :     0.037104
      f0      :     0.000724  f :     0.011985
      f+1     :     0.001911
      f-1     :     0.001998
      f+2     :     0.001440
      f-2     :     0.001139
      f+3     :     0.002117
      f-3     :     0.002655

  2 O s       :     3.381327  s :     3.381327
      pz      :     1.315106  p :     4.362341
      px      :     1.536560
      py      :     1.510675
      dz2     :     0.007907  d :     0.070848
      dxz     :     0.000866
      dyz     :     0.015663
      dx2y2   :     0.022512
      dxy     :     0.023901
      f0      :     0.000945  f :     0.013556
      f+1     :     0.000373
      f-1     :     0.002179
      f+2     :     0.001458
      f-2     :     0.000218
      f+3     :     0.004394
      f-3     :     0.003990

  3 O s       :     3.233185  s :     3.233185
      pz      :     1.540404  p :     4.308617
      px      :     1.244428
      py      :     1.523784
      dz2     :     0.008263  d :     0.067016
      dxz     :     0.009585
      dyz     :     0.003230
      dx2y2   :     0.017487
      dxy     :     0.028450
      f0      :     0.000865  f :     0.010098
      f+1     :     0.001022
      f-1     :     0.000448
      f+2     :     0.000433
      f-2     :     0.001001
      f+3     :     0.003724
      f-3     :     0.002605

  4 H s       :     0.835857  s :     0.835857
      pz      :     0.090458  p :     0.310893
      px      :     0.092701
      py      :     0.127734
      dz2     :     0.004808  d :     0.057129
      dxz     :     0.008046
      dyz     :     0.010430
      dx2y2   :     0.018263
      dxy     :     0.015581

  5 H s       :     0.859548  s :     0.859548
      pz      :     0.039350  p :     0.128080
      px      :     0.051496
      py      :     0.037234
      dz2     :     0.001564  d :     0.018302
      dxz     :     0.004455
      dyz     :     0.001338
      dx2y2   :     0.005865
      dxy     :     0.005081

  6 H s       :     0.834129  s :     0.834129
      pz      :     0.045247  p :     0.133234
      px      :     0.039005
      py      :     0.048982
      dz2     :     0.005520  d :     0.018170
      dxz     :     0.003677
      dyz     :     0.004753
      dx2y2   :     0.001904
      dxy     :     0.002316

  7 H s       :     0.834129  s :     0.834129
      pz      :     0.045247  p :     0.133234
      px      :     0.039005
      py      :     0.048982
      dz2     :     0.005520  d :     0.018170
      dxz     :     0.003677
      dyz     :     0.004753
      dx2y2   :     0.001904
      dxy     :     0.002316



                      *****************************
                      * MAYER POPULATION ANALYSIS *
                      *****************************

  NA   - Mulliken gross atomic population
  ZA   - Total nuclear charge
  QA   - Mulliken gross atomic charge
  VA   - Mayer's total valence
  BVA  - Mayer's bonded valence
  FA   - Mayer's free valence

  ATOM       NA         ZA         QA         VA         BVA        FA
  0 C      6.1860     6.0000    -0.1860     4.6376     4.6376    -0.0000
  1 C      5.9244     6.0000     0.0756     3.4078     3.4078     0.0000
  2 O      7.9866     8.0000     0.0134     2.6885     2.6885    -0.0000
  3 O      7.9268     8.0000     0.0732     2.4168     2.4168    -0.0000
  4 H      1.0776     1.0000    -0.0776     1.3553     1.3553     0.0000
  5 H      1.0001     1.0000    -0.0001     1.0414     1.0414     0.0000
  6 H      0.9493     1.0000     0.0507     0.9662     0.9662     0.0000
  7 H      0.9493     1.0000     0.0507     0.9662     0.9662     0.0000

  Mayer bond orders larger than 0.100000
B(  0-C ,  1-C ) :   0.6706 B(  0-C ,  2-O ) :   2.4739 B(  0-C ,  3-O ) :   1.4686 
B(  1-C ,  2-O ) :  -0.1002 B(  1-C ,  5-H ) :   1.0002 B(  1-C ,  6-H ) :   0.9119 
B(  1-C ,  7-H ) :   0.9119 B(  2-O ,  4-H ) :   0.2068 B(  3-O ,  4-H ) :   1.0047 


-------
TIMINGS
-------

Total SCF time: 0 days 0 hours 0 min 12 sec 

Total time                  ....      12.525 sec
Sum of individual times     ....      12.201 sec  ( 97.4%)

SCF preparation             ....       0.064 sec  (  0.5%)
Fock matrix formation       ....      10.980 sec  ( 87.7%)
  Startup                   ....       0.017 sec  (  0.2% of F)
  Coulomb formation         ....       8.509 sec  ( 77.5% of F)
  XC integration            ....       1.733 sec  ( 15.8% of F)
    XC Preparation          ....       0.000 sec  (  0.0% of XC)
    Basis function eval.    ....       0.243 sec  ( 14.0% of XC)
    Density eval.           ....       0.180 sec  ( 10.4% of XC)
    XC-Functional eval.     ....       0.057 sec  (  3.3% of XC)
    XC-Potential eval.      ....       0.335 sec  ( 19.3% of XC)
Diagonalization             ....       0.000 sec  (  0.0%)
Density matrix formation    ....       0.178 sec  (  1.4%)
Total Energy calculation    ....       0.049 sec  (  0.4%)
Population analysis         ....       0.012 sec  (  0.1%)
Orbital Transformation      ....       0.019 sec  (  0.2%)
Orbital Orthonormalization  ....       0.000 sec  (  0.0%)
DIIS solution               ....       0.738 sec  (  5.9%)
SOSCF solution              ....       0.161 sec  (  1.3%)
Finished LeanSCF after  12.6 sec

Maximum memory used throughout the entire LEANSCF-calculation: 16.1 MB


           ************************************************************
           *        Program running with 8 parallel MPI-processes     *
           *              working on a common directory               *
           ************************************************************

------------------------------------------------------------------------------
                         ORCA PROPERTY INTEGRAL CALCULATIONS
------------------------------------------------------------------------------

GBWName                                   ... /cluster/projects/nn14654k/ylvaos/basis_set_n_funcs/functionals/gga_c_pbe/CH3COOH/inp/CH3COOH_gga_c_pbe_pcseg2.gbw
Number of atoms                           ...      8
Number of basis functions                 ...    176
Max core memory                           ...   4096 MB

Dipole integrals                          ... YES
Quadrupole integrals                      ... YES
Linear momentum integrals                 ...  NO
Angular momentum integrals                ...  NO
Higher moments length integrals           ...  NO
Higher moments velocity integrals         ...  NO
Kinetic energy integrals                  ...  NO
GIAO right hand sides                     ...  NO
GIAO dipole derivative integrals          ...  NO
SOC integrals                             ...  NO
EPR diamagnetic integrals (GIAO)          ...  NO
EPR gauge integrals                       ...  NO
Field gradient integrals                  ...  NO (   0 nuclei)
Spin-dipole/Fermi contact integrals       ...  NO (   0 nuclei)
Contact density integrals                 ...  NO (   0 nuclei)
Nucleus-orbit integrals                   ...  NO (   0 nuclei)
Geometric perturbations                   ...  NO (   8 nuclei)

Choice of electric origin   ... Center of mass
Position of electric origin ... ( -0.0657,  0.0975,  0.0000) 
Choice of magnetic origin   ... GIAO
Position of magnetic origin ... (  0.0000,  0.0000,  0.0000) 

Calculating integrals                     ... Electric Dipole (Length)     done (  0.0 sec)
Calculating integrals                     ... Electric Quadrupole (Length) done (  0.0 sec)

Property integrals calculated in   0.0 sec

Maximum memory used throughout the entire PROPINT-calculation: 9.7 MB
------------------------------------------------------------------------------
                           ORCA ORBITAL LOCALIZATION
------------------------------------------------------------------------------

Input orbitals are from                  ... /cluster/projects/nn14654k/ylvaos/basis_set_n_funcs/functionals/gga_c_pbe/CH3COOH/inp/CH3COOH_gga_c_pbe_pcseg2.gbw
Output orbitals are to                   ... /cluster/projects/nn14654k/ylvaos/basis_set_n_funcs/functionals/gga_c_pbe/CH3COOH/inp/CH3COOH_gga_c_pbe_pcseg2.loc
Max. number of iterations                ... 128
Localizations seeded randomly            ... on
Convergence tolerance                    ... 1.000e-06
Threshold for strong local MOs           ... 9.500e-01
Threshold for bond MOs                   ... 8.500e-01
Operator                                 ... 0
Orbital range for localization           ... 4 to 15
Localization criterion                   ... NEW-BOYS
Doing the dipole integrals               ... o.k.
Initial value of the localization sum :    61.255445
ITERATION   0 : L=   80.2291907811 DL=  1.90e+01 (AVERGE_DL)=    0.5361725427 
ITERATION   1 : L=   82.8278583369 DL=  2.60e+00 (AVERGE_DL)=    0.1984282007 
ITERATION   2 : L=   83.1240173107 DL=  2.96e-01 (AVERGE_DL)=    0.0669869926 
ITERATION   3 : L=   83.1913511130 DL=  6.73e-02 (AVERGE_DL)=    0.0319407127 
ITERATION   4 : L=   83.2054972659 DL=  1.41e-02 (AVERGE_DL)=    0.0146402066 
ITERATION   5 : L=   83.2095572012 DL=  4.06e-03 (AVERGE_DL)=    0.0078430970 
ITERATION   6 : L=   83.2114135426 DL=  1.86e-03 (AVERGE_DL)=    0.0053034315 
ITERATION   7 : L=   83.2124736573 DL=  1.06e-03 (AVERGE_DL)=    0.0040077854 
ITERATION   8 : L=   83.2131249391 DL=  6.51e-04 (AVERGE_DL)=    0.0031413222 
ITERATION   9 : L=   83.2135324285 DL=  4.07e-04 (AVERGE_DL)=    0.0024847701 
ITERATION  10 : L=   83.2137888664 DL=  2.56e-04 (AVERGE_DL)=    0.0019711477 
ITERATION  11 : L=   83.2139507062 DL=  1.62e-04 (AVERGE_DL)=    0.0015659238 
ITERATION  12 : L=   83.2140530306 DL=  1.02e-04 (AVERGE_DL)=    0.0012451388 
ITERATION  13 : L=   83.2141178080 DL=  6.48e-05 (AVERGE_DL)=    0.0009906942 
ITERATION  14 : L=   83.2141588531 DL=  4.10e-05 (AVERGE_DL)=    0.0007886041 
ITERATION  15 : L=   83.2141848771 DL=  2.60e-05 (AVERGE_DL)=    0.0006279348 
ITERATION  16 : L=   83.2142013845 DL=  1.65e-05 (AVERGE_DL)=    0.0005001120 
ITERATION  17 : L=   83.2142118594 DL=  1.05e-05 (AVERGE_DL)=    0.0003983858 
ITERATION  18 : L=   83.2142185075 DL=  6.65e-06 (AVERGE_DL)=    0.0003173788 
ITERATION  19 : L=   83.2142227278 DL=  4.22e-06 (AVERGE_DL)=    0.0002528709 
ITERATION  20 : L=   83.2142254074 DL=  2.68e-06 (AVERGE_DL)=    0.0002014914 
ITERATION  21 : L=   83.2142271090 DL=  1.70e-06 (AVERGE_DL)=    0.0001605716 
ITERATION  22 : L=   83.2142281891 DL=  1.08e-06 (AVERGE_DL)=    0.0001279252 
ITERATION  23 : L=   83.2142288753 DL=  6.86e-07 (AVERGE_DL)=    0.0001019634 
LOCALIZATION SUM CONVERGED


--------------------------------------------------------------------------------
                    LOCALIZED MOLECULAR ORBITAL COMPOSITIONS
--------------------------------------------------------------------------------

The Mulliken populations for each LMO on each atom are computed
The LMO`s will be ordered according to atom index and type
  (A) Strongly localized MO`s have populations of >=0.950 on one atom
  (B) Two center bond orbitals have populations of >=0.850 on two atoms
  (C) Other MO`s are considered to be `delocalized`

FOUND  -   0 strongly local MO`s
       -  12 two center bond MO`s
       -   0 significantly delocalized MO`s

Bond-like localized orbitals:
MO  15:   7H  -   0.495713  and   1C  -   0.493738
MO  14:   6H  -   0.495713  and   1C  -   0.493739
MO  13:   5H  -   0.502185  and   1C  -   0.540168
MO  12:   4H  -   0.434483  and   3O  -   0.587409
MO  11:   3O  -   0.774459  and   0C  -   0.253322
MO  10:   3O  -   0.899789  and   0C  -   0.082123
MO   9:   3O  -   0.775067  and   0C  -   0.252510
MO   8:   2O  -   0.808782  and   0C  -   0.155334
MO   7:   2O  -   0.694499  and   0C  -   0.338108
MO   6:   2O  -   0.851577  and   0C  -   0.153565
MO   5:   2O  -   0.694495  and   0C  -   0.338121
MO   4:   1C  -   0.484465  and   0C  -   0.516126
Localized MO's were stored in: /cluster/projects/nn14654k/ylvaos/basis_set_n_funcs/functionals/gga_c_pbe/CH3COOH/inp/CH3COOH_gga_c_pbe_pcseg2.loc

-------------------------   --------------------
FINAL SINGLE POINT ENERGY      -201.535135280294
-------------------------   --------------------



           ************************************************************
           *        Program running with 8 parallel MPI-processes     *
           *              working on a common directory               *
           ************************************************************

------------------------------------------------------------------------------
                              ORCA PROPERTY CALCULATIONS
------------------------------------------------------------------------------

GBWName                                 ... /cluster/projects/nn14654k/ylvaos/basis_set_n_funcs/functionals/gga_c_pbe/CH3COOH/inp/CH3COOH_gga_c_pbe_pcseg2.gbw
Number of atoms                         ...      8
Number of basis functions               ...    176
Max core memory                         ...   4096 MB

Electric properties:
Dipole moment                           ... YES
Quadrupole moment                       ... YES
Static polarizability (Dipole/Dipole)   ...  NO
Static polarizability (Dipole/Quad.)    ...  NO
Static polarizability (Quad./Quad.)     ...  NO
Static polarizability (Velocity)        ...  NO
Static hyperpolarizability              ...  NO

Atomic electric properties:
Dipole moment                           ...  NO
Quadrupole moment                       ...  NO
Static polarizability                   ...  NO

Choice of electric origin               ... Center of mass
Position of electric origin             ...    -0.065707     0.097461     0.000000

General magnetic properties:
Magnetizability                         ...  NO

EPR properties:
g-Tensor (aka g-matrix)                 ...  NO
Zero-Field splitting spin-orbit         ...  NO
Zero-field splitting spin-spin          ...  NO
Hyperfine couplings                     ...  NO (   0 nuclei)
Quadrupole couplings                    ...  NO (   0 nuclei)
Contact density                         ...  NO (   0 nuclei)

NMR properties:
Chemical shifts                         ...  NO (   0 nuclei)
Spin-rotation constants                 ...  NO (   0 nuclei)
Spin-spin couplings                     ...  NO (   0 nuclei,    0 pairs)

Choice of magnetic origin               ... GIAO
Position of magnetic origin             ...     0.000000     0.000000     0.000000

Properties with geometric perturbations:
SCF Hessian                             ...  NO
IR spectrum                             ...  NO
VCD spectrum                            ...  NO
X-ray spectroscopy properties:
SCF XES/XAS/RIXS spectra                ...  NO

SCF SOC stabilization energy            ...  NO
Diagonal Born-Oppenheimer correction    ...  NO

-------------
DIPOLE MOMENT
-------------

Method             : SCF
Type of density    : Electron Density
Multiplicity       :   1
Irrep              :   0
Energy             :  -201.5351352802939573 Eh
Basis              : AO
                                X                 Y                 Z
Electronic contribution:     -2.201708898       2.673543589      -0.000000038
Nuclear contribution   :      2.102617427      -3.118765285       0.000000000
                        -----------------------------------------
Total Dipole Moment    :     -0.099091471      -0.445221696      -0.000000038
                        -----------------------------------------
Magnitude (a.u.)       :      0.456115641
Magnitude (Debye)      :      1.159353825



--------------------
Rotational spectrum 
--------------------
 
Rotational constants in cm-1:             0.373252             0.316126             0.176788 
Rotational constants in MHz :         11189.819630          9477.229268          5299.974115 

Dipole components along the rotational axes: 
x,y,z [a.u.] :    -0.213864    -0.402870    -0.000000 
x,y,z [Debye]:    -0.543598    -1.024013    -0.000000 

 

Dipole moment calculation done in   0.0 sec 

-----------------
QUADRUPOLE MOMENT
-----------------

Method             : SCF
Type of density    : Electron Density
Multiplicity       :   1
Irrep              :   0
Energy             :  -201.5351352802939573 Eh
Basis              : AO

                XX              YY              ZZ              XY              XZ              YZ
  NUC      103.447904006    93.335807526     5.552847104   -15.402641721     0.000000000     0.000000000
  EL      -129.155996248  -122.658611598   -30.961371228    14.035763036    -0.000000013    -0.000000000
  TOT      -25.708092242   -29.322804072   -25.408524124    -1.366878684    -0.000000013    -0.000000000 (a.u.)
           -34.578263282   -39.440174317   -34.175333919    -1.838498578    -0.000000018    -0.000000000 (Buckingham)

diagonalized tensor:
           -29.781478329   -25.408524124   -25.249417985 (a.u.)
           -40.057106879   -34.175333919   -33.961330720 (Buckingham)
           -11.977549120     5.667769762     6.309779358 (traceless form in Buckingham)

             0.318129792     0.000000076     0.948047169
             0.948047169    -0.000000026    -0.318129792
             0.000000001     1.000000000    -0.000000080
        
Isotropic quadrupole :   -26.813140146

Quadrupole moment calculation done in   0.0 sec (  0.0 sec for integrals)

Maximum memory used throughout the entire PROP-calculation: 6.4 MB

--------------------------------
SUGGESTED CITATIONS FOR THIS RUN
--------------------------------

Below you find a list of papers that are relevant to this ORCA run
We neither can nor want to force you to cite these papers, but we appreciate if you do
You receive ORCA, which is the product of decades of hard work by many enthusiastic individuals, for free
The only thing we kindly ask in return is that you cite our papers,
We deeply appreciate it, if you show your appreciation for ORCA by not just citing the generic ORCA reference.

Please note that relegating all ORCA citations to the supporting information does *not* help us.
SI sections are not indexed - citations you put there will not count into any citation statistics
But we need these citations in order to attract the funding resources that allow us to do what we are doing

Therefore, if you are a happy ORCA user, please consider citing a few of the papers listed below in the main body of your paper

In addition to the list printed below, the program has created the file /cluster/projects/nn14654k/ylvaos/basis_set_n_funcs/functionals/gga_c_pbe/CH3COOH/inp/CH3COOH_gga_c_pbe_pcseg2.bibtex that contains the list in bibtex format
You can import this file easily into all common literature databanks and citation aid programs

It goes without saying that in many instances, there are alternative algorithms to achieve similar
results as the ones you have gotten from ORCA. It is, of course, also the case that in some instances
ORCA just re-implements algorithms worked out by others. We are fully aware of that and we are also
fully appreciative of our colleagues work. Hence this citation list should not be read as indicating
that the listed papers, which are focused on our own work, are the only ones worth citing. It simply
meant to make it easier for users to cite ORCA specific papers. It is not a substitute for doing your
own literature research and citing the relevant literature in a scientifically appropriate manner.

List of essential papers. We consider these as the minimum necessary citations

  1. Neese, F.
     Software update: the ORCA program system, version 6.0
     WIRES Comput. Molec. Sci. 2025 15(1), e70019
     doi.org/10.1002/wcms.70019

List of papers to cite with high priority. The work reported in these papers was absolutely
necessary for this run to complete.
Our perspective: the developers of density functionals and basis sets usually get cited in chemistry papers
Good! But without the algorithms to do something with them, the functionals or basis sets would not do anything.
Hence, in our opinion, the algorithm design and method developments papers are equally worthy of getting cited

  1. Lehtola, S.; Steigemann, C.; Oliveira, M.; Marques, M.
     Recent developments in Libxc - A comprehensive library of functionals for density functional theory
     Software X 2018 7 , 
     doi.org/10.1016/j.softx.2017.11.002
  2. Neese, F.
     The SHARK Integral Generation and Digestion System
     J. Comp. Chem. 2022 44(3), 381
     doi.org/10.1002/jcc.26942

List of suggested additional citations. These are papers that are important in the 'surrounding' of 
of this run, or papers that preceded the highly important papers. If you like your results we are grateful for a citation.

  1. Neese, F.
     The ORCA program system
     WIRES Comput. Molec. Sci. 2012 2(1), 73-78
     doi.org/10.1002/wcms.81
  2. Neese, F.
     Software update: the ORCA program system, version 4.0
     WIRES Comput. Molec. Sci. 2018 8(1), 1-6
     doi.org/10.1002/wcms.1327
  3. Neese, F.; Wennmohs, F.; Becker, U.; Riplinger, C.
     The ORCA quantum chemistry program package
     J. Chem. Phys. 2020 152(22), 224108
     doi.org/10.1063/5.0004608
  4. Neese, F.
     Software update: The ORCA program system—Version 5.0
     WIRES Comput. Molec. Sci. 2022 12(1), e1606
     doi.org/10.1002/wcms.1606

List of optional additional citations

  1. Neese, F.
     Approximate second-order SCF convergence for spin unrestricted wavefunctions
     Chem. Phys. Lett. 2000 325(1-3), 93-98
     doi.org/10.1016/s0009-2614(00)00662-x

Timings for individual modules:

Sum of individual times          ...       14.293 sec (=   0.238 min)
Startup calculation              ...        0.500 sec (=   0.008 min)   3.5 %
SCF iterations                   ...       13.199 sec (=   0.220 min)  92.3 %
Property integrals               ...        0.306 sec (=   0.005 min)   2.1 %
Property calculations            ...        0.283 sec (=   0.005 min)   2.0 %
Orbital localization             ...        0.005 sec (=   0.000 min)   0.0 %
                             ****ORCA TERMINATED NORMALLY****
TOTAL RUN TIME: 0 days 0 hours 0 minutes 15 seconds 16 msec
