
                                 *****************
                                 * O   R   C   A *
                                 *****************

                                            #,                                       
                                            ###                                      
                                            ####                                     
                                            #####                                    
                                            ######                                   
                                           ########,                                 
                                     ,,################,,,,,                         
                               ,,#################################,,                 
                          ,,##########################################,,             
                       ,#########################################, ''#####,          
                    ,#############################################,,   '####,        
                  ,##################################################,,,,####,       
                ,###########''''           ''''###############################       
              ,#####''   ,,,,##########,,,,          '''####'''          '####       
            ,##' ,,,,###########################,,,                        '##       
           ' ,,###''''                  '''############,,,                           
         ,,##''                                '''############,,,,        ,,,,,,###''
      ,#''                                            '''#######################'''  
     '                                                          ''''####''''         
             ,#######,   #######,   ,#######,      ##                                
            ,#'     '#,  ##    ##  ,#'     '#,    #''#        ,####,    ,#,          
            ##       ##  ##   ,#'  ##            #'  '#       #'       ,# #          
            ##       ##  #######   ##           ,######,      #####,      #          
            '#,     ,#'  ##    ##  '#,     ,#' ,#      #,     #,   #      #          
             '#######'   ##     ##  '#######'  #'      '#     '####' #    #          



                #########################################################
                #                        -***-                          #
                #          Department of theory and spectroscopy        #
                #                                                       #
                #                      Frank Neese                      #
                #                                                       #
                #     Directorship, Architecture, Infrastructure        #
                #                    SHARK, DRIVERS                     #
                #        Core code/Algorithms in most modules           #
                #                                                       #
                #        Max Planck Institute fuer Kohlenforschung      #
                #                Kaiser Wilhelm Platz 1                 #
                #                 D-45470 Muelheim/Ruhr                 #
                #                      Germany                          #
                #                                                       #
                #                  All rights reserved                  #
                #                        -***-                          #
                #########################################################


                         Program Version 6.1.1  -  RELEASE   -
                                (GIT: $487d211c$)
                          ($2025-11-21 10:33:24 +0100$)


 With contributions from (in alphabetic order):
[Max-Planck-Institut fuer Kohlenforschung]                               
  Daniel Aravena         : Magnetic Suceptibility                        
  Michael Atanasov       : Ab Initio Ligand Field Theory (pilot matlab implementation)
  Alexander A. Auer      : GIAO ZORA, VPT2 properties, NMR spectrum      
  Ute Becker             : All parallelization in ORCA, NUMFREQ, NUMCALC 
  Giovanni Bistoni       : ED, misc. LED, open-shell LED, HFLD           
  Dmytro Bykov           : pre 5.0 version of the SCF Hessian            
  Marcos Casanova-Páez   : Triplet and SCS-CIS(D). UHF-(DLPNO)-IP/EA/STEOM-CCSD. UHF-CVS-IP/STEOM-CCSD   
  Vijay G. Chilkuri      : MRCI spin determinant printing, contributions to CSF-ICE 
  Pauline Colinet        : FMM embedding                                 
  Dipayan Datta          : RHF DLPNO-CCSD density                        
  Achintya Kumar Dutta   : EOM-CC, STEOM-CC                              
  Nicolas Foglia         : Exact transition moments, OPA infrastructure, MCD improvements    
  Dmitry Ganyushin       : Spin-Orbit,Spin-Spin,Magnetic field MRCI      
  Miquel Garcia-Rates    : C-PCM and meta-GGA Hessian, CCSD/C-PCM, Gaussian charge scheme 
  Tiago L. C. Gouveia    : GS-ROHF, GS-ROCIS                             
  Yang Guo               : DLPNO-NEVPT2, F12-NEVPT2, CIM, IAO-localization        
  Andreas Hansen         : Spin unrestricted coupled pair/coupled cluster methods 
  Ingolf Harden          : AUTO-CI MPn and infrastructure                
  Benjamin Helmich-Paris : MC-RPA, TRAH-(SCF,CASSCF), AVAS, COSX integrals, SCF dyn. polar., MC-PDFT, srDFT 
  Lee Huntington         : MR-EOM, pCC                                   
  Robert Izsak           : Overlap fitted RIJCOSX, COSX-SCS-MP3, EOM     
  Riya Kayal             : Wick's Theorem for AUTO-CI, AUTO-CI UHF-CCSDT 
  Emily Kempfer          : AUTO-CI RHF CISDT and CCSDT, approximate NEVPT4
  Christian Kollmar      : KDIIS, OOCD, Brueckner-CCSD(T), CCSD density, CASPT2, CASPT2-K, improved NEVPT2 
  Axel Koslowski         : Symmetry handling                             
  Simone Kossmann        : meta-GGA functionals, TD-DFT gradient, OOMP2, (MP2 Hessian; deprecated post 5.0) 
  Lucas Lang             : DCDCAS, Hyperfine gauge corrections, ICE-SOC+SSC
  Marvin Lechner         : AUTO-CI (C++ implementation), FIC-MRCC        
  Spencer Leger          : CASSCF response                               
  Dagmar Lenk            : GEPOL surface, SMD, ORCA-2-JSON               
  Dimitrios Liakos       : Extrapolation schemes; Compound Job, Property file
  Dimitrios Manganas     : Further ROCIS development; embedding schemes. LFT, Crystal Embedding 
  Dimitrios Pantazis     : SARC Basis sets                               
  Anastasios Papadopoulos: AUTO-CI, single reference methods and gradients 
  Taras Petrenko         : pre 6.0 DFT Hessian and TD-DFT gradient,  ECA, NRVS 
  Petra Pikulova         : Analytic Raman intensities                    
  Peter Pinski           : DLPNO-MP2, DLPNO-MP2 Gradient                 
  Shashank Vittal Rao    : ES-AILFT, MagRelax                            
  Christoph Reimann      : Effective Core Potentials                     
  Marius Retegan         : Local ZFS, SOC                                
  Christoph Riplinger    : Optimizer, TS searches, QM/MM, DLPNO-CCSD(T), (RO)-DLPNO pert. Triples 
  Michael Roemelt        : Original ROCIS implementation, recursive CI coupling coefficients
  Masaaki Saitow         : Open-shell DLPNO-CCSD energy and density      
  Barbara Sandhoefer     : DKH picture change effects                    
  Yorick L. A. Schmerwitz: GMF and freeze-and-release deltaSCF, NEB S-IDPP initial path                    
  Kantharuban Sivalingam : CASSCF convergence/infrastructure, NEVPT2, NEVPT3, NEVPT4(SD), FIC-MRCI and CEPA variants
  Bernardo de Souza      : ESD, SOC TD-DFT                               
  Georgi L. Stoychev     : AutoAux, RI-MP2 NMR, DLPNO-MP2 response, X2C  
  Van Anh Tran           : RI-MP2 g-tensors                              
  Willem Van den Heuvel  : Paramagnetic NMR                              
  Zikuan Wang            : NOTCH, Electric field optimization            
  Frank Wennmohs         : Technical directorship and infrastructure     
  Hang Xu                : AUTO-CI-Response properties                   
                                                                         
[FACCTs GmbH]                                                            
  Markus Bursch, Nicolas Foglia, Miquel Garcia-Rates, Ingolf Harden, Hagen Neugebauer, Anastasios Papadopoulos, 
  Christoph Riplinger, Bernardo de Souza, Georgi L. Stoychev                                                    
                                                                 
  APM, various basis sets, CI-OPT, improved COSX, DLPNO-Multilevel,           
  DOCKER, DRACO, updates on ESD, Fragmentator, GOAT, IRC, LR-CPCM, L-BFGS, MBIS, meta-GGA TD-DFT gradient, ML-optimized integration grids, 
  MM, NACMEs, nearIR, NEB, NEB-TS, NL-DFT gradient (VV10), 2- and 3-layer-ONIOM, interface openCOSMO-RS, QMMM,   
  Crystal-QMMM, RESP, rigid body optimization, SF, symmetry and pop. for TD-DFT, various functionals, SOLVATOR                                   
                                                                         
[Other institutions]                                                     
  V. Asgeirsson          : NEB                                           
  Christoph Bannwarth    : sTDA-DFT, sTD-DFT, PBEh-3c, B97-3c, D3        
  Giovanni Bistoni       : ETS/NOCV, ADLD/ADEX, COVALED                  
  Martin Brehm           : Molecular dynamics                            
  Ronald Cardenas        : ETS/NOCV                                      
  Martina Colucci        : COVALED                                       
  Sebastian Ehlert       : rSCAN, r2SCAN, r2SCAN-3c, D4, dhf basis sets  
  Marvin Friede          : D4 for Fr, Ra, Ac-Lr                          
  Lars Goerigk           : TD-DFT with DH, B97 family of functionals     
  Stefan Grimme          : VdW corrections, initial TS optimization, DFT functionals, gCP, sTDA/sTD-DF 
  Waldemar Hujo          : DFT-NL                                        
  H. Jonsson             : NEB                                           
  Holger Kruse           : gCP                                           
  Marcel Mueller         : wB97X-3c, vDZP basis set                      
  Hagen Neugebauer       : wr2SCAN, Native XTB                           
  Gianluca Regni         : ADLD/ADEX                                     
  Tobias Risthaus        : pre 6.0 range-separated hybrid DFT and stability analysis
  Lukas Wittmann         : regularized MP2, r2SCAN double-hybrids, wr2SCAN        
                                                                         
We gratefully acknowledge several colleagues who have allowed us to      
interface, adapt or use parts of their codes:                            
  Ed Valeev, F. Pavosevic, A. Kumar             : LibInt (2-el integral package), F12 methods 
  Garnet Chan, S. Sharma, J. Yang, R. Olivares  : DMRG                   
  Ulf Ekstrom                                   : XCFun DFT Library      
  Mihaly Kallay                                 : mrcc  (arbitrary order and MRCC methods)
  Frank Weinhold                                : gennbo (NPA and NBO analysis)           
  Simon Mueller                                 : openCOSMO-RS                            
  Christopher J. Cramer and Donald G. Truhlar   : smd solvation model                     
  S Lehtola, MJT Oliveira, MAL Marques          : LibXC Library                           
  Liviu Ungur et al                             : ANISO software                          


 Your calculation uses the libint2 library for the computation of 2-el integrals
 For citations please refer to: http://libint.valeyev.net

 Your ORCA version has been built with support for libXC version: 7.0.0
 For citations please refer to: https://libxc.gitlab.io

 This ORCA versions uses:
   CBLAS   interface :  Fast vector & matrix operations
   LAPACKE interface :  Fast linear algebra routines
   SCALAPACK package :  Parallel linear algebra routines
   Shared memory     :  Shared parallel matrices
   BLAS/LAPACK       :  OpenBLAS 0.3.29  USE64BITINT DYNAMIC_ARCH NO_AFFINITY Cooperlake SINGLE_THREADED
        Core in use  :  Cooperlake
   Copyright (c) 2011-2014, The OpenBLAS Project


  ***********************************
  * Starting time: Wed May 20 12:32:44 2026
  * Host name:     c1-37
  * Process ID:    543410
  * Working dir.:  /cluster/projects/nn14654k/ylvaos/basis_set_n_funcs/functionals/gga_c_pbe/CH3COOH/out
  ***********************************

Using LibXC functional ID 130 : Perdew, Burke & Ernzerhof
[ 1]  J. P. Perdew, K. Burke, and M. Ernzerhof.,  Phys. Rev. Lett. 77, 3865 (1996)
[ 2]  J. P. Perdew, K. Burke, and M. Ernzerhof.,  Phys. Rev. Lett. 78, 1396 (1997)
Using LibXC functional ID 130 : Perdew, Burke & Ernzerhof
[ 1]  J. P. Perdew, K. Burke, and M. Ernzerhof.,  Phys. Rev. Lett. 77, 3865 (1996)
[ 2]  J. P. Perdew, K. Burke, and M. Ernzerhof.,  Phys. Rev. Lett. 78, 1396 (1997)
Your calculation utilizes LibXC
by S. Lehtola, C. Steigemann, M. J. T. Oliveira & M. A. L. Marques
Please cite in your paper:
Lehtola, S.; Steigemann, C.; Oliveira, M.J.T.; Marques, M. A. L. Software X, 7, (2018), 1.
   

================================================================================

----- Orbital basis set information -----
Your calculation utilizes the basis: aug-cc-pVTZ 
    H, B-Ne : Obtained from the ccRepo (grant-hill.group.shef.ac.uk/ccrepo) Feb. 2017
              R. A. Kendall, T. H. Dunning, Jr., R. J. Harrison, J. Chem. Phys. 96, 6796 (1992)
         He : Obtained from the ccRepo (grant-hill.group.shef.ac.uk/ccrepo) Feb. 2017
              D. E. Woon, T. H. Dunning, Jr., J. Chem. Phys. 100, 2975 (1994)
  Li-Be, Na : Obtained from the ccRepo (grant-hill.group.shef.ac.uk/ccrepo) Feb. 2017
              B. P. Prascher, D. E. Woon, K. A. Peterson, T. H. Dunning, Jr., A. K. Wilson, Theor. Chem. Acc. 128, 69 (2011)
         Mg : Obtained from the Peterson Research Group Website (tyr0.chem.wsu.edu/~kipeters) Feb. 2017
              B. P. Prascher, D. E. Woon, K. A. Peterson, T. H. Dunning, Jr., A. K. Wilson, Theor. Chem. Acc. 128, 69 (2011)
      Al-Ar : Obtained from the ccRepo (grant-hill.group.shef.ac.uk/ccrepo) Feb. 2017
              D. E. Woon, T. H. Dunning, Jr., J. Chem. Phys. 98, 1358 (1993)
      Sc-Zn : Obtained from the ccRepo (grant-hill.group.shef.ac.uk/ccrepo) Feb. 2017
              N. B. Balabanov, K. A. Peterson, J. Chem. Phys. 123, 064107 (2005)
              N. B. Balabanov, K. A. Peterson, J. Chem. Phys. 125, 074110 (2006)
      Ga-Kr : Obtained from the ccRepo (grant-hill.group.shef.ac.uk/ccrepo) Feb. 2017
              A. K. Wilson, D. E. Woon, K. A. Peterson, T. H. Dunning, Jr., J. Chem. Phys. 110, 7667 (1999)
     Ag, Au : Obtained from the Peterson Research Group Website (tyr0.chem.wsu.edu/~kipeters) Feb. 2017
              K. A. Peterson, C. Puzzarini, Theor. Chem. Acc. 114, 283 (2005)

================================================================================
                                        WARNINGS
                       Please study these warnings very carefully!
================================================================================


================================================================================
                                       INPUT FILE
================================================================================
NAME = /cluster/projects/nn14654k/ylvaos/basis_set_n_funcs/functionals/gga_c_pbe/CH3COOH/inp/CH3COOH_gga_c_pbe_augccpvtz.inp
|  1> ! dft aug-cc-pVTZ TightSCF
|  2> %pal nprocs 8 end
|  3> 
|  4> %loc
|  5>   LocMet NewBoys
|  6>   Occ true
|  7> end
|  8> 
|  9> %method
| 10>   exchange None
| 11>   correlation gga_c_pbe
| 12> end
| 13> 
| 14> %elprop
| 15>   Dipole true
| 16>   Quadrupole true
| 17> end
| 18> 
| 19> * xyz 0 1
| 20> C    0.000000000000   0.154560000000   0.000000000000
| 21> C    1.073776000000  -0.892748000000   0.000000000000
| 22> O    0.166384000000   1.360084000000   0.000000000000
| 23> O   -1.236449000000  -0.415036000000   0.000000000000
| 24> H   -1.867646000000   0.333582000000   0.000000000000
| 25> H    2.048189000000  -0.408135000000   0.000000000000
| 26> H    0.968661000000  -1.528353000000   0.881747000000
| 27> H    0.968661000000  -1.528353000000  -0.881747000000
| 28> *
| 29> 
| 30> 
| 31>                          ****END OF INPUT****
================================================================================

                       ****************************
                       * Single Point Calculation *
                       ****************************

---------------------------------
CARTESIAN COORDINATES (ANGSTROEM)
---------------------------------
  C      0.000000    0.154560    0.000000
  C      1.073776   -0.892748    0.000000
  O      0.166384    1.360084    0.000000
  O     -1.236449   -0.415036    0.000000
  H     -1.867646    0.333582    0.000000
  H      2.048189   -0.408135    0.000000
  H      0.968661   -1.528353    0.881747
  H      0.968661   -1.528353   -0.881747

----------------------------
CARTESIAN COORDINATES (A.U.)
----------------------------
  NO LB      ZA    FRAG     MASS         X           Y           Z
   0 C     6.0000    0    12.011    0.000000    0.292076    0.000000
   1 C     6.0000    0    12.011    2.029143   -1.687049    0.000000
   2 O     8.0000    0    15.999    0.314420    2.570186    0.000000
   3 O     8.0000    0    15.999   -2.336550   -0.784304    0.000000
   4 H     1.0000    0     1.008   -3.529339    0.630379    0.000000
   5 H     1.0000    0     1.008    3.870516   -0.771263    0.000000
   6 H     1.0000    0     1.008    1.830504   -2.888169    1.666260
   7 H     1.0000    0     1.008    1.830504   -2.888169   -1.666260

--------------------------------
INTERNAL COORDINATES (ANGSTROEM)
--------------------------------
 C      0   0   0     0.000000000000     0.00000000     0.00000000
 C      1   0   0     1.499949647502     0.00000000     0.00000000
 O      1   2   0     1.216951827326   126.42686784     0.00000000
 O      1   2   3     1.361339683113   110.98078396   180.00000000
 H      4   1   2     0.979203024267   105.40175469   180.00000085
 H      2   1   3     1.088269476893   109.27200725     0.00000000
 H      2   1   3     1.092025938913   109.72406365   120.93315147
 H      2   1   3     1.092025938913   109.72406365   239.06684853

---------------------------
INTERNAL COORDINATES (A.U.)
---------------------------
 C      0   0   0     0.000000000000     0.00000000     0.00000000
 C      1   0   0     2.834494048450     0.00000000     0.00000000
 O      1   2   0     2.299705671821   126.42686784     0.00000000
 O      1   2   3     2.572559176322   110.98078396   180.00000000
 H      4   1   2     1.850425545371   105.40175469   180.00000085
 H      2   1   3     2.056531271234   109.27200725     0.00000000
 H      2   1   3     2.063629955684   109.72406365   120.93315147
 H      2   1   3     2.063629955684   109.72406365   239.06684853

---------------------
BASIS SET INFORMATION
---------------------
There are 3 groups of distinct atoms

 Group   1 Type C   : 19s6p3d2f contracted to 5s4p3d2f pattern {88111/3111/111/11}
 Group   2 Type O   : 19s6p3d2f contracted to 5s4p3d2f pattern {88111/3111/111/11}
 Group   3 Type H   : 6s3p2d contracted to 4s3p2d pattern {3111/111/11}

Atom   0C    basis set group =>   1
Atom   1C    basis set group =>   1
Atom   2O    basis set group =>   2
Atom   3O    basis set group =>   2
Atom   4H    basis set group =>   3
Atom   5H    basis set group =>   3
Atom   6H    basis set group =>   3
Atom   7H    basis set group =>   3


           ************************************************************
           *        Program running with 8 parallel MPI-processes     *
           *              working on a common directory               *
           ************************************************************
------------------------------------------------------------------------------
                             ORCA STARTUP CALCULATIONS
------------------------------------------------------------------------------
------------------------------------------------------------------------------
                   ___                                                        
                  /   \      - P O W E R E D   B Y -                         
                 /     \                                                     
                 |  |  |   _    _      __       _____    __    __             
                 |  |  |  | |  | |    /  \     |  _  \  |  |  /  |          
                  \  \/   | |  | |   /    \    | | | |  |  | /  /          
                 / \  \   | |__| |  /  /\  \   | |_| |  |  |/  /          
                |  |  |   |  __  | /  /__\  \  |    /   |      \           
                |  |  |   | |  | | |   __   |  |    \   |  |\   \          
                \     /   | |  | | |  |  |  |  | |\  \  |  | \   \       
                 \___/    |_|  |_| |__|  |__|  |_| \__\ |__|  \__/        
                                                                              
                      - O R C A' S   B I G   F R I E N D -                    
                                      &                                       
                       - I N T E G R A L  F E E D E R -                       
                                                                              
 v1 FN, 2020, v2 2021, v3 2022-2024                                           
------------------------------------------------------------------------------


----------------------
SHARK INTEGRAL PACKAGE
----------------------

Number of atoms                             ...      8
Number of basis functions                   ...    300
Number of shells                            ...    116
Maximum angular momentum                    ...      3
Integral batch strategy                     ... SHARK/LIBINT Hybrid
RI-J (if used) integral strategy            ... SPLIT-RIJ (Revised 2003 algorithm where possible)
Printlevel                                  ...      1
Contraction scheme used                     ... PARTIAL GENERAL contraction
Prescreening option                         ... SCHWARTZ
   Thresh                                   ... 2.500e-11
   Tcut                                     ... 2.500e-12
   Tpresel                                  ... 2.500e-12 
Coulomb Range Separation                    ... NOT USED
Exchange Range Separation                   ... NOT USED
Multipole approximations                    ... NOT USED
Finite Nucleus Model                        ... NOT USED
CABS basis                                  ... NOT available
Auxiliary Coulomb fitting basis             ... NOT available
Auxiliary J/K fitting basis                 ... NOT available
Auxiliary Correlation fitting basis         ... NOT available
Auxiliary 'external' fitting basis          ... NOT available

Checking pre-screening integrals            ... done (  0.0 sec) Dimension = 116
Save PGC pre-screening integrals            ... done (  0.0 sec) Dimension = 116
Calculate PGC overlap integrals             ... done (  0.0 sec) Dimension = 92
Calculating pre-screening integrals (ORCA)  ... done (  0.0 sec) Dimension = 92
Shell pair information
Shell pair cut-off parameter TPreSel        ...   2.5e-12
Total number of shell pairs                 ...      6786
Shell pairs after pre-screening             ...      6302
Total number of primitive shell pairs       ...      8802
Primitive shell pairs kept                  ...      7780
          la=0 lb=0:   1489 shell pairs
          la=1 lb=0:   1602 shell pairs
          la=1 lb=1:    402 shell pairs
          la=2 lb=0:   1144 shell pairs
          la=2 lb=1:    557 shell pairs
          la=2 lb=2:    210 shell pairs
          la=3 lb=0:    478 shell pairs
          la=3 lb=1:    224 shell pairs
          la=3 lb=2:    160 shell pairs
          la=3 lb=3:     36 shell pairs

Checking whether 4 symmetric matrices of dimension 300 fit in memory
:Max Core in MB      =   4096.00
 MB in use           =      9.15
 MB left             =   4086.85
 MB needed           =      1.38
 Data fit in memory  = YES
Calculating Nuclear repulsion               ... done (  0.0 sec) ENN=    120.693288504615 Eh

Diagonalization of the overlap matrix:
Smallest eigenvalue                        ... 2.077e-05
Time for diagonalization                   ...    0.005 sec
Threshold for overlap eigenvalues          ... 1.000e-07
Number of eigenvalues below threshold      ... 0
Time for construction of square roots      ...    0.003 sec
Total time needed                          ...    0.010 sec

-------------------
DFT GRID GENERATION
-------------------

General Integration Accuracy     IntAcc      ... 4.388
Radial Grid Type                 RadialGrid  ... OptM3 with GC (2021)
Angular Grid (max. ang.)         AngularGrid ... 4 (Lebedev-302)
Angular grid pruning method      GridPruning ... 4 (adaptive)
Weight generation scheme         WeightScheme... mBecke (2022)
Basis function cutoff            BFCut       ... 1.0000e-11
Integration weight cutoff        WCut        ... 1.0000e-14
Partially contracted basis set               ... off
Rotationally invariant grid construction     ... off
Angular grids for H and He will be reduced by one unit
Diffuse basis detected: some atoms will have their outermost
                        angular grid increased by 1.

Total number of grid points                  ...    39456
Total number of batches                      ...      622
Average number of points per batch           ...       63
Average number of grid points per atom       ...     4932

---------------------
SHARK GRID GENERATION
---------------------

General Integration Accuracy     IntAcc      ... 4.388
Radial Grid Type                 RadialGrid  ... OptM3 with GC (2021)
Angular Grid (max. ang.)         AngularGrid ... 4 (Lebedev-302)
Angular grid pruning method      GridPruning ... 4 (adaptive)
Weight generation scheme         WeightScheme... mBecke (2022)
Basis function cutoff            BFCut       ... 1.0000e-11
Integration weight cutoff        WCut        ... 1.0000e-14
Partially contracted basis set               ... off
Rotationally invariant grid construction     ... off
Angular grids for H and He will be reduced by one unit
Diffuse basis detected: some atoms will have their outermost
                        angular grid increased by 1.
Steep s-basis detected: some atoms will have their radial
                        grid points doubled.

Total number of grid points                  ...    65362
Total number of batches                      ...     1026
Average number of points per batch           ...       63
Average number of grid points per atom       ...     8170
Grids setup in   0.5 sec
Initializing property integral containers    ... done (  0.0 sec)

SHARK setup successfully completed in   0.6 seconds

Maximum memory used throughout the entire STARTUP-calculation: 23.8 MB


           ************************************************************
           *        Program running with 8 parallel MPI-processes     *
           *              working on a common directory               *
           ************************************************************
-------------------------------------------------------------------------------
                                 ORCA GUESS
                   Start orbitals & Density for SCF / CASSCF
-------------------------------------------------------------------------------

------------
SCF SETTINGS
------------
Hamiltonian:
 Density Functional     Method          .... DFT(GTOs)
 Exchange Functional    Exchange        .... no Exchange
  Functional kind                       .... Correlation
  Functional name                       .... Perdew, Burke & Ernzerhof
  Functional family                     .... GGA
  Functional refs                              
    [ 0] J. P. Perdew, K. Burke, and M. Ernzerhof.,  Phys. Rev. Lett. 77, 3865 (1996), doi: 10.1103/PhysRevLett.77.3865
    [ 1] J. P. Perdew, K. Burke, and M. Ernzerhof.,  Phys. Rev. Lett. 78, 1396 (1997), doi: 10.1103/PhysRevLett.78.1396
  Functional external parameters        .... 3
    Parameter  0 _beta      =  6.672455e-02 : beta constant       
    Parameter  1 _gamma     =  3.109069e-02 : (1 - ln(2))/Pi^2 in the PBE
    Parameter  2 _B         =  1.000000e+00 : Multiplies the A t^2 term. Used in the SPBE functional
 Gradients option       PostSCFGGA      .... off


General Settings:
 Integral files         IntName         .... /cluster/projects/nn14654k/ylvaos/basis_set_n_funcs/functionals/gga_c_pbe/CH3COOH/inp/CH3COOH_gga_c_pbe_augccpvtz
 Hartree-Fock type      HFTyp           .... RHF
 Total Charge           Charge          ....    0
 Multiplicity           Mult            ....    1
 Number of Electrons    NEL             ....   32
 Basis Dimension        Dim             ....  276
 Nuclear Repulsion      ENuc            ....    120.6932885046 Eh

Convergence Acceleration:
 AO-DIIS                CNVDIIS         .... on
   Start iteration      DIISMaxIt       ....    12
   Startup error        DIISStart       ....  0.200000
   # of expansion vecs  DIISMaxEq       ....     5
   Bias factor          DIISBfac        ....   1.050
   Max. coefficient     DIISMaxC        ....  10.000
 MO-DIIS                CNVKDIIS        .... off
 Trust-Rad. Augm. Hess. CNVTRAH         .... auto
   Auto Start mean grad. ratio tolernc. ....  1.125000
   Auto Start start iteration           ....    50
   Auto Start num. interpolation iter.  ....    10
   Max. Number of Micro iterations      ....    24
   Max. Number of Macro iterations      .... Maxiter - #DIIS iter
   Number of Davidson start vectors     ....     2
   Converg. threshold    (grad. norm)   ....   1.000e-05
   Grad. Scal. Fac. for Micro threshold ....   0.100
   Minimum threshold for Micro iter.    ....   1.000e-02
   NR start threshold (gradient norm)   ....   1.000e-04
   Initial trust radius                 ....   0.400
   Minimum AH scaling param. (alpha)    ....   1.000
   Maximum AH scaling param. (alpha)    .... 1000.000
   Quad. conv. algorithm                .... NR
   White noise on init. David. guess    .... on
   Maximum white noise                  ....   0.010
   Pseudo random numbers                .... off
   Inactive MOs                         .... canonical
   Orbital update algorithm             .... Taylor
   Preconditioner                       .... Diag
   Full preconditioner red. dimension   ....   250
 SOSCF                 CNVSOSCF           .... on
   Start iteration     SOSCFMaxIt         ....   150
   Startup grad/error  SOSCFStart         ....  0.003300
   Hessian update      SOSCFHessUp        .... L-BFGS
   Autom. constraints  SOSCFAutoConstrain .... off
 Level Shifting         CNVShift        .... on
   Level shift para.    LevelShift      ....    0.2500
   Turn off err/grad.   ShiftErr        ....    0.0010
 Zerner damping         CNVZerner       .... off
 Static damping         CNVDamp         .... on
   Fraction old density DampFac         ....    0.7000
   Max. Damping (<1)    DampMax         ....    0.9800
   Min. Damping (>=0)   DampMin         ....    0.0000
   Turn off err/grad.   DampErr         ....    0.1000

SCF Procedure:
 Maximum # iterations   MaxIter         ....   125
 SCF integral mode      SCFMode         .... Direct
   Integral package                     .... SHARK and LIBINT hybrid scheme
 Reset frequency        DirectResetFreq ....    20
 Integral Threshold     Thresh          ....  2.500e-11 Eh
 Primitive CutOff       TCut            ....  2.500e-12 Eh

Convergence Tolerance:
 Convergence Check Mode ConvCheckMode   .... Total+1el-Energy
 Convergence forced     ConvForced      .... 0
 Energy Change          TolE            ....  1.000e-08 Eh
 1-El. energy change                    ....  1.000e-05 Eh
 Orbital Gradient       TolG            ....  1.000e-05
 Orbital Rotation angle TolX            ....  1.000e-05
 DIIS Error             TolErr          ....  5.000e-07

------------------------------
INITIAL GUESS: MODEL POTENTIAL
------------------------------
Loading Hartree-Fock densities                     ... done
Calculating cut-offs                               ... done
Initializing the effective Hamiltonian             ... done
Setting up the integral package (SHARK)            ... done
Starting the Coulomb interaction                   ... done (   0.0 sec)
Making the grid                                    ... done (   0.0 sec)
Mapping shells                                     ... done
Starting the XC term evaluation                    ... done (   0.0 sec)
  promolecular density results
     # of electrons  =     31.997033092
     EX              =      0.000000000
     EC              =     -1.055039522
     EX+EC           =     -1.055039522
Transforming the Hamiltonian                       ... done (   0.0 sec)
Diagonalizing the Hamiltonian                      ... done (   0.0 sec)
Back transforming the eigenvectors                 ... done (   0.0 sec)
Now organizing SCF variables                       ... done
                      ------------------
                      INITIAL GUESS DONE (   0.1 sec)
                      ------------------
             **** ENERGY FILE WAS UPDATED (/cluster/projects/nn14654k/ylvaos/basis_set_n_funcs/functionals/gga_c_pbe/CH3COOH/inp/CH3COOH_gga_c_pbe_augccpvtz.en.tmp) ****
Finished Guess after   0.2 sec
Maximum memory used throughout the entire GUESS-calculation: 14.6 MB


           ************************************************************
           *        Program running with 8 parallel MPI-processes     *
           *              working on a common directory               *
           ************************************************************

-------------------------------------------------------------------------------------------
                                      ORCA LEAN-SCF
                              memory conserving SCF solver
-------------------------------------------------------------------------------------------

----------------------------------------D-I-I-S--------------------------------------------
Iteration    Energy (Eh)           Delta-E    RMSDP     MaxDP     DIISErr   Damp  Time(sec)
-------------------------------------------------------------------------------------------
               ***  Starting incremental Fock matrix formation  ***
    1    -190.8613278435503844     0.00e+00  9.09e-01  2.32e+01  1.01e+00  0.700   1.4
Warning: op=0 Small HOMO/LUMO gap (  -1.233) - skipping pre-diagonalization
         LevelShift set to 1.000 Eh
         Will do a full diagonalization
    2    -196.4030660850457934    -5.54e+00  6.37e-01  1.62e+01  3.93e-01  0.700   1.4
    3    -198.3486806161203617    -1.95e+00  4.46e-01  1.14e+01  2.88e-01  0.700   1.4
    4    -199.3758725847269488    -1.03e+00  3.12e-01  7.95e+00  3.13e-01  0.700   1.4
    5    -200.0815556556746628    -7.06e-01  2.19e-01  5.56e+00  2.59e-01  0.700   1.4
                               ***Turning on AO-DIIS***
    6    -200.5888458785257740    -5.07e-01  1.53e-01  3.89e+00  1.74e-01  0.700   1.4
    7    -200.9115889566461419    -3.23e-01  1.07e-01  2.73e+00  1.78e-01  0.700   1.6
    8    -201.1351447021226591    -2.24e-01  7.51e-02  1.91e+00  1.73e-01  0.700   1.4
    9    -201.3184193378573354    -1.83e-01  5.27e-02  1.34e+00  1.39e-01  0.700   1.4
   10    -201.4537411654767425    -1.35e-01  3.70e-02  9.35e-01  9.63e-02  0.700   1.4
   11    -201.5476573096058246    -9.39e-02  8.67e-02  2.18e+00  6.33e-02  0.000   1.4
   12    -201.7587588231019140    -2.11e-01  2.93e-03  4.63e-02  1.74e-02  0.000   1.4
   13    -201.7617117809418801    -2.95e-03  2.76e-03  4.13e-02  1.30e-02  0.000   1.3
   14    -201.7635128357028407    -1.80e-03  2.43e-03  3.12e-02  1.45e-02  0.000   1.3
   15    -201.7646529125872235    -1.14e-03  2.18e-03  2.93e-02  1.38e-02  0.000   1.3
   16    -201.7654921497999112    -8.39e-04  1.98e-03  2.70e-02  1.26e-02  0.000   1.3
   17    -201.7661769453769125    -6.85e-04  1.70e-03  2.25e-02  1.02e-02  0.000   1.3
   18    -201.7666220848539638    -4.45e-04  1.51e-03  1.91e-02  1.05e-02  0.000   1.6
   19    -201.7669899126514110    -3.68e-04  1.31e-03  1.67e-02  9.90e-03  0.000   1.3
   20    -201.7673057876228313    -3.16e-04  1.15e-03  1.62e-02  9.16e-03  0.000   1.3
               *** Restarting incremental Fock matrix formation ***
                             ****Resetting DIIS****
Warning: op=0 Small HOMO/LUMO gap (   0.016) - skipping pre-diagonalization
         Will do a full diagonalization
   21    -201.7675750111785078    -2.69e-04  1.11e-02  2.60e-01  8.05e-03  0.000   1.4
   22    -201.7671700734336468     4.05e-04  4.93e-03  1.37e-01  3.37e-02  0.000   1.3
   23    -201.7677284624791127    -5.58e-04  3.42e-03  8.63e-02  2.47e-02  0.000   1.3
   24    -201.7679615996998450    -2.33e-04  1.99e-03  4.55e-02  2.24e-02  0.000   1.3
   25    -201.7682342275339238    -2.73e-04  9.48e-04  2.31e-02  1.89e-02  0.000   1.3
   26    -201.7684843685447049    -2.50e-04  3.25e-03  1.16e-01  1.68e-02  0.000   1.3
   27    -201.7688531730655654    -3.69e-04  1.47e-03  4.76e-02  1.69e-02  0.000   1.3
   28    -201.7690154349173781    -1.62e-04  8.31e-04  2.09e-02  1.20e-02  0.000   1.3
   29    -201.7691787181354925    -1.63e-04  4.67e-04  9.92e-03  4.43e-03  0.000   1.3
                              *** Initializing SOSCF ***
---------------------------------------S-O-S-C-F--------------------------------------
Iteration    Energy (Eh)           Delta-E    RMSDP     MaxDP     MaxGrad    Time(sec)
--------------------------------------------------------------------------------------
   30    -201.7692156122553797    -3.69e-05  2.74e-04  4.26e-03  2.87e-03     1.3
               *** Restarting incremental Fock matrix formation ***
   31    -201.7692329703013456    -1.74e-05  3.16e-04  1.03e-02  3.50e-04     1.4
   32    -201.7692227602894945     1.02e-05  1.07e-04  2.87e-03  8.23e-04     1.2
   33    -201.7692350272457134    -1.23e-05  5.61e-05  8.86e-04  1.42e-04     1.2
   34    -201.7692339286547849     1.10e-06  3.89e-05  1.21e-03  2.79e-04     1.2
   35    -201.7692354495089262    -1.52e-06  3.12e-05  9.07e-04  1.32e-05     1.2
   36    -201.7692354558025158    -6.29e-09  2.87e-05  7.23e-04  5.03e-06     1.1
                 **** Energy Check signals convergence ****

               *****************************************************
               *                     SUCCESS                       *
               *           SCF CONVERGED AFTER  36 CYCLES          *
               *****************************************************

             **** ENERGY FILE WAS UPDATED (/cluster/projects/nn14654k/ylvaos/basis_set_n_funcs/functionals/gga_c_pbe/CH3COOH/inp/CH3COOH_gga_c_pbe_augccpvtz.en.tmp) ****

----------------
TOTAL SCF ENERGY
----------------

Total Energy       :       -201.76923545712930 Eh           -5490.42002 eV

Components:
Nuclear Repulsion  :        120.69328850461517 Eh            3284.23135 eV
Electronic Energy  :       -322.46252396174441 Eh           -8774.65137 eV
One Electron Energy:       -537.47774569370381 Eh          -14625.51301 eV
Two Electron Energy:        215.01522173195937 Eh            5850.86164 eV

Virial components:
Potential Energy   :       -407.33198724598856 Eh          -11084.06688 eV
Kinetic Energy     :        205.56275178885929 Eh            5593.64685 eV
Virial Ratio       :          1.98154570174451

DFT components:
N(Alpha)           :       15.994686272703 electrons
N(Beta)            :       15.994686272703 electrons
N(Total)           :       31.989372545406 electrons
E(X)               :        0.000000000000 Eh       
E(C)               :       -1.033375265208 Eh       
E(XC)              :       -1.033375265208 Eh       

---------------
SCF CONVERGENCE
---------------

  Last Energy change         ...    6.2936e-09  Tolerance :   1.0000e-08
  Last MAX-Density change    ...    7.2268e-04  Tolerance :   1.0000e-07
  Last RMS-Density change    ...    2.8660e-05  Tolerance :   5.0000e-09
  Last DIIS Error            ...    2.8708e-03  Tolerance :   5.0000e-07
  Last Orbital Gradient      ...    5.0278e-06  Tolerance :   1.0000e-05
  Last Orbital Rotation      ...    8.6087e-05  Tolerance :   1.0000e-05


----------------
ORBITAL ENERGIES
----------------

  NO   OCC          E(Eh)            E(eV) 
   0   2.0000     -16.811049      -457.4519 
   1   2.0000     -16.783544      -456.7035 
   2   2.0000      -8.440222      -229.6701 
   3   2.0000      -8.360812      -227.5093 
   4   2.0000      -0.720762       -19.6129 
   5   2.0000      -0.627458       -17.0740 
   6   2.0000      -0.425091       -11.5673 
   7   2.0000      -0.280483        -7.6323 
   8   2.0000      -0.208807        -5.6819 
   9   2.0000      -0.191275        -5.2049 
  10   2.0000      -0.171987        -4.6800 
  11   2.0000      -0.116332        -3.1655 
  12   2.0000      -0.106878        -2.9083 
  13   2.0000      -0.091112        -2.4793 
  14   2.0000      -0.047311        -1.2874 
  15   2.0000      -0.004633        -0.1261 
  16   0.0000       0.024901         0.6776 
  17   0.0000       0.041893         1.1400 
  18   0.0000       0.042827         1.1654 
  19   0.0000       0.049192         1.3386 
  20   0.0000       0.076962         2.0942 
  21   0.0000       0.092703         2.5226 
  22   0.0000       0.093922         2.5558 
  23   0.0000       0.112686         3.0663 
  24   0.0000       0.118985         3.2377 
  25   0.0000       0.123692         3.3658 
  26   0.0000       0.130437         3.5494 
*Only the first 10 virtual orbitals were printed.

                    ********************************
                    * MULLIKEN POPULATION ANALYSIS *
                    ********************************

-----------------------
MULLIKEN ATOMIC CHARGES
-----------------------
   0 C :    0.081389
   1 C :   -1.298574
   2 O :   -0.291337
   3 O :    0.039964
   4 H :   -0.076726
   5 H :    0.487987
   6 H :    0.528650
   7 H :    0.528648
Sum of atomic charges:   -0.0000000

--------------------------------
MULLIKEN REDUCED ORBITAL CHARGES
--------------------------------
  0 C s       :     3.222269  s :     3.222269
      pz      :     0.864619  p :     2.354542
      px      :     0.659458
      py      :     0.830465
      dz2     :     0.019892  d :     0.324066
      dxz     :     0.052072
      dyz     :     0.074164
      dx2y2   :     0.061634
      dxy     :     0.116304
      f0      :     0.004419  f :     0.017735
      f+1     :     0.002207
      f-1     :     0.004386
      f+2     :     0.000385
      f-2     :     0.001833
      f+3     :     0.001298
      f-3     :     0.003205

  1 C s       :     3.531664  s :     3.531664
      pz      :     1.413858  p :     3.688500
      px      :     1.079973
      py      :     1.194668
      dz2     :     0.018806  d :     0.079668
      dxz     :     0.017515
      dyz     :     0.029091
      dx2y2   :     0.002291
      dxy     :     0.011965
      f0      :    -0.000501  f :    -0.001258
      f+1     :     0.001966
      f-1     :     0.001112
      f+2     :    -0.000460
      f-2     :     0.000115
      f+3     :    -0.000266
      f-3     :    -0.003225

  2 O s       :     3.854558  s :     3.854558
      pz      :     1.348011  p :     4.388750
      px      :     1.707659
      py      :     1.333080
      dz2     :     0.003080  d :     0.043245
      dxz     :     0.000829
      dyz     :     0.015190
      dx2y2   :     0.012969
      dxy     :     0.011178
      f0      :     0.000356  f :     0.004784
      f+1     :     0.000092
      f-1     :     0.000611
      f+2     :     0.000948
      f-2     :     0.000157
      f+3     :     0.001312
      f-3     :     0.001307

  3 O s       :     3.642784  s :     3.642784
      pz      :     1.621412  p :     4.271535
      px      :     1.145139
      py      :     1.504984
      dz2     :     0.004760  d :     0.041190
      dxz     :     0.003452
      dyz     :     0.003115
      dx2y2   :     0.009948
      dxy     :     0.019914
      f0      :     0.000521  f :     0.004527
      f+1     :     0.001327
      f-1     :     0.000427
      f+2     :     0.000151
      f-2     :     0.000258
      f+3     :     0.001165
      f-3     :     0.000679

  4 H s       :     0.954731  s :     0.954731
      pz      :     0.051916  p :     0.103160
      px      :     0.019150
      py      :     0.032094
      dz2     :     0.001006  d :     0.018835
      dxz     :     0.003323
      dyz     :     0.002911
      dx2y2   :     0.009084
      dxy     :     0.002510

  5 H s       :     0.436918  s :     0.436918
      pz      :     0.016191  p :     0.067173
      px      :     0.035505
      py      :     0.015477
      dz2     :     0.001399  d :     0.007922
      dxz     :     0.000294
      dyz     :     0.000284
      dx2y2   :     0.002553
      dxy     :     0.003392

  6 H s       :     0.385016  s :     0.385016
      pz      :     0.036927  p :     0.077169
      px      :     0.015643
      py      :     0.024600
      dz2     :     0.003557  d :     0.009166
      dxz     :     0.000792
      dyz     :     0.002286
      dx2y2   :     0.001336
      dxy     :     0.001195

  7 H s       :     0.385019  s :     0.385019
      pz      :     0.036927  p :     0.077168
      px      :     0.015642
      py      :     0.024599
      dz2     :     0.003557  d :     0.009165
      dxz     :     0.000792
      dyz     :     0.002286
      dx2y2   :     0.001336
      dxy     :     0.001195



                     *******************************
                     * LOEWDIN POPULATION ANALYSIS *
                     *******************************

----------------------
LOEWDIN ATOMIC CHARGES
----------------------
   0 C :   -1.165040
   1 C :    0.568176
   2 O :    0.779309
   3 O :    1.162377
   4 H :   -0.691198
   5 H :   -0.232203
   6 H :   -0.210711
   7 H :   -0.210711

-------------------------------
LOEWDIN REDUCED ORBITAL CHARGES
-------------------------------
  0 C s       :     2.480119  s :     2.480119
      pz      :     0.605818  p :     2.407864
      px      :     0.840342
      py      :     0.961704
      dz2     :     0.116113  d :     1.593044
      dxz     :     0.215798
      dyz     :     0.326756
      dx2y2   :     0.442723
      dxy     :     0.491655
      f0      :     0.029269  f :     0.684012
      f+1     :     0.033188
      f-1     :     0.042748
      f+2     :     0.086378
      f-2     :     0.066177
      f+3     :     0.268575
      f-3     :     0.157677

  1 C s       :     2.447881  s :     2.447881
      pz      :     0.760231  p :     2.307799
      px      :     0.776804
      py      :     0.770764
      dz2     :     0.069604  d :     0.496100
      dxz     :     0.053786
      dyz     :     0.117442
      dx2y2   :     0.152094
      dxy     :     0.103174
      f0      :     0.014742  f :     0.180044
      f+1     :     0.016783
      f-1     :     0.020981
      f+2     :     0.017092
      f-2     :     0.024593
      f+3     :     0.043937
      f-3     :     0.041916

  2 O s       :     3.157283  s :     3.157283
      pz      :     1.121082  p :     3.756682
      px      :     1.244533
      py      :     1.391066
      dz2     :     0.025200  d :     0.232281
      dxz     :     0.010457
      dyz     :     0.046850
      dx2y2   :     0.057691
      dxy     :     0.092082
      f0      :     0.005326  f :     0.074446
      f+1     :     0.002185
      f-1     :     0.010586
      f+2     :     0.009099
      f-2     :     0.003222
      f+3     :     0.024324
      f-3     :     0.019704

  3 O s       :     2.955699  s :     2.955699
      pz      :     1.170649  p :     3.538466
      px      :     1.121033
      py      :     1.246785
      dz2     :     0.027923  d :     0.275224
      dxz     :     0.044546
      dyz     :     0.020923
      dx2y2   :     0.075795
      dxy     :     0.106037
      f0      :     0.004914  f :     0.068234
      f+1     :     0.007400
      f-1     :     0.003279
      f+2     :     0.002924
      f-2     :     0.008841
      f+3     :     0.027038
      f-3     :     0.013839

  4 H s       :     0.702082  s :     0.702082
      pz      :     0.183779  p :     0.622706
      px      :     0.182716
      py      :     0.256211
      dz2     :     0.035091  d :     0.366410
      dxz     :     0.049539
      dyz     :     0.062707
      dx2y2   :     0.124514
      dxy     :     0.094560

  5 H s       :     0.621472  s :     0.621472
      pz      :     0.121363  p :     0.390878
      px      :     0.147019
      py      :     0.122495
      dz2     :     0.015826  d :     0.219853
      dxz     :     0.053451
      dyz     :     0.026951
      dx2y2   :     0.061351
      dxy     :     0.062274

  6 H s       :     0.601639  s :     0.601639
      pz      :     0.145637  p :     0.395983
      px      :     0.116980
      py      :     0.133365
      dz2     :     0.069680  d :     0.213089
      dxz     :     0.037311
      dyz     :     0.044254
      dx2y2   :     0.022825
      dxy     :     0.039019

  7 H s       :     0.601639  s :     0.601639
      pz      :     0.145637  p :     0.395983
      px      :     0.116980
      py      :     0.133365
      dz2     :     0.069680  d :     0.213089
      dxz     :     0.037311
      dyz     :     0.044254
      dx2y2   :     0.022825
      dxy     :     0.039019



                      *****************************
                      * MAYER POPULATION ANALYSIS *
                      *****************************

  NA   - Mulliken gross atomic population
  ZA   - Total nuclear charge
  QA   - Mulliken gross atomic charge
  VA   - Mayer's total valence
  BVA  - Mayer's bonded valence
  FA   - Mayer's free valence

  ATOM       NA         ZA         QA         VA         BVA        FA
  0 C      5.9186     6.0000     0.0814     4.2624     4.2624    -0.0000
  1 C      7.2986     6.0000    -1.2986     2.7364     2.7364    -0.0000
  2 O      8.2913     8.0000    -0.2913     2.2497     2.2497    -0.0000
  3 O      7.9600     8.0000     0.0400     2.2694     2.2694     0.0000
  4 H      1.0767     1.0000    -0.0767     1.5485     1.5485    -0.0000
  5 H      0.5120     1.0000     0.4880     0.9037     0.9037     0.0000
  6 H      0.4714     1.0000     0.5286     0.7886     0.7886    -0.0000
  7 H      0.4714     1.0000     0.5286     0.7885     0.7885    -0.0000

  Mayer bond orders larger than 0.100000
B(  0-C ,  1-C ) :   0.8301 B(  0-C ,  2-O ) :   1.8285 B(  0-C ,  3-O ) :   1.6226 
B(  1-C ,  3-O ) :  -0.2374 B(  1-C ,  5-H ) :   0.7399 B(  1-C ,  6-H ) :   0.7142 
B(  1-C ,  7-H ) :   0.7142 B(  2-O ,  4-H ) :   0.4454 B(  2-O ,  5-H ) :   0.1093 
B(  3-O ,  4-H ) :   0.9624 

-------
TIMINGS
-------

Total SCF time: 0 days 0 hours 0 min 49 sec 

Total time                  ....      49.370 sec
Sum of individual times     ....      48.227 sec  ( 97.7%)

SCF preparation             ....       0.301 sec  (  0.6%)
Fock matrix formation       ....      45.942 sec  ( 93.1%)
  Startup                   ....       0.022 sec  (  0.0% of F)
  Coulomb formation         ....      43.728 sec  ( 95.2% of F)
  XC integration            ....       2.821 sec  (  6.1% of F)
    XC Preparation          ....       0.000 sec  (  0.0% of XC)
    Basis function eval.    ....       0.466 sec  ( 16.5% of XC)
    Density eval.           ....       0.475 sec  ( 16.8% of XC)
    XC-Functional eval.     ....       0.064 sec  (  2.3% of XC)
    XC-Potential eval.      ....       1.244 sec  ( 44.1% of XC)
Diagonalization             ....       0.000 sec  (  0.0%)
Density matrix formation    ....       0.203 sec  (  0.4%)
Total Energy calculation    ....       0.059 sec  (  0.1%)
Population analysis         ....       0.017 sec  (  0.0%)
Orbital Transformation      ....       0.033 sec  (  0.1%)
Orbital Orthonormalization  ....       0.000 sec  (  0.0%)
DIIS solution               ....       1.582 sec  (  3.2%)
SOSCF solution              ....       0.092 sec  (  0.2%)
Finished LeanSCF after  49.4 sec

Maximum memory used throughout the entire LEANSCF-calculation: 19.0 MB


           ************************************************************
           *        Program running with 8 parallel MPI-processes     *
           *              working on a common directory               *
           ************************************************************

------------------------------------------------------------------------------
                         ORCA PROPERTY INTEGRAL CALCULATIONS
------------------------------------------------------------------------------

GBWName                                   ... /cluster/projects/nn14654k/ylvaos/basis_set_n_funcs/functionals/gga_c_pbe/CH3COOH/inp/CH3COOH_gga_c_pbe_augccpvtz.gbw
Number of atoms                           ...      8
Number of basis functions                 ...    300
Max core memory                           ...   4096 MB

Dipole integrals                          ... YES
Quadrupole integrals                      ... YES
Linear momentum integrals                 ...  NO
Angular momentum integrals                ...  NO
Higher moments length integrals           ...  NO
Higher moments velocity integrals         ...  NO
Kinetic energy integrals                  ...  NO
GIAO right hand sides                     ...  NO
GIAO dipole derivative integrals          ...  NO
SOC integrals                             ...  NO
EPR diamagnetic integrals (GIAO)          ...  NO
EPR gauge integrals                       ...  NO
Field gradient integrals                  ...  NO (   0 nuclei)
Spin-dipole/Fermi contact integrals       ...  NO (   0 nuclei)
Contact density integrals                 ...  NO (   0 nuclei)
Nucleus-orbit integrals                   ...  NO (   0 nuclei)
Geometric perturbations                   ...  NO (   8 nuclei)

Choice of electric origin   ... Center of mass
Position of electric origin ... ( -0.0657,  0.0975,  0.0000) 
Choice of magnetic origin   ... GIAO
Position of magnetic origin ... (  0.0000,  0.0000,  0.0000) 

Calculating integrals                     ... Electric Dipole (Length)     done (  0.0 sec)
Calculating integrals                     ... Electric Quadrupole (Length) done (  0.0 sec)

Property integrals calculated in   0.0 sec

Maximum memory used throughout the entire PROPINT-calculation: 16.2 MB
------------------------------------------------------------------------------
                           ORCA ORBITAL LOCALIZATION
------------------------------------------------------------------------------

Input orbitals are from                  ... /cluster/projects/nn14654k/ylvaos/basis_set_n_funcs/functionals/gga_c_pbe/CH3COOH/inp/CH3COOH_gga_c_pbe_augccpvtz.gbw
Output orbitals are to                   ... /cluster/projects/nn14654k/ylvaos/basis_set_n_funcs/functionals/gga_c_pbe/CH3COOH/inp/CH3COOH_gga_c_pbe_augccpvtz.loc
Max. number of iterations                ... 128
Localizations seeded randomly            ... on
Convergence tolerance                    ... 1.000e-06
Threshold for strong local MOs           ... 9.500e-01
Threshold for bond MOs                   ... 8.500e-01
Operator                                 ... 0
Orbital range for localization           ... 4 to 15
Localization criterion                   ... NEW-BOYS
Doing the dipole integrals               ... o.k.
Initial value of the localization sum :    47.169743
ITERATION   0 : L=   79.0184459719 DL=  3.18e+01 (AVERGE_DL)=    0.6946625850 
ITERATION   1 : L=   82.7021475085 DL=  3.68e+00 (AVERGE_DL)=    0.2362491474 
ITERATION   2 : L=   82.7846548301 DL=  8.25e-02 (AVERGE_DL)=    0.0353569078 
ITERATION   3 : L=   82.7890525905 DL=  4.40e-03 (AVERGE_DL)=    0.0081628876 
ITERATION   4 : L=   82.7935068608 DL=  4.45e-03 (AVERGE_DL)=    0.0082151654 
ITERATION   5 : L=   82.8012290896 DL=  7.72e-03 (AVERGE_DL)=    0.0108168141 
ITERATION   6 : L=   82.8108456818 DL=  9.62e-03 (AVERGE_DL)=    0.0120708717 
ITERATION   7 : L=   82.8192945760 DL=  8.45e-03 (AVERGE_DL)=    0.0113143072 
ITERATION   8 : L=   82.8252210648 DL=  5.93e-03 (AVERGE_DL)=    0.0094760374 
ITERATION   9 : L=   82.8290081234 DL=  3.79e-03 (AVERGE_DL)=    0.0075749374 
ITERATION  10 : L=   82.8313884606 DL=  2.38e-03 (AVERGE_DL)=    0.0060054737 
ITERATION  11 : L=   82.8329093441 DL=  1.52e-03 (AVERGE_DL)=    0.0048003843 
ITERATION  12 : L=   82.8339085277 DL=  9.99e-04 (AVERGE_DL)=    0.0038909054 
ITERATION  13 : L=   82.8345850927 DL=  6.77e-04 (AVERGE_DL)=    0.0032017160 
ITERATION  14 : L=   82.8350566546 DL=  4.72e-04 (AVERGE_DL)=    0.0026729904 
ITERATION  15 : L=   82.8353941263 DL=  3.37e-04 (AVERGE_DL)=    0.0022612403 
ITERATION  16 : L=   82.8356413997 DL=  2.47e-04 (AVERGE_DL)=    0.0019356049 
ITERATION  17 : L=   82.8358264136 DL=  1.85e-04 (AVERGE_DL)=    0.0016742884 
ITERATION  18 : L=   82.8359674267 DL=  1.41e-04 (AVERGE_DL)=    0.0014616980 
ITERATION  19 : L=   82.8360766735 DL=  1.09e-04 (AVERGE_DL)=    0.0012865674 
ITERATION  20 : L=   82.8361625490 DL=  8.59e-05 (AVERGE_DL)=    0.0011406769 
ITERATION  21 : L=   82.8362309263 DL=  6.84e-05 (AVERGE_DL)=    0.0010178506 
ITERATION  22 : L=   82.8362860057 DL=  5.51e-05 (AVERGE_DL)=    0.0009135289 
ITERATION  23 : L=   82.8363308312 DL=  4.48e-05 (AVERGE_DL)=    0.0008241203 
ITERATION  24 : L=   82.8363676542 DL=  3.68e-05 (AVERGE_DL)=    0.0007469434 
ITERATION  25 : L=   82.8363981593 DL=  3.05e-05 (AVERGE_DL)=    0.0006798523 
ITERATION  26 : L=   82.8364236221 DL=  2.55e-05 (AVERGE_DL)=    0.0006211277 
ITERATION  27 : L=   82.8364450251 DL=  2.14e-05 (AVERGE_DL)=    0.0005694632 
ITERATION  28 : L=   82.8364631290 DL=  1.81e-05 (AVERGE_DL)=    0.0005237378 
ITERATION  29 : L=   82.8364785321 DL=  1.54e-05 (AVERGE_DL)=    0.0004830942 
ITERATION  30 : L=   82.8364917050 DL=  1.32e-05 (AVERGE_DL)=    0.0004467552 
ITERATION  31 : L=   82.8365030274 DL=  1.13e-05 (AVERGE_DL)=    0.0004141874 
ITERATION  32 : L=   82.8365128023 DL=  9.77e-06 (AVERGE_DL)=    0.0003848427 
ITERATION  33 : L=   82.8365212774 DL=  8.48e-06 (AVERGE_DL)=    0.0003583446 
ITERATION  34 : L=   82.8365286534 DL=  7.38e-06 (AVERGE_DL)=    0.0003343025 
ITERATION  35 : L=   82.8365350963 DL=  6.44e-06 (AVERGE_DL)=    0.0003124397 
ITERATION  36 : L=   82.8365407418 DL=  5.65e-06 (AVERGE_DL)=    0.0002924702 
ITERATION  37 : L=   82.8365457050 DL=  4.96e-06 (AVERGE_DL)=    0.0002742269 
ITERATION  38 : L=   82.8365500801 DL=  4.38e-06 (AVERGE_DL)=    0.0002574647 
ITERATION  39 : L=   82.8365539483 DL=  3.87e-06 (AVERGE_DL)=    0.0002420954 
ITERATION  40 : L=   82.8365573762 DL=  3.43e-06 (AVERGE_DL)=    0.0002278985 
ITERATION  41 : L=   82.8365604217 DL=  3.05e-06 (AVERGE_DL)=    0.0002148094 
ITERATION  42 : L=   82.8365631327 DL=  2.71e-06 (AVERGE_DL)=    0.0002026726 
ITERATION  43 : L=   82.8365655514 DL=  2.42e-06 (AVERGE_DL)=    0.0001914353 
ITERATION  44 : L=   82.8365677136 DL=  2.16e-06 (AVERGE_DL)=    0.0001809991 
ITERATION  45 : L=   82.8365696503 DL=  1.94e-06 (AVERGE_DL)=    0.0001713008 
ITERATION  46 : L=   82.8365713873 DL=  1.74e-06 (AVERGE_DL)=    0.0001622263 
ITERATION  47 : L=   82.8365729489 DL=  1.56e-06 (AVERGE_DL)=    0.0001538199 
ITERATION  48 : L=   82.8365743545 DL=  1.41e-06 (AVERGE_DL)=    0.0001459338 
ITERATION  49 : L=   82.8365756209 DL=  1.27e-06 (AVERGE_DL)=    0.0001385243 
ITERATION  50 : L=   82.8365767641 DL=  1.14e-06 (AVERGE_DL)=    0.0001316091 
ITERATION  51 : L=   82.8365777971 DL=  1.03e-06 (AVERGE_DL)=    0.0001251027 
ITERATION  52 : L=   82.8365787326 DL=  9.36e-07 (AVERGE_DL)=    0.0001190618 
LOCALIZATION SUM CONVERGED


--------------------------------------------------------------------------------
                    LOCALIZED MOLECULAR ORBITAL COMPOSITIONS
--------------------------------------------------------------------------------

The Mulliken populations for each LMO on each atom are computed
The LMO`s will be ordered according to atom index and type
  (A) Strongly localized MO`s have populations of >=0.950 on one atom
  (B) Two center bond orbitals have populations of >=0.850 on two atoms
  (C) Other MO`s are considered to be `delocalized`

FOUND  -   1 strongly local MO`s
       -  11 two center bond MO`s
       -   0 significantly delocalized MO`s

Rather strongly localized orbitals:
MO   4:   3O  -   0.972549
Bond-like localized orbitals:
MO  15:   7H  -   0.184787  and   1C  -   0.798879
MO  14:   6H  -   0.184751  and   1C  -   0.798900
MO  13:   4H  -   0.345633  and   3O  -   0.645764
MO  12:   3O  -  -0.000950  and   1C  -   0.853836
MO  11:   3O  -   0.680073  and   0C  -   0.380271
MO  10:   3O  -   0.769973  and   0C  -   0.269533
MO   9:   2O  -   0.658839  and   0C  -   0.395955
MO   8:   2O  -   0.918767  and   0C  -  -0.000263
MO   7:   2O  -   0.659175  and   0C  -   0.395471
MO   6:   2O  -   0.944664  and   0C  -   0.026772
MO   5:   1C  -   0.385603  and   0C  -   0.608753
Localized MO's were stored in: /cluster/projects/nn14654k/ylvaos/basis_set_n_funcs/functionals/gga_c_pbe/CH3COOH/inp/CH3COOH_gga_c_pbe_augccpvtz.loc

-------------------------   --------------------
FINAL SINGLE POINT ENERGY      -201.769235457129
-------------------------   --------------------



           ************************************************************
           *        Program running with 8 parallel MPI-processes     *
           *              working on a common directory               *
           ************************************************************

------------------------------------------------------------------------------
                              ORCA PROPERTY CALCULATIONS
------------------------------------------------------------------------------

GBWName                                 ... /cluster/projects/nn14654k/ylvaos/basis_set_n_funcs/functionals/gga_c_pbe/CH3COOH/inp/CH3COOH_gga_c_pbe_augccpvtz.gbw
Number of atoms                         ...      8
Number of basis functions               ...    300
Max core memory                         ...   4096 MB

Electric properties:
Dipole moment                           ... YES
Quadrupole moment                       ... YES
Static polarizability (Dipole/Dipole)   ...  NO
Static polarizability (Dipole/Quad.)    ...  NO
Static polarizability (Quad./Quad.)     ...  NO
Static polarizability (Velocity)        ...  NO
Static hyperpolarizability              ...  NO

Atomic electric properties:
Dipole moment                           ...  NO
Quadrupole moment                       ...  NO
Static polarizability                   ...  NO

Choice of electric origin               ... Center of mass
Position of electric origin             ...    -0.065707     0.097461     0.000000

General magnetic properties:
Magnetizability                         ...  NO

EPR properties:
g-Tensor (aka g-matrix)                 ...  NO
Zero-Field splitting spin-orbit         ...  NO
Zero-field splitting spin-spin          ...  NO
Hyperfine couplings                     ...  NO (   0 nuclei)
Quadrupole couplings                    ...  NO (   0 nuclei)
Contact density                         ...  NO (   0 nuclei)

NMR properties:
Chemical shifts                         ...  NO (   0 nuclei)
Spin-rotation constants                 ...  NO (   0 nuclei)
Spin-spin couplings                     ...  NO (   0 nuclei,    0 pairs)

Choice of magnetic origin               ... GIAO
Position of magnetic origin             ...     0.000000     0.000000     0.000000

Properties with geometric perturbations:
SCF Hessian                             ...  NO
IR spectrum                             ...  NO
VCD spectrum                            ...  NO
X-ray spectroscopy properties:
SCF XES/XAS/RIXS spectra                ...  NO

SCF SOC stabilization energy            ...  NO
Diagonal Born-Oppenheimer correction    ...  NO

-------------
DIPOLE MOMENT
-------------

Method             : SCF
Type of density    : Electron Density
Multiplicity       :   1
Irrep              :   0
Energy             :  -201.7692354571292981 Eh
Basis              : AO
                                X                 Y                 Z
Electronic contribution:     -1.776431370       2.551963251       0.000000027
Nuclear contribution   :      2.102617427      -3.118765285       0.000000000
                        -----------------------------------------
Total Dipole Moment    :      0.326186057      -0.566802033       0.000000027
                        -----------------------------------------
Magnitude (a.u.)       :      0.653958629
Magnitude (Debye)      :      1.662230736



--------------------
Rotational spectrum 
--------------------
 
Rotational constants in cm-1:             0.373252             0.316126             0.176788 
Rotational constants in MHz :         11189.819630          9477.229268          5299.974115 

Dipole components along the rotational axes: 
x,y,z [a.u.] :    -0.616178    -0.219059     0.000000 
x,y,z [Debye]:    -1.566199    -0.556805     0.000000 

 

Dipole moment calculation done in   0.0 sec 

-----------------
QUADRUPOLE MOMENT
-----------------

Method             : SCF
Type of density    : Electron Density
Multiplicity       :   1
Irrep              :   0
Energy             :  -201.7692354571292981 Eh
Basis              : AO

                XX              YY              ZZ              XY              XZ              YZ
  NUC      103.447904006    93.335807526     5.552847104   -15.402641721     0.000000000     0.000000000
  EL      -133.198418803  -124.965892417   -32.947693605    14.069765783     0.000000434    -0.000000060
  TOT      -29.750514797   -31.630084891   -27.394846501    -1.332875938     0.000000434    -0.000000060 (a.u.)
           -40.015459870   -42.543545927   -36.847005448    -1.792763720     0.000000584    -0.000000081 (Buckingham)

diagonalized tensor:
           -32.321175130   -29.059424558   -27.394846501 (a.u.)
           -43.473085934   -39.085919863   -36.847005448 (Buckingham)
           -11.013246558     2.148251656     8.864994902 (traceless form in Buckingham)

            -0.460301093    -0.887762865     0.000000234
            -0.887762865     0.460301093    -0.000000088
             0.000000030     0.000000248     1.000000000
        
Isotropic quadrupole :   -29.591815396

Quadrupole moment calculation done in   0.0 sec (  0.0 sec for integrals)

Maximum memory used throughout the entire PROP-calculation: 13.2 MB

--------------------------------
SUGGESTED CITATIONS FOR THIS RUN
--------------------------------

Below you find a list of papers that are relevant to this ORCA run
We neither can nor want to force you to cite these papers, but we appreciate if you do
You receive ORCA, which is the product of decades of hard work by many enthusiastic individuals, for free
The only thing we kindly ask in return is that you cite our papers,
We deeply appreciate it, if you show your appreciation for ORCA by not just citing the generic ORCA reference.

Please note that relegating all ORCA citations to the supporting information does *not* help us.
SI sections are not indexed - citations you put there will not count into any citation statistics
But we need these citations in order to attract the funding resources that allow us to do what we are doing

Therefore, if you are a happy ORCA user, please consider citing a few of the papers listed below in the main body of your paper

In addition to the list printed below, the program has created the file /cluster/projects/nn14654k/ylvaos/basis_set_n_funcs/functionals/gga_c_pbe/CH3COOH/inp/CH3COOH_gga_c_pbe_augccpvtz.bibtex that contains the list in bibtex format
You can import this file easily into all common literature databanks and citation aid programs

It goes without saying that in many instances, there are alternative algorithms to achieve similar
results as the ones you have gotten from ORCA. It is, of course, also the case that in some instances
ORCA just re-implements algorithms worked out by others. We are fully aware of that and we are also
fully appreciative of our colleagues work. Hence this citation list should not be read as indicating
that the listed papers, which are focused on our own work, are the only ones worth citing. It simply
meant to make it easier for users to cite ORCA specific papers. It is not a substitute for doing your
own literature research and citing the relevant literature in a scientifically appropriate manner.

List of essential papers. We consider these as the minimum necessary citations

  1. Neese, F.
     Software update: the ORCA program system, version 6.0
     WIRES Comput. Molec. Sci. 2025 15(1), e70019
     doi.org/10.1002/wcms.70019

List of papers to cite with high priority. The work reported in these papers was absolutely
necessary for this run to complete.
Our perspective: the developers of density functionals and basis sets usually get cited in chemistry papers
Good! But without the algorithms to do something with them, the functionals or basis sets would not do anything.
Hence, in our opinion, the algorithm design and method developments papers are equally worthy of getting cited

  1. Lehtola, S.; Steigemann, C.; Oliveira, M.; Marques, M.
     Recent developments in Libxc - A comprehensive library of functionals for density functional theory
     Software X 2018 7 , 
     doi.org/10.1016/j.softx.2017.11.002
  2. Neese, F.
     The SHARK Integral Generation and Digestion System
     J. Comp. Chem. 2022 44(3), 381
     doi.org/10.1002/jcc.26942

List of suggested additional citations. These are papers that are important in the 'surrounding' of 
of this run, or papers that preceded the highly important papers. If you like your results we are grateful for a citation.

  1. Neese, F.
     The ORCA program system
     WIRES Comput. Molec. Sci. 2012 2(1), 73-78
     doi.org/10.1002/wcms.81
  2. Neese, F.
     Software update: the ORCA program system, version 4.0
     WIRES Comput. Molec. Sci. 2018 8(1), 1-6
     doi.org/10.1002/wcms.1327
  3. Neese, F.; Wennmohs, F.; Becker, U.; Riplinger, C.
     The ORCA quantum chemistry program package
     J. Chem. Phys. 2020 152(22), 224108
     doi.org/10.1063/5.0004608
  4. Neese, F.
     Software update: The ORCA program system—Version 5.0
     WIRES Comput. Molec. Sci. 2022 12(1), e1606
     doi.org/10.1002/wcms.1606

List of optional additional citations

  1. Neese, F.
     Approximate second-order SCF convergence for spin unrestricted wavefunctions
     Chem. Phys. Lett. 2000 325(1-3), 93-98
     doi.org/10.1016/s0009-2614(00)00662-x

Timings for individual modules:

Sum of individual times          ...       51.504 sec (=   0.858 min)
Startup calculation              ...        0.939 sec (=   0.016 min)   1.8 %
SCF iterations                   ...       50.016 sec (=   0.834 min)  97.1 %
Property integrals               ...        0.272 sec (=   0.005 min)   0.5 %
Property calculations            ...        0.267 sec (=   0.004 min)   0.5 %
Orbital localization             ...        0.008 sec (=   0.000 min)   0.0 %
                             ****ORCA TERMINATED NORMALLY****
TOTAL RUN TIME: 0 days 0 hours 0 minutes 52 seconds 439 msec
