
                                 *****************
                                 * O   R   C   A *
                                 *****************

                                            #,                                       
                                            ###                                      
                                            ####                                     
                                            #####                                    
                                            ######                                   
                                           ########,                                 
                                     ,,################,,,,,                         
                               ,,#################################,,                 
                          ,,##########################################,,             
                       ,#########################################, ''#####,          
                    ,#############################################,,   '####,        
                  ,##################################################,,,,####,       
                ,###########''''           ''''###############################       
              ,#####''   ,,,,##########,,,,          '''####'''          '####       
            ,##' ,,,,###########################,,,                        '##       
           ' ,,###''''                  '''############,,,                           
         ,,##''                                '''############,,,,        ,,,,,,###''
      ,#''                                            '''#######################'''  
     '                                                          ''''####''''         
             ,#######,   #######,   ,#######,      ##                                
            ,#'     '#,  ##    ##  ,#'     '#,    #''#        ,####,    ,#,          
            ##       ##  ##   ,#'  ##            #'  '#       #'       ,# #          
            ##       ##  #######   ##           ,######,      #####,      #          
            '#,     ,#'  ##    ##  '#,     ,#' ,#      #,     #,   #      #          
             '#######'   ##     ##  '#######'  #'      '#     '####' #    #          



                #########################################################
                #                        -***-                          #
                #          Department of theory and spectroscopy        #
                #                                                       #
                #                      Frank Neese                      #
                #                                                       #
                #     Directorship, Architecture, Infrastructure        #
                #                    SHARK, DRIVERS                     #
                #        Core code/Algorithms in most modules           #
                #                                                       #
                #        Max Planck Institute fuer Kohlenforschung      #
                #                Kaiser Wilhelm Platz 1                 #
                #                 D-45470 Muelheim/Ruhr                 #
                #                      Germany                          #
                #                                                       #
                #                  All rights reserved                  #
                #                        -***-                          #
                #########################################################


                         Program Version 6.1.1  -  RELEASE   -
                                (GIT: $487d211c$)
                          ($2025-11-21 10:33:24 +0100$)


 With contributions from (in alphabetic order):
[Max-Planck-Institut fuer Kohlenforschung]                               
  Daniel Aravena         : Magnetic Suceptibility                        
  Michael Atanasov       : Ab Initio Ligand Field Theory (pilot matlab implementation)
  Alexander A. Auer      : GIAO ZORA, VPT2 properties, NMR spectrum      
  Ute Becker             : All parallelization in ORCA, NUMFREQ, NUMCALC 
  Giovanni Bistoni       : ED, misc. LED, open-shell LED, HFLD           
  Dmytro Bykov           : pre 5.0 version of the SCF Hessian            
  Marcos Casanova-Páez   : Triplet and SCS-CIS(D). UHF-(DLPNO)-IP/EA/STEOM-CCSD. UHF-CVS-IP/STEOM-CCSD   
  Vijay G. Chilkuri      : MRCI spin determinant printing, contributions to CSF-ICE 
  Pauline Colinet        : FMM embedding                                 
  Dipayan Datta          : RHF DLPNO-CCSD density                        
  Achintya Kumar Dutta   : EOM-CC, STEOM-CC                              
  Nicolas Foglia         : Exact transition moments, OPA infrastructure, MCD improvements    
  Dmitry Ganyushin       : Spin-Orbit,Spin-Spin,Magnetic field MRCI      
  Miquel Garcia-Rates    : C-PCM and meta-GGA Hessian, CCSD/C-PCM, Gaussian charge scheme 
  Tiago L. C. Gouveia    : GS-ROHF, GS-ROCIS                             
  Yang Guo               : DLPNO-NEVPT2, F12-NEVPT2, CIM, IAO-localization        
  Andreas Hansen         : Spin unrestricted coupled pair/coupled cluster methods 
  Ingolf Harden          : AUTO-CI MPn and infrastructure                
  Benjamin Helmich-Paris : MC-RPA, TRAH-(SCF,CASSCF), AVAS, COSX integrals, SCF dyn. polar., MC-PDFT, srDFT 
  Lee Huntington         : MR-EOM, pCC                                   
  Robert Izsak           : Overlap fitted RIJCOSX, COSX-SCS-MP3, EOM     
  Riya Kayal             : Wick's Theorem for AUTO-CI, AUTO-CI UHF-CCSDT 
  Emily Kempfer          : AUTO-CI RHF CISDT and CCSDT, approximate NEVPT4
  Christian Kollmar      : KDIIS, OOCD, Brueckner-CCSD(T), CCSD density, CASPT2, CASPT2-K, improved NEVPT2 
  Axel Koslowski         : Symmetry handling                             
  Simone Kossmann        : meta-GGA functionals, TD-DFT gradient, OOMP2, (MP2 Hessian; deprecated post 5.0) 
  Lucas Lang             : DCDCAS, Hyperfine gauge corrections, ICE-SOC+SSC
  Marvin Lechner         : AUTO-CI (C++ implementation), FIC-MRCC        
  Spencer Leger          : CASSCF response                               
  Dagmar Lenk            : GEPOL surface, SMD, ORCA-2-JSON               
  Dimitrios Liakos       : Extrapolation schemes; Compound Job, Property file
  Dimitrios Manganas     : Further ROCIS development; embedding schemes. LFT, Crystal Embedding 
  Dimitrios Pantazis     : SARC Basis sets                               
  Anastasios Papadopoulos: AUTO-CI, single reference methods and gradients 
  Taras Petrenko         : pre 6.0 DFT Hessian and TD-DFT gradient,  ECA, NRVS 
  Petra Pikulova         : Analytic Raman intensities                    
  Peter Pinski           : DLPNO-MP2, DLPNO-MP2 Gradient                 
  Shashank Vittal Rao    : ES-AILFT, MagRelax                            
  Christoph Reimann      : Effective Core Potentials                     
  Marius Retegan         : Local ZFS, SOC                                
  Christoph Riplinger    : Optimizer, TS searches, QM/MM, DLPNO-CCSD(T), (RO)-DLPNO pert. Triples 
  Michael Roemelt        : Original ROCIS implementation, recursive CI coupling coefficients
  Masaaki Saitow         : Open-shell DLPNO-CCSD energy and density      
  Barbara Sandhoefer     : DKH picture change effects                    
  Yorick L. A. Schmerwitz: GMF and freeze-and-release deltaSCF, NEB S-IDPP initial path                    
  Kantharuban Sivalingam : CASSCF convergence/infrastructure, NEVPT2, NEVPT3, NEVPT4(SD), FIC-MRCI and CEPA variants
  Bernardo de Souza      : ESD, SOC TD-DFT                               
  Georgi L. Stoychev     : AutoAux, RI-MP2 NMR, DLPNO-MP2 response, X2C  
  Van Anh Tran           : RI-MP2 g-tensors                              
  Willem Van den Heuvel  : Paramagnetic NMR                              
  Zikuan Wang            : NOTCH, Electric field optimization            
  Frank Wennmohs         : Technical directorship and infrastructure     
  Hang Xu                : AUTO-CI-Response properties                   
                                                                         
[FACCTs GmbH]                                                            
  Markus Bursch, Nicolas Foglia, Miquel Garcia-Rates, Ingolf Harden, Hagen Neugebauer, Anastasios Papadopoulos, 
  Christoph Riplinger, Bernardo de Souza, Georgi L. Stoychev                                                    
                                                                 
  APM, various basis sets, CI-OPT, improved COSX, DLPNO-Multilevel,           
  DOCKER, DRACO, updates on ESD, Fragmentator, GOAT, IRC, LR-CPCM, L-BFGS, MBIS, meta-GGA TD-DFT gradient, ML-optimized integration grids, 
  MM, NACMEs, nearIR, NEB, NEB-TS, NL-DFT gradient (VV10), 2- and 3-layer-ONIOM, interface openCOSMO-RS, QMMM,   
  Crystal-QMMM, RESP, rigid body optimization, SF, symmetry and pop. for TD-DFT, various functionals, SOLVATOR                                   
                                                                         
[Other institutions]                                                     
  V. Asgeirsson          : NEB                                           
  Christoph Bannwarth    : sTDA-DFT, sTD-DFT, PBEh-3c, B97-3c, D3        
  Giovanni Bistoni       : ETS/NOCV, ADLD/ADEX, COVALED                  
  Martin Brehm           : Molecular dynamics                            
  Ronald Cardenas        : ETS/NOCV                                      
  Martina Colucci        : COVALED                                       
  Sebastian Ehlert       : rSCAN, r2SCAN, r2SCAN-3c, D4, dhf basis sets  
  Marvin Friede          : D4 for Fr, Ra, Ac-Lr                          
  Lars Goerigk           : TD-DFT with DH, B97 family of functionals     
  Stefan Grimme          : VdW corrections, initial TS optimization, DFT functionals, gCP, sTDA/sTD-DF 
  Waldemar Hujo          : DFT-NL                                        
  H. Jonsson             : NEB                                           
  Holger Kruse           : gCP                                           
  Marcel Mueller         : wB97X-3c, vDZP basis set                      
  Hagen Neugebauer       : wr2SCAN, Native XTB                           
  Gianluca Regni         : ADLD/ADEX                                     
  Tobias Risthaus        : pre 6.0 range-separated hybrid DFT and stability analysis
  Lukas Wittmann         : regularized MP2, r2SCAN double-hybrids, wr2SCAN        
                                                                         
We gratefully acknowledge several colleagues who have allowed us to      
interface, adapt or use parts of their codes:                            
  Ed Valeev, F. Pavosevic, A. Kumar             : LibInt (2-el integral package), F12 methods 
  Garnet Chan, S. Sharma, J. Yang, R. Olivares  : DMRG                   
  Ulf Ekstrom                                   : XCFun DFT Library      
  Mihaly Kallay                                 : mrcc  (arbitrary order and MRCC methods)
  Frank Weinhold                                : gennbo (NPA and NBO analysis)           
  Simon Mueller                                 : openCOSMO-RS                            
  Christopher J. Cramer and Donald G. Truhlar   : smd solvation model                     
  S Lehtola, MJT Oliveira, MAL Marques          : LibXC Library                           
  Liviu Ungur et al                             : ANISO software                          


 Your calculation uses the libint2 library for the computation of 2-el integrals
 For citations please refer to: http://libint.valeyev.net

 Your ORCA version has been built with support for libXC version: 7.0.0
 For citations please refer to: https://libxc.gitlab.io

 This ORCA versions uses:
   CBLAS   interface :  Fast vector & matrix operations
   LAPACKE interface :  Fast linear algebra routines
   SCALAPACK package :  Parallel linear algebra routines
   Shared memory     :  Shared parallel matrices
   BLAS/LAPACK       :  OpenBLAS 0.3.29  USE64BITINT DYNAMIC_ARCH NO_AFFINITY Cooperlake SINGLE_THREADED
        Core in use  :  Cooperlake
   Copyright (c) 2011-2014, The OpenBLAS Project


  ***********************************
  * Starting time: Wed May 20 12:42:17 2026
  * Host name:     c1-40
  * Process ID:    784753
  * Working dir.:  /cluster/projects/nn14654k/ylvaos/basis_set_n_funcs/functionals/pw91/SiH2/out
  ***********************************

Using LibXC functional ID 109 : Perdew & Wang 91
[ 1]  J. P. Perdew. In P. Ziesche and H. Eschrig, editors, Proceedings of the 75. WE-Heraeus-Seminar and 21st Annual International Symposium on Electronic Structure of Solids, 11. Berlin, 1991. Akademie Verlag.
[ 2]  J. P. Perdew, J. A. Chevary, S. H. Vosko, K. A. Jackson, M. R. Pederson, D. J. Singh, and C. Fiolhais.,  Phys. Rev. B 46, 6671 (1992)
[ 3]  J. P. Perdew, J. A. Chevary, S. H. Vosko, K. A. Jackson, M. R. Pederson, D. J. Singh, and C. Fiolhais.,  Phys. Rev. B 48, 4978 (1993)
Using LibXC functional ID 134 : Perdew & Wang 91
[ 1]  J. P. Perdew. In P. Ziesche and H. Eschrig, editors, Proceedings of the 75. WE-Heraeus-Seminar and 21st Annual International Symposium on Electronic Structure of Solids, 11. Berlin, 1991. Akademie Verlag.
[ 2]  J. P. Perdew, J. A. Chevary, S. H. Vosko, K. A. Jackson, M. R. Pederson, D. J. Singh, and C. Fiolhais.,  Phys. Rev. B 46, 6671 (1992)
[ 3]  J. P. Perdew, J. A. Chevary, S. H. Vosko, K. A. Jackson, M. R. Pederson, D. J. Singh, and C. Fiolhais.,  Phys. Rev. B 48, 4978 (1993)
Using LibXC functional ID 109 : Perdew & Wang 91
[ 1]  J. P. Perdew. In P. Ziesche and H. Eschrig, editors, Proceedings of the 75. WE-Heraeus-Seminar and 21st Annual International Symposium on Electronic Structure of Solids, 11. Berlin, 1991. Akademie Verlag.
[ 2]  J. P. Perdew, J. A. Chevary, S. H. Vosko, K. A. Jackson, M. R. Pederson, D. J. Singh, and C. Fiolhais.,  Phys. Rev. B 46, 6671 (1992)
[ 3]  J. P. Perdew, J. A. Chevary, S. H. Vosko, K. A. Jackson, M. R. Pederson, D. J. Singh, and C. Fiolhais.,  Phys. Rev. B 48, 4978 (1993)
Using LibXC functional ID 134 : Perdew & Wang 91
[ 1]  J. P. Perdew. In P. Ziesche and H. Eschrig, editors, Proceedings of the 75. WE-Heraeus-Seminar and 21st Annual International Symposium on Electronic Structure of Solids, 11. Berlin, 1991. Akademie Verlag.
[ 2]  J. P. Perdew, J. A. Chevary, S. H. Vosko, K. A. Jackson, M. R. Pederson, D. J. Singh, and C. Fiolhais.,  Phys. Rev. B 46, 6671 (1992)
[ 3]  J. P. Perdew, J. A. Chevary, S. H. Vosko, K. A. Jackson, M. R. Pederson, D. J. Singh, and C. Fiolhais.,  Phys. Rev. B 48, 4978 (1993)
Your calculation utilizes LibXC
by S. Lehtola, C. Steigemann, M. J. T. Oliveira & M. A. L. Marques
Please cite in your paper:
Lehtola, S.; Steigemann, C.; Oliveira, M.J.T.; Marques, M. A. L. Software X, 7, (2018), 1.
   

================================================================================

----- Orbital basis set information -----
Your calculation utilizes the basis: cc-pVQZ 
       H, B-Ne : Obtained from the ccRepo (grant-hill.group.shef.ac.uk/ccrepo) Feb. 2017
                 T. H. Dunning, Jr., J. Chem. Phys. 90, 1007 (1989)
            He : Obtained from the ccRepo (grant-hill.group.shef.ac.uk/ccrepo) Feb. 2017
                 D. E. Woon, T. H. Dunning, Jr., J. Chem. Phys. 100, 2975 (1994)
  Li-Be, Na-Mg : Obtained from the ccRepo (grant-hill.group.shef.ac.uk/ccrepo) Feb. 2017
                 B. P. Prascher, D. E. Woon, K. A. Peterson, T. H. Dunning, Jr., A. K. Wilson, Theor. Chem. Acc. 128, 69 (2011)
         Al-Ar : Obtained from the ccRepo (grant-hill.group.shef.ac.uk/ccrepo) Feb. 2017
                 D. E. Woon, T. H. Dunning, Jr., J. Chem. Phys. 98, 1358 (1993)
            Ca : Obtained from the Peterson Research Group Website (tyr0.chem.wsu.edu/~kipeters) Feb. 2017
                 J. Koput, K. A. Peterson, J. Phys. Chem. 106, 9595 (2002)
         Sc-Zn : Obtained from the ccRepo (grant-hill.group.shef.ac.uk/ccrepo) Feb. 2017
                 N. B. Balabanov, K. A. Peterson, J. Chem. Phys. 123, 064107 (2005)
                 N. B. Balabanov, K. A. Peterson, J. Chem. Phys. 125, 074110 (2006)
         Ga-Kr : Obtained from the ccRepo (grant-hill.group.shef.ac.uk/ccrepo) Feb. 2017
                 A. K. Wilson, D. E. Woon, K. A. Peterson, T. H. Dunning, Jr., J. Chem. Phys. 110, 7667 (1999)

================================================================================
                                        WARNINGS
                       Please study these warnings very carefully!
================================================================================


================================================================================
                                       INPUT FILE
================================================================================
NAME = /cluster/projects/nn14654k/ylvaos/basis_set_n_funcs/functionals/pw91/SiH2/inp/SiH2_pw91_ccpvqz.inp
|  1> ! dft cc-pVQZ TightSCF
|  2> %pal nprocs 8 end
|  3> 
|  4> %loc
|  5>   LocMet NewBoys
|  6>   Occ true
|  7> end
|  8> 
|  9> %method
| 10>   exchange gga_x_pw91
| 11>   correlation gga_c_pw91
| 12> end
| 13> 
| 14> %elprop
| 15>   Dipole true
| 16>   Quadrupole true
| 17> end
| 18> 
| 19> * xyz 0 1
| 20> Si    0.000000000000   0.000000000000   0.000000000000
| 21> H    0.000000000000   0.000000000000  -1.514100000000
| 22> H    0.000000000000   1.513200000000   0.052800000000
| 23> *
| 24> 
| 25> 
| 26>                          ****END OF INPUT****
================================================================================

                       ****************************
                       * Single Point Calculation *
                       ****************************

---------------------------------
CARTESIAN COORDINATES (ANGSTROEM)
---------------------------------
  Si     0.000000    0.000000    0.000000
  H      0.000000    0.000000   -1.514100
  H      0.000000    1.513200    0.052800

----------------------------
CARTESIAN COORDINATES (A.U.)
----------------------------
  NO LB      ZA    FRAG     MASS         X           Y           Z
   0 Si   14.0000    0    28.086    0.000000    0.000000    0.000000
   1 H     1.0000    0     1.008    0.000000    0.000000   -2.861234
   2 H     1.0000    0     1.008    0.000000    2.859534    0.099778

--------------------------------
INTERNAL COORDINATES (ANGSTROEM)
--------------------------------
 Si     0   0   0     0.000000000000     0.00000000     0.00000000
 H      1   0   0     1.514100000000     0.00000000     0.00000000
 H      1   2   0     1.514120893456    91.99840755     0.00000000

---------------------------
INTERNAL COORDINATES (A.U.)
---------------------------
 Si     0   0   0     0.000000000000     0.00000000     0.00000000
 H      1   0   0     2.861234339370     0.00000000     0.00000000
 H      1   2   0     2.861273822280    91.99840755     0.00000000

---------------------
BASIS SET INFORMATION
---------------------
There are 2 groups of distinct atoms

 Group   1 Type Si  : 42s19p3d2f1g contracted to 6s5p3d2f1g pattern {131313111/88111/111/11/1}
 Group   2 Type H   : 6s3p2d1f contracted to 4s3p2d1f pattern {3111/111/11/1}

Atom   0Si   basis set group =>   1
Atom   1H    basis set group =>   2
Atom   2H    basis set group =>   2


           ************************************************************
           *        Program running with 8 parallel MPI-processes     *
           *              working on a common directory               *
           ************************************************************
------------------------------------------------------------------------------
                             ORCA STARTUP CALCULATIONS
------------------------------------------------------------------------------
------------------------------------------------------------------------------
                   ___                                                        
                  /   \      - P O W E R E D   B Y -                         
                 /     \                                                     
                 |  |  |   _    _      __       _____    __    __             
                 |  |  |  | |  | |    /  \     |  _  \  |  |  /  |          
                  \  \/   | |  | |   /    \    | | | |  |  | /  /          
                 / \  \   | |__| |  /  /\  \   | |_| |  |  |/  /          
                |  |  |   |  __  | /  /__\  \  |    /   |      \           
                |  |  |   | |  | | |   __   |  |    \   |  |\   \          
                \     /   | |  | | |  |  |  |  | |\  \  |  | \   \       
                 \___/    |_|  |_| |__|  |__|  |_| \__\ |__|  \__/        
                                                                              
                      - O R C A' S   B I G   F R I E N D -                    
                                      &                                       
                       - I N T E G R A L  F E E D E R -                       
                                                                              
 v1 FN, 2020, v2 2021, v3 2022-2024                                           
------------------------------------------------------------------------------


----------------------
SHARK INTEGRAL PACKAGE
----------------------

Number of atoms                             ...      3
Number of basis functions                   ...    147
Number of shells                            ...     53
Maximum angular momentum                    ...      4
Integral batch strategy                     ... SHARK/LIBINT Hybrid
RI-J (if used) integral strategy            ... SPLIT-RIJ (Revised 2003 algorithm where possible)
Printlevel                                  ...      1
Contraction scheme used                     ... PARTIAL GENERAL contraction
Prescreening option                         ... SCHWARTZ
   Thresh                                   ... 2.500e-11
   Tcut                                     ... 2.500e-12
   Tpresel                                  ... 2.500e-12 
Coulomb Range Separation                    ... NOT USED
Exchange Range Separation                   ... NOT USED
Multipole approximations                    ... NOT USED
Finite Nucleus Model                        ... NOT USED
CABS basis                                  ... NOT available
Auxiliary Coulomb fitting basis             ... NOT available
Auxiliary J/K fitting basis                 ... NOT available
Auxiliary Correlation fitting basis         ... NOT available
Auxiliary 'external' fitting basis          ... NOT available

Checking pre-screening integrals            ... done (  0.0 sec) Dimension = 53
Save PGC pre-screening integrals            ... done (  0.0 sec) Dimension = 53
Calculate PGC overlap integrals             ... done (  0.0 sec) Dimension = 37
Calculating pre-screening integrals (ORCA)  ... done (  0.1 sec) Dimension = 37
Shell pair information
Shell pair cut-off parameter TPreSel        ...   2.5e-12
Total number of shell pairs                 ...      1431
Shell pairs after pre-screening             ...      1422
Total number of primitive shell pairs       ...      1659
Primitive shell pairs kept                  ...      1568
          la=0 lb=0:    296 shell pairs
          la=1 lb=0:    408 shell pairs
          la=1 lb=1:    153 shell pairs
          la=2 lb=0:    168 shell pairs
          la=2 lb=1:    119 shell pairs
          la=2 lb=2:     28 shell pairs
          la=3 lb=0:     94 shell pairs
          la=3 lb=1:     68 shell pairs
          la=3 lb=2:     28 shell pairs
          la=3 lb=3:     10 shell pairs
          la=4 lb=0:     21 shell pairs
          la=4 lb=1:     17 shell pairs
          la=4 lb=2:      7 shell pairs
          la=4 lb=3:      4 shell pairs
          la=4 lb=4:      1 shell pairs

Checking whether 4 symmetric matrices of dimension 147 fit in memory
:Max Core in MB      =   4096.00
 MB in use           =      4.74
 MB left             =   4091.26
 MB needed           =      0.33
 Data fit in memory  = YES
Calculating Nuclear repulsion               ... done (  0.0 sec) ENN=     10.028851096195 Eh

Diagonalization of the overlap matrix:
Smallest eigenvalue                        ... 1.764e-04
Time for diagonalization                   ...    0.001 sec
Threshold for overlap eigenvalues          ... 1.000e-07
Number of eigenvalues below threshold      ... 0
Time for construction of square roots      ...    0.004 sec
Total time needed                          ...    0.007 sec

-------------------
DFT GRID GENERATION
-------------------

General Integration Accuracy     IntAcc      ... 4.388
Radial Grid Type                 RadialGrid  ... OptM3 with GC (2021)
Angular Grid (max. ang.)         AngularGrid ... 4 (Lebedev-302)
Angular grid pruning method      GridPruning ... 4 (adaptive)
Weight generation scheme         WeightScheme... mBecke (2022)
Basis function cutoff            BFCut       ... 1.0000e-11
Integration weight cutoff        WCut        ... 1.0000e-14
Partially contracted basis set               ... off
Rotationally invariant grid construction     ... off
Angular grids for H and He will be reduced by one unit

Total number of grid points                  ...    13986
Total number of batches                      ...      220
Average number of points per batch           ...       63
Average number of grid points per atom       ...     4662

---------------------
SHARK GRID GENERATION
---------------------

General Integration Accuracy     IntAcc      ... 4.388
Radial Grid Type                 RadialGrid  ... OptM3 with GC (2021)
Angular Grid (max. ang.)         AngularGrid ... 4 (Lebedev-302)
Angular grid pruning method      GridPruning ... 4 (adaptive)
Weight generation scheme         WeightScheme... mBecke (2022)
Basis function cutoff            BFCut       ... 1.0000e-11
Integration weight cutoff        WCut        ... 1.0000e-14
Partially contracted basis set               ... off
Rotationally invariant grid construction     ... off
Angular grids for H and He will be reduced by one unit
Core-polarized basis detected: some atoms will have their core
                               angular grid increased.
Steep s-basis detected: some atoms will have their radial
                        grid points doubled.

Total number of grid points                  ...    25951
Total number of batches                      ...      407
Average number of points per batch           ...       63
Average number of grid points per atom       ...     8650
Grids setup in   0.3 sec
Initializing property integral containers    ... done (  0.0 sec)

SHARK setup successfully completed in   0.5 seconds

Maximum memory used throughout the entire STARTUP-calculation: 58.2 MB


           ************************************************************
           *        Program running with 8 parallel MPI-processes     *
           *              working on a common directory               *
           ************************************************************
-------------------------------------------------------------------------------
                                 ORCA GUESS
                   Start orbitals & Density for SCF / CASSCF
-------------------------------------------------------------------------------

------------
SCF SETTINGS
------------
Hamiltonian:
 Density Functional     Method          .... DFT(GTOs)
  Functional kind                       .... Exchange
  Functional name                       .... Perdew & Wang 91
  Functional family                     .... GGA
  Functional refs                              
    [ 0] J. P. Perdew. In P. Ziesche and H. Eschrig, editors, Proceedings of the 75. WE-Heraeus-Seminar and 21st Annual International Symposium on Electronic Structure of Solids, 11. Berlin, 1991. Akademie Verlag.
    [ 1] J. P. Perdew, J. A. Chevary, S. H. Vosko, K. A. Jackson, M. R. Pederson, D. J. Singh, and C. Fiolhais.,  Phys. Rev. B 46, 6671 (1992), doi: 10.1103/PhysRevB.46.6671
    [ 2] J. P. Perdew, J. A. Chevary, S. H. Vosko, K. A. Jackson, M. R. Pederson, D. J. Singh, and C. Fiolhais.,  Phys. Rev. B 48, 4978 (1993), doi: 10.1103/PhysRevB.48.4978.2
  Functional external parameters        .... 7
    Parameter  0 _a         =  1.964500e-01 : a parameter         
    Parameter  1 _b         =  7.795600e+00 : b parameter         
    Parameter  2 _c         =  2.743000e-01 : c parameter         
    Parameter  3 _d         = -1.508000e-01 : d parameter         
    Parameter  4 _f         =  4.000000e-03 : f parameter         
    Parameter  5 _alpha     =  1.000000e+02 : alpha parameter     
    Parameter  6 _expo      =  4.000000e+00 : exponent            
  Functional kind                       .... Correlation
  Functional name                       .... Perdew & Wang 91
  Functional family                     .... GGA
  Functional refs                              
    [ 0] J. P. Perdew. In P. Ziesche and H. Eschrig, editors, Proceedings of the 75. WE-Heraeus-Seminar and 21st Annual International Symposium on Electronic Structure of Solids, 11. Berlin, 1991. Akademie Verlag.
    [ 1] J. P. Perdew, J. A. Chevary, S. H. Vosko, K. A. Jackson, M. R. Pederson, D. J. Singh, and C. Fiolhais.,  Phys. Rev. B 46, 6671 (1992), doi: 10.1103/PhysRevB.46.6671
    [ 2] J. P. Perdew, J. A. Chevary, S. H. Vosko, K. A. Jackson, M. R. Pederson, D. J. Singh, and C. Fiolhais.,  Phys. Rev. B 48, 4978 (1993), doi: 10.1103/PhysRevB.48.4978.2
  Functional external parameters        .... 0
 Gradients option       PostSCFGGA      .... off


General Settings:
 Integral files         IntName         .... /cluster/projects/nn14654k/ylvaos/basis_set_n_funcs/functionals/pw91/SiH2/inp/SiH2_pw91_ccpvqz
 Hartree-Fock type      HFTyp           .... RHF
 Total Charge           Charge          ....    0
 Multiplicity           Mult            ....    1
 Number of Electrons    NEL             ....   16
 Basis Dimension        Dim             ....  119
 Nuclear Repulsion      ENuc            ....     10.0288510962 Eh

Convergence Acceleration:
 AO-DIIS                CNVDIIS         .... on
   Start iteration      DIISMaxIt       ....    12
   Startup error        DIISStart       ....  0.200000
   # of expansion vecs  DIISMaxEq       ....     5
   Bias factor          DIISBfac        ....   1.050
   Max. coefficient     DIISMaxC        ....  10.000
 MO-DIIS                CNVKDIIS        .... off
 Trust-Rad. Augm. Hess. CNVTRAH         .... auto
   Auto Start mean grad. ratio tolernc. ....  1.125000
   Auto Start start iteration           ....    50
   Auto Start num. interpolation iter.  ....    10
   Max. Number of Micro iterations      ....    24
   Max. Number of Macro iterations      .... Maxiter - #DIIS iter
   Number of Davidson start vectors     ....     2
   Converg. threshold    (grad. norm)   ....   1.000e-05
   Grad. Scal. Fac. for Micro threshold ....   0.100
   Minimum threshold for Micro iter.    ....   1.000e-02
   NR start threshold (gradient norm)   ....   1.000e-04
   Initial trust radius                 ....   0.400
   Minimum AH scaling param. (alpha)    ....   1.000
   Maximum AH scaling param. (alpha)    .... 1000.000
   Quad. conv. algorithm                .... NR
   White noise on init. David. guess    .... on
   Maximum white noise                  ....   0.010
   Pseudo random numbers                .... off
   Inactive MOs                         .... canonical
   Orbital update algorithm             .... Taylor
   Preconditioner                       .... Diag
   Full preconditioner red. dimension   ....   250
 SOSCF                 CNVSOSCF           .... on
   Start iteration     SOSCFMaxIt         ....   150
   Startup grad/error  SOSCFStart         ....  0.003300
   Hessian update      SOSCFHessUp        .... L-BFGS
   Autom. constraints  SOSCFAutoConstrain .... off
 Level Shifting         CNVShift        .... on
   Level shift para.    LevelShift      ....    0.2500
   Turn off err/grad.   ShiftErr        ....    0.0010
 Zerner damping         CNVZerner       .... off
 Static damping         CNVDamp         .... on
   Fraction old density DampFac         ....    0.7000
   Max. Damping (<1)    DampMax         ....    0.9800
   Min. Damping (>=0)   DampMin         ....    0.0000
   Turn off err/grad.   DampErr         ....    0.1000

SCF Procedure:
 Maximum # iterations   MaxIter         ....   125
 SCF integral mode      SCFMode         .... Direct
   Integral package                     .... SHARK and LIBINT hybrid scheme
 Reset frequency        DirectResetFreq ....    20
 Integral Threshold     Thresh          ....  2.500e-11 Eh
 Primitive CutOff       TCut            ....  2.500e-12 Eh

Convergence Tolerance:
 Convergence Check Mode ConvCheckMode   .... Total+1el-Energy
 Convergence forced     ConvForced      .... 0
 Energy Change          TolE            ....  1.000e-08 Eh
 1-El. energy change                    ....  1.000e-05 Eh
 Orbital Gradient       TolG            ....  1.000e-05
 Orbital Rotation angle TolX            ....  1.000e-05
 DIIS Error             TolErr          ....  5.000e-07

------------------------------
INITIAL GUESS: MODEL POTENTIAL
------------------------------
Loading Hartree-Fock densities                     ... done
Calculating cut-offs                               ... done
Initializing the effective Hamiltonian             ... done
Setting up the integral package (SHARK)            ... done
Starting the Coulomb interaction                   ... done (   0.0 sec)
Making the grid                                    ... done (   0.0 sec)
Mapping shells                                     ... done
Starting the XC term evaluation                    ... done (   0.0 sec)
  promolecular density results
     # of electrons  =     16.000312466
     EX              =    -20.826457293
     EC              =     -0.604133486
     EX+EC           =    -21.430590779
Transforming the Hamiltonian                       ... done (   0.0 sec)
Diagonalizing the Hamiltonian                      ... done (   0.0 sec)
Back transforming the eigenvectors                 ... done (   0.0 sec)
Now organizing SCF variables                       ... done
                      ------------------
                      INITIAL GUESS DONE (   0.1 sec)
                      ------------------
             **** ENERGY FILE WAS UPDATED (/cluster/projects/nn14654k/ylvaos/basis_set_n_funcs/functionals/pw91/SiH2/inp/SiH2_pw91_ccpvqz.en.tmp) ****
Finished Guess after   0.2 sec
Maximum memory used throughout the entire GUESS-calculation: 10.5 MB


           ************************************************************
           *        Program running with 8 parallel MPI-processes     *
           *              working on a common directory               *
           ************************************************************

-------------------------------------------------------------------------------------------
                                      ORCA LEAN-SCF
                              memory conserving SCF solver
-------------------------------------------------------------------------------------------

----------------------------------------D-I-I-S--------------------------------------------
Iteration    Energy (Eh)           Delta-E    RMSDP     MaxDP     DIISErr   Damp  Time(sec)
-------------------------------------------------------------------------------------------
               ***  Starting incremental Fock matrix formation  ***
    1    -290.5879630164474747     0.00e+00  2.16e-03  1.86e-02  7.35e-02  0.700   0.3
Warning: op=0 Small HOMO/LUMO gap (   0.061) - skipping pre-diagonalization
         Will do a full diagonalization
    2    -290.5925393329567328    -4.58e-03  1.81e-03  1.41e-02  4.78e-02  0.700   0.2
                               ***Turning on AO-DIIS***
    3    -290.5953094162109664    -2.77e-03  1.03e-03  1.10e-02  2.55e-02  0.700   0.2
    4    -290.5969082359907816    -1.60e-03  2.18e-03  2.25e-02  1.58e-02  0.000   0.2
                              *** Initializing SOSCF ***
---------------------------------------S-O-S-C-F--------------------------------------
Iteration    Energy (Eh)           Delta-E    RMSDP     MaxDP     MaxGrad    Time(sec)
--------------------------------------------------------------------------------------
    5    -290.6001423917513193    -3.23e-03  2.66e-04  3.02e-03  2.18e-03     0.2
               *** Restarting incremental Fock matrix formation ***
    6    -290.6001617479041670    -1.94e-05  1.90e-04  1.88e-03  4.51e-04     0.2
    7    -290.6001638175742414    -2.07e-06  3.75e-05  3.55e-04  1.60e-04     0.2
    8    -290.6001641114406198    -2.94e-07  2.10e-05  2.11e-04  5.65e-05     0.2
    9    -290.6001641403319127    -2.89e-08  4.90e-06  5.70e-05  1.32e-05     0.2
   10    -290.6001641430318614    -2.70e-09  1.42e-06  2.11e-05  2.45e-06     0.2
                 **** Energy Check signals convergence ****

               *****************************************************
               *                     SUCCESS                       *
               *           SCF CONVERGED AFTER  10 CYCLES          *
               *****************************************************

             **** ENERGY FILE WAS UPDATED (/cluster/projects/nn14654k/ylvaos/basis_set_n_funcs/functionals/pw91/SiH2/inp/SiH2_pw91_ccpvqz.en.tmp) ****

----------------
TOTAL SCF ENERGY
----------------

Total Energy       :       -290.60016414319233 Eh           -7907.63248 eV

Components:
Nuclear Repulsion  :         10.02885109619548 Eh             272.89891 eV
Electronic Energy  :       -300.62901523938780 Eh           -8180.53139 eV
One Electron Energy:       -421.84455991983799 Eh          -11478.97406 eV
Two Electron Energy:        121.21554468045019 Eh            3298.44266 eV

Virial components:
Potential Energy   :       -580.11805265202531 Eh          -15785.81475 eV
Kinetic Energy     :        289.51788850883298 Eh            7878.18227 eV
Virial Ratio       :          2.00373819952865

DFT components:
N(Alpha)           :        8.000001270663 electrons
N(Beta)            :        8.000001270663 electrons
N(Total)           :       16.000002541325 electrons
E(X)               :      -20.919900257279 Eh       
E(C)               :       -0.603680233623 Eh       
E(XC)              :      -21.523580490902 Eh       

---------------
SCF CONVERGENCE
---------------

  Last Energy change         ...    2.6999e-09  Tolerance :   1.0000e-08
  Last MAX-Density change    ...    2.1082e-05  Tolerance :   1.0000e-07
  Last RMS-Density change    ...    1.4213e-06  Tolerance :   5.0000e-09
  Last DIIS Error            ...    2.1751e-03  Tolerance :   5.0000e-07
  Last Orbital Gradient      ...    2.4467e-06  Tolerance :   1.0000e-05
  Last Orbital Rotation      ...    4.4070e-06  Tolerance :   1.0000e-05


----------------
ORBITAL ENERGIES
----------------

  NO   OCC          E(Eh)            E(eV) 
   0   2.0000     -65.502712     -1782.4194 
   1   2.0000      -5.087310      -138.4327 
   2   2.0000      -3.511704       -95.5583 
   3   2.0000      -3.500602       -95.2562 
   4   2.0000      -3.497652       -95.1759 
   5   2.0000      -0.463663       -12.6169 
   6   2.0000      -0.295116        -8.0305 
   7   2.0000      -0.215382        -5.8608 
   8   0.0000      -0.150239        -4.0882 
   9   0.0000      -0.001613        -0.0439 
  10   0.0000       0.028695         0.7808 
  11   0.0000       0.074344         2.0230 
  12   0.0000       0.092279         2.5110 
  13   0.0000       0.108359         2.9486 
  14   0.0000       0.112095         3.0502 
  15   0.0000       0.122348         3.3293 
  16   0.0000       0.124074         3.3762 
  17   0.0000       0.127712         3.4752 
  18   0.0000       0.205830         5.6009 
*Only the first 10 virtual orbitals were printed.

                    ********************************
                    * MULLIKEN POPULATION ANALYSIS *
                    ********************************

-----------------------
MULLIKEN ATOMIC CHARGES
-----------------------
   0 Si:    0.159667
   1 H :   -0.079848
   2 H :   -0.079819
Sum of atomic charges:    0.0000000

--------------------------------
MULLIKEN REDUCED ORBITAL CHARGES
--------------------------------
  0 Sis       :     5.768422  s :     5.768422
      pz      :     2.969199  p :     7.950972
      px      :     1.999716
      py      :     2.982057
      dz2     :     0.069154  d :     0.111813
      dxz     :     0.000000
      dyz     :     0.000712
      dx2y2   :     0.041946
      dxy     :     0.000001
      f0      :     0.003804  f :     0.007592
      f+1     :     0.000000
      f-1     :     0.002151
      f+2     :     0.000016
      f-2     :     0.000000
      f+3     :     0.000000
      f-3     :     0.001620
      g0      :     0.000868  g :     0.001534
      g+1     :    -0.000000
      g-1     :     0.000002
      g+2     :     0.000274
      g-2     :    -0.000000
      g+3     :     0.000000
      g-3     :     0.000001
      g+4     :     0.000390
      g-4     :    -0.000000

  1 H s       :     1.046524  s :     1.046524
      pz      :     0.021172  p :     0.030198
      px      :     0.000059
      py      :     0.008967
      dz2     :     0.002098  d :     0.003005
      dxz     :     0.000074
      dyz     :     0.000794
      dx2y2   :     0.000039
      dxy     :     0.000000
      f0      :     0.000091  f :     0.000121
      f+1     :     0.000008
      f-1     :     0.000019
      f+2     :     0.000002
      f-2     :     0.000000
      f+3     :    -0.000000
      f-3     :    -0.000000

  2 H s       :     1.046509  s :     1.046509
      pz      :     0.008852  p :     0.030186
      px      :     0.000059
      py      :     0.021275
      dz2     :     0.000618  d :     0.003004
      dxz     :     0.000000
      dyz     :     0.000783
      dx2y2   :     0.001529
      dxy     :     0.000074
      f0      :     0.000008  f :     0.000121
      f+1     :     0.000000
      f-1     :     0.000035
      f+2     :     0.000012
      f-2     :     0.000000
      f+3     :     0.000008
      f-3     :     0.000057



                     *******************************
                     * LOEWDIN POPULATION ANALYSIS *
                     *******************************

----------------------
LOEWDIN ATOMIC CHARGES
----------------------
   0 Si:    0.325467
   1 H :   -0.162739
   2 H :   -0.162729

-------------------------------
LOEWDIN REDUCED ORBITAL CHARGES
-------------------------------
  0 Sis       :     5.315841  s :     5.315841
      pz      :     3.054166  p :     8.123057
      px      :     1.999501
      py      :     3.069390
      dz2     :     0.115931  d :     0.186540
      dxz     :     0.000003
      dyz     :     0.001127
      dx2y2   :     0.069476
      dxy     :     0.000003
      f0      :     0.020543  f :     0.042571
      f+1     :     0.000001
      f-1     :     0.011265
      f+2     :     0.000818
      f-2     :     0.000000
      f+3     :     0.000001
      f-3     :     0.009943
      g0      :     0.003395  g :     0.006524
      g+1     :     0.000003
      g-1     :     0.000196
      g+2     :     0.001072
      g-2     :     0.000000
      g+3     :     0.000000
      g-3     :     0.000112
      g+4     :     0.001742
      g-4     :     0.000003

  1 H s       :     1.014080  s :     1.014080
      pz      :     0.087121  p :     0.127526
      px      :     0.000111
      py      :     0.040293
      dz2     :     0.011538  d :     0.020053
      dxz     :     0.000119
      dyz     :     0.008256
      dx2y2   :     0.000140
      dxy     :     0.000000
      f0      :     0.000700  f :     0.001080
      f+1     :     0.000013
      f-1     :     0.000350
      f+2     :     0.000016
      f-2     :     0.000000
      f+3     :     0.000000
      f-3     :     0.000000

  2 H s       :     1.014078  s :     1.014078
      pz      :     0.039322  p :     0.127520
      px      :     0.000111
      py      :     0.088087
      dz2     :     0.003555  d :     0.020052
      dxz     :     0.000000
      dyz     :     0.007971
      dx2y2   :     0.008407
      dxy     :     0.000118
      f0      :     0.000121  f :     0.001079
      f+1     :     0.000001
      f-1     :     0.000310
      f+2     :     0.000212
      f-2     :     0.000000
      f+3     :     0.000012
      f-3     :     0.000424



                      *****************************
                      * MAYER POPULATION ANALYSIS *
                      *****************************

  NA   - Mulliken gross atomic population
  ZA   - Total nuclear charge
  QA   - Mulliken gross atomic charge
  VA   - Mayer's total valence
  BVA  - Mayer's bonded valence
  FA   - Mayer's free valence

  ATOM       NA         ZA         QA         VA         BVA        FA
  0 Si    13.8403    14.0000     0.1597     1.9911     1.9911     0.0000
  1 H      1.0798     1.0000    -0.0798     1.0066     1.0066    -0.0000
  2 H      1.0798     1.0000    -0.0798     1.0066     1.0066     0.0000

  Mayer bond orders larger than 0.100000
B(  0-Si,  1-H ) :   0.9956 B(  0-Si,  2-H ) :   0.9955 

-------
TIMINGS
-------

Total SCF time: 0 days 0 hours 0 min 2 sec 

Total time                  ....       2.702 sec
Sum of individual times     ....       2.463 sec  ( 91.2%)

SCF preparation             ....       0.121 sec  (  4.5%)
Fock matrix formation       ....       1.985 sec  ( 73.5%)
  Startup                   ....       0.016 sec  (  0.8% of F)
  Coulomb formation         ....       1.339 sec  ( 67.5% of F)
  XC integration            ....       0.542 sec  ( 27.3% of F)
    Basis function eval.    ....       0.045 sec  (  8.3% of XC)
    Density eval.           ....       0.026 sec  (  4.8% of XC)
    XC-Functional eval.     ....       0.029 sec  (  5.3% of XC)
    XC-Potential eval.      ....       0.061 sec  ( 11.3% of XC)
Diagonalization             ....       0.000 sec  (  0.0%)
Density matrix formation    ....       0.120 sec  (  4.5%)
Total Energy calculation    ....       0.025 sec  (  0.9%)
Population analysis         ....       0.018 sec  (  0.7%)
Orbital Transformation      ....       0.021 sec  (  0.8%)
Orbital Orthonormalization  ....       0.000 sec  (  0.0%)
DIIS solution               ....       0.071 sec  (  2.6%)
SOSCF solution              ....       0.101 sec  (  3.7%)
Finished LeanSCF after   2.7 sec

Maximum memory used throughout the entire LEANSCF-calculation: 20.3 MB


           ************************************************************
           *        Program running with 8 parallel MPI-processes     *
           *              working on a common directory               *
           ************************************************************

------------------------------------------------------------------------------
                         ORCA PROPERTY INTEGRAL CALCULATIONS
------------------------------------------------------------------------------

GBWName                                   ... /cluster/projects/nn14654k/ylvaos/basis_set_n_funcs/functionals/pw91/SiH2/inp/SiH2_pw91_ccpvqz.gbw
Number of atoms                           ...      3
Number of basis functions                 ...    147
Max core memory                           ...   4096 MB

Dipole integrals                          ... YES
Quadrupole integrals                      ... YES
Linear momentum integrals                 ...  NO
Angular momentum integrals                ...  NO
Higher moments length integrals           ...  NO
Higher moments velocity integrals         ...  NO
Kinetic energy integrals                  ...  NO
GIAO right hand sides                     ...  NO
GIAO dipole derivative integrals          ...  NO
SOC integrals                             ...  NO
EPR diamagnetic integrals (GIAO)          ...  NO
EPR gauge integrals                       ...  NO
Field gradient integrals                  ...  NO (   0 nuclei)
Spin-dipole/Fermi contact integrals       ...  NO (   0 nuclei)
Contact density integrals                 ...  NO (   0 nuclei)
Nucleus-orbit integrals                   ...  NO (   0 nuclei)
Geometric perturbations                   ...  NO (   3 nuclei)

Choice of electric origin   ... Center of mass
Position of electric origin ... (  0.0000,  0.0958, -0.0925) 
Choice of magnetic origin   ... GIAO
Position of magnetic origin ... (  0.0000,  0.0000,  0.0000) 

Calculating integrals                     ... Electric Dipole (Length)     done (  0.0 sec)
Calculating integrals                     ... Electric Quadrupole (Length) done (  0.0 sec)

Property integrals calculated in   0.0 sec

Maximum memory used throughout the entire PROPINT-calculation: 11.0 MB
------------------------------------------------------------------------------
                           ORCA ORBITAL LOCALIZATION
------------------------------------------------------------------------------

Input orbitals are from                  ... /cluster/projects/nn14654k/ylvaos/basis_set_n_funcs/functionals/pw91/SiH2/inp/SiH2_pw91_ccpvqz.gbw
Output orbitals are to                   ... /cluster/projects/nn14654k/ylvaos/basis_set_n_funcs/functionals/pw91/SiH2/inp/SiH2_pw91_ccpvqz.loc
Max. number of iterations                ... 128
Localizations seeded randomly            ... on
Convergence tolerance                    ... 1.000e-06
Threshold for strong local MOs           ... 9.500e-01
Threshold for bond MOs                   ... 8.500e-01
Operator                                 ... 0
Orbital range for localization           ... 2 to 7
Localization criterion                   ... NEW-BOYS
Doing the dipole integrals               ... o.k.
Initial value of the localization sum :     6.421103
ITERATION   0 : L=   10.2422949469 DL=  3.82e+00 (AVERGE_DL)=    0.5047237849 
ITERATION   1 : L=   10.2666396123 DL=  2.43e-02 (AVERGE_DL)=    0.0402861973 
ITERATION   2 : L=   10.2666747412 DL=  3.51e-05 (AVERGE_DL)=    0.0015303347 
ITERATION   3 : L=   10.2666748612 DL=  1.20e-07 (AVERGE_DL)=    0.0000894634 
LOCALIZATION SUM CONVERGED


--------------------------------------------------------------------------------
                    LOCALIZED MOLECULAR ORBITAL COMPOSITIONS
--------------------------------------------------------------------------------

The Mulliken populations for each LMO on each atom are computed
The LMO`s will be ordered according to atom index and type
  (A) Strongly localized MO`s have populations of >=0.950 on one atom
  (B) Two center bond orbitals have populations of >=0.850 on two atoms
  (C) Other MO`s are considered to be `delocalized`

FOUND  -   4 strongly local MO`s
       -   2 two center bond MO`s
       -   0 significantly delocalized MO`s

Rather strongly localized orbitals:
MO   5:   0Si -   1.013315
MO   4:   0Si -   0.996244
MO   3:   0Si -   0.992340
MO   2:   0Si -   0.996243
Bond-like localized orbitals:
MO   7:   2H  -   0.542498  and   0Si -   0.460144
MO   6:   1H  -   0.542504  and   0Si -   0.460147
Localized MO's were stored in: /cluster/projects/nn14654k/ylvaos/basis_set_n_funcs/functionals/pw91/SiH2/inp/SiH2_pw91_ccpvqz.loc

-------------------------   --------------------
FINAL SINGLE POINT ENERGY      -290.600164143192
-------------------------   --------------------



           ************************************************************
           *        Program running with 8 parallel MPI-processes     *
           *              working on a common directory               *
           ************************************************************

------------------------------------------------------------------------------
                              ORCA PROPERTY CALCULATIONS
------------------------------------------------------------------------------

GBWName                                 ... /cluster/projects/nn14654k/ylvaos/basis_set_n_funcs/functionals/pw91/SiH2/inp/SiH2_pw91_ccpvqz.gbw
Number of atoms                         ...      3
Number of basis functions               ...    147
Max core memory                         ...   4096 MB

Electric properties:
Dipole moment                           ... YES
Quadrupole moment                       ... YES
Static polarizability (Dipole/Dipole)   ...  NO
Static polarizability (Dipole/Quad.)    ...  NO
Static polarizability (Quad./Quad.)     ...  NO
Static polarizability (Velocity)        ...  NO
Static hyperpolarizability              ...  NO

Atomic electric properties:
Dipole moment                           ...  NO
Quadrupole moment                       ...  NO
Static polarizability                   ...  NO

Choice of electric origin               ... Center of mass
Position of electric origin             ...     0.000000     0.095755    -0.092471

General magnetic properties:
Magnetizability                         ...  NO

EPR properties:
g-Tensor (aka g-matrix)                 ...  NO
Zero-Field splitting spin-orbit         ...  NO
Zero-field splitting spin-spin          ...  NO
Hyperfine couplings                     ...  NO (   0 nuclei)
Quadrupole couplings                    ...  NO (   0 nuclei)
Contact density                         ...  NO (   0 nuclei)

NMR properties:
Chemical shifts                         ...  NO (   0 nuclei)
Spin-rotation constants                 ...  NO (   0 nuclei)
Spin-spin couplings                     ...  NO (   0 nuclei,    0 pairs)

Choice of magnetic origin               ... GIAO
Position of magnetic origin             ...     0.000000     0.000000     0.000000

Properties with geometric perturbations:
SCF Hessian                             ...  NO
IR spectrum                             ...  NO
VCD spectrum                            ...  NO
X-ray spectroscopy properties:
SCF XES/XAS/RIXS spectra                ...  NO

SCF SOC stabilization energy            ...  NO
Diagonal Born-Oppenheimer correction    ...  NO

-------------
DIPOLE MOMENT
-------------

Method             : SCF
Type of density    : Electron Density
Multiplicity       :   1
Irrep              :   0
Energy             :  -290.6001641431923304 Eh
Basis              : AO
                                X                 Y                 Z
Electronic contribution:      0.000000000      -1.272642738       1.228974089
Nuclear contribution   :      0.000000000       1.327457389      -1.281928022
                        -----------------------------------------
Total Dipole Moment    :      0.000000000       0.054814652      -0.052953933
                        -----------------------------------------
Magnitude (a.u.)       :      0.076215255
Magnitude (Debye)      :      0.193723783



--------------------
Rotational spectrum 
--------------------
 
Rotational constants in cm-1:             8.101050             7.049111             3.769280 
Rotational constants in MHz :        242863.361200        211327.036298        113000.174884 

Dipole components along the rotational axes: 
x,y,z [a.u.] :     0.000006    -0.076215     0.000000 
x,y,z [Debye]:     0.000015    -0.193724     0.000000 

 

Dipole moment calculation done in   0.0 sec 

-----------------
QUADRUPOLE MOMENT
-----------------

Method             : SCF
Type of density    : Electron Density
Multiplicity       :   1
Irrep              :   0
Energy             :  -290.6001641431923304 Eh
Basis              : AO

                XX              YY              ZZ              XY              XZ              YZ
  NUC        0.000000000     7.776008003     7.822723490     0.000000000     0.000000000     0.672490579
  EL        -9.243776940   -20.482115676   -20.479417239    -0.000000000     0.000000000     0.035210339
  TOT       -9.243776940   -12.706107673   -12.656693749    -0.000000000     0.000000000     0.707700918 (a.u.)
           -12.433196122   -17.090149370   -17.023685951    -0.000000000     0.000000000     0.951881938 (Buckingham)

diagonalized tensor:
           -13.389532777   -11.973268645    -9.243776940 (a.u.)
           -18.009379508   -16.104455813   -12.433196122 (Buckingham)
            -7.481107080    -1.766335997     9.247443077 (traceless form in Buckingham)

            -0.000000000    -0.000000000     1.000000000
            -0.719336615     0.694661669    -0.000000000
             0.694661669     0.719336615     0.000000000
        
Isotropic quadrupole :   -11.535526121

Quadrupole moment calculation done in   0.0 sec (  0.0 sec for integrals)

Maximum memory used throughout the entire PROP-calculation: 5.6 MB

--------------------------------
SUGGESTED CITATIONS FOR THIS RUN
--------------------------------

Below you find a list of papers that are relevant to this ORCA run
We neither can nor want to force you to cite these papers, but we appreciate if you do
You receive ORCA, which is the product of decades of hard work by many enthusiastic individuals, for free
The only thing we kindly ask in return is that you cite our papers,
We deeply appreciate it, if you show your appreciation for ORCA by not just citing the generic ORCA reference.

Please note that relegating all ORCA citations to the supporting information does *not* help us.
SI sections are not indexed - citations you put there will not count into any citation statistics
But we need these citations in order to attract the funding resources that allow us to do what we are doing

Therefore, if you are a happy ORCA user, please consider citing a few of the papers listed below in the main body of your paper

In addition to the list printed below, the program has created the file /cluster/projects/nn14654k/ylvaos/basis_set_n_funcs/functionals/pw91/SiH2/inp/SiH2_pw91_ccpvqz.bibtex that contains the list in bibtex format
You can import this file easily into all common literature databanks and citation aid programs

It goes without saying that in many instances, there are alternative algorithms to achieve similar
results as the ones you have gotten from ORCA. It is, of course, also the case that in some instances
ORCA just re-implements algorithms worked out by others. We are fully aware of that and we are also
fully appreciative of our colleagues work. Hence this citation list should not be read as indicating
that the listed papers, which are focused on our own work, are the only ones worth citing. It simply
meant to make it easier for users to cite ORCA specific papers. It is not a substitute for doing your
own literature research and citing the relevant literature in a scientifically appropriate manner.

List of essential papers. We consider these as the minimum necessary citations

  1. Neese, F.
     Software update: the ORCA program system, version 6.0
     WIRES Comput. Molec. Sci. 2025 15(1), e70019
     doi.org/10.1002/wcms.70019

List of papers to cite with high priority. The work reported in these papers was absolutely
necessary for this run to complete.
Our perspective: the developers of density functionals and basis sets usually get cited in chemistry papers
Good! But without the algorithms to do something with them, the functionals or basis sets would not do anything.
Hence, in our opinion, the algorithm design and method developments papers are equally worthy of getting cited

  1. Lehtola, S.; Steigemann, C.; Oliveira, M.; Marques, M.
     Recent developments in Libxc - A comprehensive library of functionals for density functional theory
     Software X 2018 7 , 
     doi.org/10.1016/j.softx.2017.11.002
  2. Neese, F.
     The SHARK Integral Generation and Digestion System
     J. Comp. Chem. 2022 44(3), 381
     doi.org/10.1002/jcc.26942

List of suggested additional citations. These are papers that are important in the 'surrounding' of 
of this run, or papers that preceded the highly important papers. If you like your results we are grateful for a citation.

  1. Neese, F.
     The ORCA program system
     WIRES Comput. Molec. Sci. 2012 2(1), 73-78
     doi.org/10.1002/wcms.81
  2. Neese, F.
     Software update: the ORCA program system, version 4.0
     WIRES Comput. Molec. Sci. 2018 8(1), 1-6
     doi.org/10.1002/wcms.1327
  3. Neese, F.; Wennmohs, F.; Becker, U.; Riplinger, C.
     The ORCA quantum chemistry program package
     J. Chem. Phys. 2020 152(22), 224108
     doi.org/10.1063/5.0004608
  4. Neese, F.
     Software update: The ORCA program system—Version 5.0
     WIRES Comput. Molec. Sci. 2022 12(1), e1606
     doi.org/10.1002/wcms.1606

List of optional additional citations

  1. Neese, F.
     Approximate second-order SCF convergence for spin unrestricted wavefunctions
     Chem. Phys. Lett. 2000 325(1-3), 93-98
     doi.org/10.1016/s0009-2614(00)00662-x

Timings for individual modules:

Sum of individual times          ...        4.724 sec (=   0.079 min)
Startup calculation              ...        0.793 sec (=   0.013 min)  16.8 %
SCF iterations                   ...        3.366 sec (=   0.056 min)  71.2 %
Property integrals               ...        0.317 sec (=   0.005 min)   6.7 %
Property calculations            ...        0.242 sec (=   0.004 min)   5.1 %
Orbital localization             ...        0.006 sec (=   0.000 min)   0.1 %
                             ****ORCA TERMINATED NORMALLY****
TOTAL RUN TIME: 0 days 0 hours 0 minutes 5 seconds 541 msec
