
                                 *****************
                                 * O   R   C   A *
                                 *****************

                                            #,                                       
                                            ###                                      
                                            ####                                     
                                            #####                                    
                                            ######                                   
                                           ########,                                 
                                     ,,################,,,,,                         
                               ,,#################################,,                 
                          ,,##########################################,,             
                       ,#########################################, ''#####,          
                    ,#############################################,,   '####,        
                  ,##################################################,,,,####,       
                ,###########''''           ''''###############################       
              ,#####''   ,,,,##########,,,,          '''####'''          '####       
            ,##' ,,,,###########################,,,                        '##       
           ' ,,###''''                  '''############,,,                           
         ,,##''                                '''############,,,,        ,,,,,,###''
      ,#''                                            '''#######################'''  
     '                                                          ''''####''''         
             ,#######,   #######,   ,#######,      ##                                
            ,#'     '#,  ##    ##  ,#'     '#,    #''#        ,####,    ,#,          
            ##       ##  ##   ,#'  ##            #'  '#       #'       ,# #          
            ##       ##  #######   ##           ,######,      #####,      #          
            '#,     ,#'  ##    ##  '#,     ,#' ,#      #,     #,   #      #          
             '#######'   ##     ##  '#######'  #'      '#     '####' #    #          



                #########################################################
                #                        -***-                          #
                #          Department of theory and spectroscopy        #
                #                                                       #
                #                      Frank Neese                      #
                #                                                       #
                #     Directorship, Architecture, Infrastructure        #
                #                    SHARK, DRIVERS                     #
                #        Core code/Algorithms in most modules           #
                #                                                       #
                #        Max Planck Institute fuer Kohlenforschung      #
                #                Kaiser Wilhelm Platz 1                 #
                #                 D-45470 Muelheim/Ruhr                 #
                #                      Germany                          #
                #                                                       #
                #                  All rights reserved                  #
                #                        -***-                          #
                #########################################################


                         Program Version 6.1.1  -  RELEASE   -
                                (GIT: $487d211c$)
                          ($2025-11-21 10:33:24 +0100$)


 With contributions from (in alphabetic order):
[Max-Planck-Institut fuer Kohlenforschung]                               
  Daniel Aravena         : Magnetic Suceptibility                        
  Michael Atanasov       : Ab Initio Ligand Field Theory (pilot matlab implementation)
  Alexander A. Auer      : GIAO ZORA, VPT2 properties, NMR spectrum      
  Ute Becker             : All parallelization in ORCA, NUMFREQ, NUMCALC 
  Giovanni Bistoni       : ED, misc. LED, open-shell LED, HFLD           
  Dmytro Bykov           : pre 5.0 version of the SCF Hessian            
  Marcos Casanova-Páez   : Triplet and SCS-CIS(D). UHF-(DLPNO)-IP/EA/STEOM-CCSD. UHF-CVS-IP/STEOM-CCSD   
  Vijay G. Chilkuri      : MRCI spin determinant printing, contributions to CSF-ICE 
  Pauline Colinet        : FMM embedding                                 
  Dipayan Datta          : RHF DLPNO-CCSD density                        
  Achintya Kumar Dutta   : EOM-CC, STEOM-CC                              
  Nicolas Foglia         : Exact transition moments, OPA infrastructure, MCD improvements    
  Dmitry Ganyushin       : Spin-Orbit,Spin-Spin,Magnetic field MRCI      
  Miquel Garcia-Rates    : C-PCM and meta-GGA Hessian, CCSD/C-PCM, Gaussian charge scheme 
  Tiago L. C. Gouveia    : GS-ROHF, GS-ROCIS                             
  Yang Guo               : DLPNO-NEVPT2, F12-NEVPT2, CIM, IAO-localization        
  Andreas Hansen         : Spin unrestricted coupled pair/coupled cluster methods 
  Ingolf Harden          : AUTO-CI MPn and infrastructure                
  Benjamin Helmich-Paris : MC-RPA, TRAH-(SCF,CASSCF), AVAS, COSX integrals, SCF dyn. polar., MC-PDFT, srDFT 
  Lee Huntington         : MR-EOM, pCC                                   
  Robert Izsak           : Overlap fitted RIJCOSX, COSX-SCS-MP3, EOM     
  Riya Kayal             : Wick's Theorem for AUTO-CI, AUTO-CI UHF-CCSDT 
  Emily Kempfer          : AUTO-CI RHF CISDT and CCSDT, approximate NEVPT4
  Christian Kollmar      : KDIIS, OOCD, Brueckner-CCSD(T), CCSD density, CASPT2, CASPT2-K, improved NEVPT2 
  Axel Koslowski         : Symmetry handling                             
  Simone Kossmann        : meta-GGA functionals, TD-DFT gradient, OOMP2, (MP2 Hessian; deprecated post 5.0) 
  Lucas Lang             : DCDCAS, Hyperfine gauge corrections, ICE-SOC+SSC
  Marvin Lechner         : AUTO-CI (C++ implementation), FIC-MRCC        
  Spencer Leger          : CASSCF response                               
  Dagmar Lenk            : GEPOL surface, SMD, ORCA-2-JSON               
  Dimitrios Liakos       : Extrapolation schemes; Compound Job, Property file
  Dimitrios Manganas     : Further ROCIS development; embedding schemes. LFT, Crystal Embedding 
  Dimitrios Pantazis     : SARC Basis sets                               
  Anastasios Papadopoulos: AUTO-CI, single reference methods and gradients 
  Taras Petrenko         : pre 6.0 DFT Hessian and TD-DFT gradient,  ECA, NRVS 
  Petra Pikulova         : Analytic Raman intensities                    
  Peter Pinski           : DLPNO-MP2, DLPNO-MP2 Gradient                 
  Shashank Vittal Rao    : ES-AILFT, MagRelax                            
  Christoph Reimann      : Effective Core Potentials                     
  Marius Retegan         : Local ZFS, SOC                                
  Christoph Riplinger    : Optimizer, TS searches, QM/MM, DLPNO-CCSD(T), (RO)-DLPNO pert. Triples 
  Michael Roemelt        : Original ROCIS implementation, recursive CI coupling coefficients
  Masaaki Saitow         : Open-shell DLPNO-CCSD energy and density      
  Barbara Sandhoefer     : DKH picture change effects                    
  Yorick L. A. Schmerwitz: GMF and freeze-and-release deltaSCF, NEB S-IDPP initial path                    
  Kantharuban Sivalingam : CASSCF convergence/infrastructure, NEVPT2, NEVPT3, NEVPT4(SD), FIC-MRCI and CEPA variants
  Bernardo de Souza      : ESD, SOC TD-DFT                               
  Georgi L. Stoychev     : AutoAux, RI-MP2 NMR, DLPNO-MP2 response, X2C  
  Van Anh Tran           : RI-MP2 g-tensors                              
  Willem Van den Heuvel  : Paramagnetic NMR                              
  Zikuan Wang            : NOTCH, Electric field optimization            
  Frank Wennmohs         : Technical directorship and infrastructure     
  Hang Xu                : AUTO-CI-Response properties                   
                                                                         
[FACCTs GmbH]                                                            
  Markus Bursch, Nicolas Foglia, Miquel Garcia-Rates, Ingolf Harden, Hagen Neugebauer, Anastasios Papadopoulos, 
  Christoph Riplinger, Bernardo de Souza, Georgi L. Stoychev                                                    
                                                                 
  APM, various basis sets, CI-OPT, improved COSX, DLPNO-Multilevel,           
  DOCKER, DRACO, updates on ESD, Fragmentator, GOAT, IRC, LR-CPCM, L-BFGS, MBIS, meta-GGA TD-DFT gradient, ML-optimized integration grids, 
  MM, NACMEs, nearIR, NEB, NEB-TS, NL-DFT gradient (VV10), 2- and 3-layer-ONIOM, interface openCOSMO-RS, QMMM,   
  Crystal-QMMM, RESP, rigid body optimization, SF, symmetry and pop. for TD-DFT, various functionals, SOLVATOR                                   
                                                                         
[Other institutions]                                                     
  V. Asgeirsson          : NEB                                           
  Christoph Bannwarth    : sTDA-DFT, sTD-DFT, PBEh-3c, B97-3c, D3        
  Giovanni Bistoni       : ETS/NOCV, ADLD/ADEX, COVALED                  
  Martin Brehm           : Molecular dynamics                            
  Ronald Cardenas        : ETS/NOCV                                      
  Martina Colucci        : COVALED                                       
  Sebastian Ehlert       : rSCAN, r2SCAN, r2SCAN-3c, D4, dhf basis sets  
  Marvin Friede          : D4 for Fr, Ra, Ac-Lr                          
  Lars Goerigk           : TD-DFT with DH, B97 family of functionals     
  Stefan Grimme          : VdW corrections, initial TS optimization, DFT functionals, gCP, sTDA/sTD-DF 
  Waldemar Hujo          : DFT-NL                                        
  H. Jonsson             : NEB                                           
  Holger Kruse           : gCP                                           
  Marcel Mueller         : wB97X-3c, vDZP basis set                      
  Hagen Neugebauer       : wr2SCAN, Native XTB                           
  Gianluca Regni         : ADLD/ADEX                                     
  Tobias Risthaus        : pre 6.0 range-separated hybrid DFT and stability analysis
  Lukas Wittmann         : regularized MP2, r2SCAN double-hybrids, wr2SCAN        
                                                                         
We gratefully acknowledge several colleagues who have allowed us to      
interface, adapt or use parts of their codes:                            
  Ed Valeev, F. Pavosevic, A. Kumar             : LibInt (2-el integral package), F12 methods 
  Garnet Chan, S. Sharma, J. Yang, R. Olivares  : DMRG                   
  Ulf Ekstrom                                   : XCFun DFT Library      
  Mihaly Kallay                                 : mrcc  (arbitrary order and MRCC methods)
  Frank Weinhold                                : gennbo (NPA and NBO analysis)           
  Simon Mueller                                 : openCOSMO-RS                            
  Christopher J. Cramer and Donald G. Truhlar   : smd solvation model                     
  S Lehtola, MJT Oliveira, MAL Marques          : LibXC Library                           
  Liviu Ungur et al                             : ANISO software                          


 Your calculation uses the libint2 library for the computation of 2-el integrals
 For citations please refer to: http://libint.valeyev.net

 Your ORCA version has been built with support for libXC version: 7.0.0
 For citations please refer to: https://libxc.gitlab.io

 This ORCA versions uses:
   CBLAS   interface :  Fast vector & matrix operations
   LAPACKE interface :  Fast linear algebra routines
   SCALAPACK package :  Parallel linear algebra routines
   Shared memory     :  Shared parallel matrices
   BLAS/LAPACK       :  OpenBLAS 0.3.29  USE64BITINT DYNAMIC_ARCH NO_AFFINITY Cooperlake SINGLE_THREADED
        Core in use  :  Cooperlake
   Copyright (c) 2011-2014, The OpenBLAS Project


  ***********************************
  * Starting time: Wed May 20 12:39:34 2026
  * Host name:     c1-14
  * Process ID:    1135199
  * Working dir.:  /cluster/projects/nn14654k/ylvaos/basis_set_n_funcs/functionals/lda_x/PO2/out
  ***********************************

Using LibXC functional ID   1 : Slater exchange
[ 1]  P. A. M. Dirac.,  Math. Proc. Cambridge Philos. Soc. 26, 376 (1930)
[ 2]  F. Bloch.,  Z. Phys. 57, 545 (1929)
Using LibXC functional ID   1 : Slater exchange
[ 1]  P. A. M. Dirac.,  Math. Proc. Cambridge Philos. Soc. 26, 376 (1930)
[ 2]  F. Bloch.,  Z. Phys. 57, 545 (1929)
Your calculation utilizes LibXC
by S. Lehtola, C. Steigemann, M. J. T. Oliveira & M. A. L. Marques
Please cite in your paper:
Lehtola, S.; Steigemann, C.; Oliveira, M.J.T.; Marques, M. A. L. Software X, 7, (2018), 1.
   

================================================================================

----- Orbital basis set information -----
Your calculation utilizes the basis: aug-cc-pVTZ 
    H, B-Ne : Obtained from the ccRepo (grant-hill.group.shef.ac.uk/ccrepo) Feb. 2017
              R. A. Kendall, T. H. Dunning, Jr., R. J. Harrison, J. Chem. Phys. 96, 6796 (1992)
         He : Obtained from the ccRepo (grant-hill.group.shef.ac.uk/ccrepo) Feb. 2017
              D. E. Woon, T. H. Dunning, Jr., J. Chem. Phys. 100, 2975 (1994)
  Li-Be, Na : Obtained from the ccRepo (grant-hill.group.shef.ac.uk/ccrepo) Feb. 2017
              B. P. Prascher, D. E. Woon, K. A. Peterson, T. H. Dunning, Jr., A. K. Wilson, Theor. Chem. Acc. 128, 69 (2011)
         Mg : Obtained from the Peterson Research Group Website (tyr0.chem.wsu.edu/~kipeters) Feb. 2017
              B. P. Prascher, D. E. Woon, K. A. Peterson, T. H. Dunning, Jr., A. K. Wilson, Theor. Chem. Acc. 128, 69 (2011)
      Al-Ar : Obtained from the ccRepo (grant-hill.group.shef.ac.uk/ccrepo) Feb. 2017
              D. E. Woon, T. H. Dunning, Jr., J. Chem. Phys. 98, 1358 (1993)
      Sc-Zn : Obtained from the ccRepo (grant-hill.group.shef.ac.uk/ccrepo) Feb. 2017
              N. B. Balabanov, K. A. Peterson, J. Chem. Phys. 123, 064107 (2005)
              N. B. Balabanov, K. A. Peterson, J. Chem. Phys. 125, 074110 (2006)
      Ga-Kr : Obtained from the ccRepo (grant-hill.group.shef.ac.uk/ccrepo) Feb. 2017
              A. K. Wilson, D. E. Woon, K. A. Peterson, T. H. Dunning, Jr., J. Chem. Phys. 110, 7667 (1999)
     Ag, Au : Obtained from the Peterson Research Group Website (tyr0.chem.wsu.edu/~kipeters) Feb. 2017
              K. A. Peterson, C. Puzzarini, Theor. Chem. Acc. 114, 283 (2005)

================================================================================
                                        WARNINGS
                       Please study these warnings very carefully!
================================================================================


WARNING: your system is open-shell and RHF/RKS was chosen
  ===> : WILL SWITCH to UHF/UKS


================================================================================
                                       INPUT FILE
================================================================================
NAME = /cluster/projects/nn14654k/ylvaos/basis_set_n_funcs/functionals/lda_x/PO2/inp/PO2_lda_x_augccpvtz.inp
|  1> ! dft aug-cc-pVTZ TightSCF
|  2> %pal nprocs 8 end
|  3> 
|  4> %loc
|  5>   LocMet NewBoys
|  6>   Occ true
|  7> end
|  8> 
|  9> %method
| 10>   exchange lda_x
| 11>   correlation None
| 12> end
| 13> 
| 14> %elprop
| 15>   Dipole true
| 16>   Quadrupole true
| 17> end
| 18> 
| 19> * xyz 0 2
| 20> P    0.000000000000   0.000000000000   0.287900000000
| 21> O    0.000000000000   1.356300000000  -0.269900000000
| 22> O    0.000000000000  -1.356300000000  -0.269900000000
| 23> *
| 24> 
| 25> 
| 26>                          ****END OF INPUT****
================================================================================

                       ****************************
                       * Single Point Calculation *
                       ****************************

---------------------------------
CARTESIAN COORDINATES (ANGSTROEM)
---------------------------------
  P      0.000000    0.000000    0.287900
  O      0.000000    1.356300   -0.269900
  O      0.000000   -1.356300   -0.269900

----------------------------
CARTESIAN COORDINATES (A.U.)
----------------------------
  NO LB      ZA    FRAG     MASS         X           Y           Z
   0 P    15.0000    0    30.974    0.000000    0.000000    0.544052
   1 O     8.0000    0    15.999    0.000000    2.563036   -0.510037
   2 O     8.0000    0    15.999    0.000000   -2.563036   -0.510037

--------------------------------
INTERNAL COORDINATES (ANGSTROEM)
--------------------------------
 P      0   0   0     0.000000000000     0.00000000     0.00000000
 O      1   0   0     1.466523279733     0.00000000     0.00000000
 O      1   2   0     1.466523279733   135.28860674     0.00000000

---------------------------
INTERNAL COORDINATES (A.U.)
---------------------------
 P      0   0   0     0.000000000000     0.00000000     0.00000000
 O      1   0   0     2.771327367716     0.00000000     0.00000000
 O      1   2   0     2.771327367716   135.28860674     0.00000000

---------------------
BASIS SET INFORMATION
---------------------
There are 2 groups of distinct atoms

 Group   1 Type P   : 42s17p3d2f contracted to 6s5p3d2f pattern {131313111/77111/111/11}
 Group   2 Type O   : 19s6p3d2f contracted to 5s4p3d2f pattern {88111/3111/111/11}

Atom   0P    basis set group =>   1
Atom   1O    basis set group =>   2
Atom   2O    basis set group =>   2


           ************************************************************
           *        Program running with 8 parallel MPI-processes     *
           *              working on a common directory               *
           ************************************************************
------------------------------------------------------------------------------
                             ORCA STARTUP CALCULATIONS
------------------------------------------------------------------------------
------------------------------------------------------------------------------
                   ___                                                        
                  /   \      - P O W E R E D   B Y -                         
                 /     \                                                     
                 |  |  |   _    _      __       _____    __    __             
                 |  |  |  | |  | |    /  \     |  _  \  |  |  /  |          
                  \  \/   | |  | |   /    \    | | | |  |  | /  /          
                 / \  \   | |__| |  /  /\  \   | |_| |  |  |/  /          
                |  |  |   |  __  | /  /__\  \  |    /   |      \           
                |  |  |   | |  | | |   __   |  |    \   |  |\   \          
                \     /   | |  | | |  |  |  |  | |\  \  |  | \   \       
                 \___/    |_|  |_| |__|  |__|  |_| \__\ |__|  \__/        
                                                                              
                      - O R C A' S   B I G   F R I E N D -                    
                                      &                                       
                       - I N T E G R A L  F E E D E R -                       
                                                                              
 v1 FN, 2020, v2 2021, v3 2022-2024                                           
------------------------------------------------------------------------------


----------------------
SHARK INTEGRAL PACKAGE
----------------------

Number of atoms                             ...      3
Number of basis functions                   ...    179
Number of shells                            ...     71
Maximum angular momentum                    ...      3
Integral batch strategy                     ... SHARK/LIBINT Hybrid
RI-J (if used) integral strategy            ... SPLIT-RIJ (Revised 2003 algorithm where possible)
Printlevel                                  ...      1
Contraction scheme used                     ... PARTIAL GENERAL contraction
Prescreening option                         ... SCHWARTZ
   Thresh                                   ... 2.500e-11
   Tcut                                     ... 2.500e-12
   Tpresel                                  ... 2.500e-12 
Coulomb Range Separation                    ... NOT USED
Exchange Range Separation                   ... NOT USED
Multipole approximations                    ... NOT USED
Finite Nucleus Model                        ... NOT USED
CABS basis                                  ... NOT available
Auxiliary Coulomb fitting basis             ... NOT available
Auxiliary J/K fitting basis                 ... NOT available
Auxiliary Correlation fitting basis         ... NOT available
Auxiliary 'external' fitting basis          ... NOT available

Checking pre-screening integrals            ... done (  0.0 sec) Dimension = 71
Save PGC pre-screening integrals            ... done (  0.0 sec) Dimension = 71
Calculate PGC overlap integrals             ... done (  0.0 sec) Dimension = 44
Calculating pre-screening integrals (ORCA)  ... done (  0.0 sec) Dimension = 44
Shell pair information
Shell pair cut-off parameter TPreSel        ...   2.5e-12
Total number of shell pairs                 ...      2556
Shell pairs after pre-screening             ...      2233
Total number of primitive shell pairs       ...      2856
Primitive shell pairs kept                  ...      2429
          la=0 lb=0:    528 shell pairs
          la=1 lb=0:    602 shell pairs
          la=1 lb=1:    171 shell pairs
          la=2 lb=0:    328 shell pairs
          la=2 lb=1:    162 shell pairs
          la=2 lb=2:     45 shell pairs
          la=3 lb=0:    214 shell pairs
          la=3 lb=1:    108 shell pairs
          la=3 lb=2:     54 shell pairs
          la=3 lb=3:     21 shell pairs

Checking whether 4 symmetric matrices of dimension 179 fit in memory
:Max Core in MB      =   4096.00
 MB in use           =      4.38
 MB left             =   4091.62
 MB needed           =      0.49
 Data fit in memory  = YES
Calculating Nuclear repulsion               ... done (  0.0 sec) ENN=     99.086296046297 Eh

Diagonalization of the overlap matrix:
Smallest eigenvalue                        ... 2.902e-04
Time for diagonalization                   ...    0.001 sec
Threshold for overlap eigenvalues          ... 1.000e-07
Number of eigenvalues below threshold      ... 0
Time for construction of square roots      ...    0.002 sec
Total time needed                          ...    0.006 sec

-------------------
DFT GRID GENERATION
-------------------

General Integration Accuracy     IntAcc      ... 4.388
Radial Grid Type                 RadialGrid  ... OptM3 with GC (2021)
Angular Grid (max. ang.)         AngularGrid ... 4 (Lebedev-302)
Angular grid pruning method      GridPruning ... 4 (adaptive)
Weight generation scheme         WeightScheme... mBecke (2022)
Basis function cutoff            BFCut       ... 1.0000e-11
Integration weight cutoff        WCut        ... 1.0000e-14
Partially contracted basis set               ... off
Rotationally invariant grid construction     ... off
Angular grids for H and He will be reduced by one unit
Diffuse basis detected: some atoms will have their outermost
                        angular grid increased by 1.

Total number of grid points                  ...    20582
Total number of batches                      ...      323
Average number of points per batch           ...       63
Average number of grid points per atom       ...     6861

---------------------
SHARK GRID GENERATION
---------------------

General Integration Accuracy     IntAcc      ... 4.388
Radial Grid Type                 RadialGrid  ... OptM3 with GC (2021)
Angular Grid (max. ang.)         AngularGrid ... 4 (Lebedev-302)
Angular grid pruning method      GridPruning ... 4 (adaptive)
Weight generation scheme         WeightScheme... mBecke (2022)
Basis function cutoff            BFCut       ... 1.0000e-11
Integration weight cutoff        WCut        ... 1.0000e-14
Partially contracted basis set               ... off
Rotationally invariant grid construction     ... off
Angular grids for H and He will be reduced by one unit
Diffuse basis detected: some atoms will have their outermost
                        angular grid increased by 1.
Core-polarized basis detected: some atoms will have their core
                               angular grid increased.
Steep s-basis detected: some atoms will have their radial
                        grid points doubled.

Total number of grid points                  ...    46090
Total number of batches                      ...      722
Average number of points per batch           ...       63
Average number of grid points per atom       ...    15363
Grids setup in   0.4 sec
Initializing property integral containers    ... done (  0.0 sec)

SHARK setup successfully completed in   0.6 seconds

Maximum memory used throughout the entire STARTUP-calculation: 49.2 MB


           ************************************************************
           *        Program running with 8 parallel MPI-processes     *
           *              working on a common directory               *
           ************************************************************
-------------------------------------------------------------------------------
                                 ORCA GUESS
                   Start orbitals & Density for SCF / CASSCF
-------------------------------------------------------------------------------

------------
SCF SETTINGS
------------
Hamiltonian:
 Density Functional     Method          .... DFT(GTOs)
  Functional kind                       .... Exchange
  Functional name                       .... Slater exchange
  Functional family                     .... LDA
  Functional refs                              
    [ 0] P. A. M. Dirac.,  Math. Proc. Cambridge Philos. Soc. 26, 376 (1930), doi: 10.1017/S0305004100016108
    [ 1] F. Bloch.,  Z. Phys. 57, 545 (1929), doi: 10.1007/BF01340281
  Functional external parameters        .... 0
 Correlation Functional Correlation     .... No Correlation
 Gradients option       PostSCFGGA      .... off


General Settings:
 Integral files         IntName         .... /cluster/projects/nn14654k/ylvaos/basis_set_n_funcs/functionals/lda_x/PO2/inp/PO2_lda_x_augccpvtz
 Hartree-Fock type      HFTyp           .... UHF
 Total Charge           Charge          ....    0
 Multiplicity           Mult            ....    2
 Number of Electrons    NEL             ....   31
 Basis Dimension        Dim             ....  142
 Nuclear Repulsion      ENuc            ....     99.0862960463 Eh

Convergence Acceleration:
 AO-DIIS                CNVDIIS         .... on
   Start iteration      DIISMaxIt       ....    12
   Startup error        DIISStart       ....  0.200000
   # of expansion vecs  DIISMaxEq       ....     5
   Bias factor          DIISBfac        ....   1.050
   Max. coefficient     DIISMaxC        ....  10.000
 MO-DIIS                CNVKDIIS        .... off
 Trust-Rad. Augm. Hess. CNVTRAH         .... auto
   Auto Start mean grad. ratio tolernc. ....  1.125000
   Auto Start start iteration           ....    50
   Auto Start num. interpolation iter.  ....    10
   Max. Number of Micro iterations      ....    24
   Max. Number of Macro iterations      .... Maxiter - #DIIS iter
   Number of Davidson start vectors     ....     2
   Converg. threshold    (grad. norm)   ....   1.000e-05
   Grad. Scal. Fac. for Micro threshold ....   0.100
   Minimum threshold for Micro iter.    ....   1.000e-02
   NR start threshold (gradient norm)   ....   1.000e-04
   Initial trust radius                 ....   0.400
   Minimum AH scaling param. (alpha)    ....   1.000
   Maximum AH scaling param. (alpha)    .... 1000.000
   Quad. conv. algorithm                .... NR
   White noise on init. David. guess    .... on
   Maximum white noise                  ....   0.010
   Pseudo random numbers                .... off
   Inactive MOs                         .... canonical
   Orbital update algorithm             .... Taylor
   Preconditioner                       .... Diag
   Full preconditioner red. dimension   ....   250
 SOSCF                 CNVSOSCF           .... on
   Start iteration     SOSCFMaxIt         ....   150
   Startup grad/error  SOSCFStart         ....  0.003300
   Hessian update      SOSCFHessUp        .... L-BFGS
   Autom. constraints  SOSCFAutoConstrain .... off
 Level Shifting         CNVShift        .... on
   Level shift para.    LevelShift      ....    0.2500
   Turn off err/grad.   ShiftErr        ....    0.0010
 Zerner damping         CNVZerner       .... off
 Static damping         CNVDamp         .... on
   Fraction old density DampFac         ....    0.7000
   Max. Damping (<1)    DampMax         ....    0.9800
   Min. Damping (>=0)   DampMin         ....    0.0000
   Turn off err/grad.   DampErr         ....    0.1000

SCF Procedure:
 Maximum # iterations   MaxIter         ....   125
 SCF integral mode      SCFMode         .... Direct
   Integral package                     .... SHARK and LIBINT hybrid scheme
 Reset frequency        DirectResetFreq ....    20
 Integral Threshold     Thresh          ....  2.500e-11 Eh
 Primitive CutOff       TCut            ....  2.500e-12 Eh

Convergence Tolerance:
 Convergence Check Mode ConvCheckMode   .... Total+1el-Energy
 Convergence forced     ConvForced      .... 0
 Energy Change          TolE            ....  1.000e-08 Eh
 1-El. energy change                    ....  1.000e-05 Eh
 Orbital Gradient       TolG            ....  1.000e-05
 Orbital Rotation angle TolX            ....  1.000e-05
 DIIS Error             TolErr          ....  5.000e-07

------------------------------
INITIAL GUESS: MODEL POTENTIAL
------------------------------
Loading Hartree-Fock densities                     ... done
Calculating cut-offs                               ... done
Initializing the effective Hamiltonian             ... done
Setting up the integral package (SHARK)            ... done
Starting the Coulomb interaction                   ... done (   0.0 sec)
Making the grid                                    ... done (   0.0 sec)
Mapping shells                                     ... done
Starting the XC term evaluation                    ... done (   0.0 sec)
  promolecular density results
     # of electrons  =     31.000240993
     EX              =    -35.634431832
     EC              =      0.000000000
     EX+EC           =    -35.634431832
Transforming the Hamiltonian                       ... done (   0.0 sec)
Diagonalizing the Hamiltonian                      ... done (   0.0 sec)
Back transforming the eigenvectors                 ... done (   0.0 sec)
Now organizing SCF variables                       ... done
                      ------------------
                      INITIAL GUESS DONE (   0.1 sec)
                      ------------------
             **** ENERGY FILE WAS UPDATED (/cluster/projects/nn14654k/ylvaos/basis_set_n_funcs/functionals/lda_x/PO2/inp/PO2_lda_x_augccpvtz.en.tmp) ****
Finished Guess after   0.2 sec
Maximum memory used throughout the entire GUESS-calculation: 8.6 MB


           ************************************************************
           *        Program running with 8 parallel MPI-processes     *
           *              working on a common directory               *
           ************************************************************

-------------------------------------------------------------------------------------------
                                      ORCA LEAN-SCF
                              memory conserving SCF solver
-------------------------------------------------------------------------------------------

----------------------------------------D-I-I-S--------------------------------------------
Iteration    Energy (Eh)           Delta-E    RMSDP     MaxDP     DIISErr   Damp  Time(sec)
-------------------------------------------------------------------------------------------
               ***  Starting incremental Fock matrix formation  ***
    1    -487.0919248123807961     0.00e+00  4.02e-03  5.36e-02  1.43e-01  0.700   0.3
Warning: op=1 Small HOMO/LUMO gap (   0.064) - skipping pre-diagonalization
         Will do a full diagonalization
    2    -487.2038451578690115    -1.12e-01  1.70e-03  2.27e-02  2.94e-02  0.700   0.3
                               ***Turning on AO-DIIS***
    3    -487.2253965513827438    -2.16e-02  6.76e-04  8.89e-03  1.79e-02  0.700   0.3
    4    -487.2414346697527776    -1.60e-02  1.09e-03  1.38e-02  2.23e-02  0.000   0.3
    5    -487.2873785516190424    -4.59e-02  3.87e-04  4.82e-03  1.41e-02  0.000   0.3
    6    -487.2893748702193193    -2.00e-03  1.69e-04  2.07e-03  5.80e-03  0.000   0.3
                              *** Initializing SOSCF ***
---------------------------------------S-O-S-C-F--------------------------------------
Iteration    Energy (Eh)           Delta-E    RMSDP     MaxDP     MaxGrad    Time(sec)
--------------------------------------------------------------------------------------
    7    -487.2897035383028310    -3.29e-04  8.43e-05  9.08e-04  2.38e-03     0.3
               *** Restarting incremental Fock matrix formation ***
    8    -487.2897632639609924    -5.97e-05  1.54e-04  1.66e-03  1.59e-03     0.3
    9    -487.2897060639958795     5.72e-05  9.69e-05  1.13e-03  3.47e-03     0.3
   10    -487.2897789141467797    -7.29e-05  1.86e-05  2.13e-04  1.43e-04     0.3
   11    -487.2897791701279289    -2.56e-07  7.10e-06  1.10e-04  8.38e-05     0.2
   12    -487.2897793065114342    -1.36e-07  1.63e-06  9.73e-06  1.17e-05     0.2
   13    -487.2897793097784529    -3.27e-09  5.42e-07  6.41e-06  7.70e-06     0.2
                 **** Energy Check signals convergence ****

               *****************************************************
               *                     SUCCESS                       *
               *           SCF CONVERGED AFTER  13 CYCLES          *
               *****************************************************

             **** ENERGY FILE WAS UPDATED (/cluster/projects/nn14654k/ylvaos/basis_set_n_funcs/functionals/lda_x/PO2/inp/PO2_lda_x_augccpvtz.en.tmp) ****

----------------
TOTAL SCF ENERGY
----------------

Total Energy       :       -487.28977931073217 Eh          -13259.82901 eV

Components:
Nuclear Repulsion  :         99.08629604629714 Eh            2696.27519 eV
Electronic Energy  :       -586.37607535702932 Eh          -15956.10420 eV
One Electron Energy:       -874.23676125675763 Eh          -23789.19169 eV
Two Electron Energy:        287.86068589972831 Eh            7833.08749 eV

Virial components:
Potential Energy   :       -975.20666970368575 Eh          -26536.72258 eV
Kinetic Energy     :        487.91689039295352 Eh           13276.89357 eV
Virial Ratio       :          1.99871471741485

DFT components:
N(Alpha)           :       16.000010591994 electrons
N(Beta)            :       15.000011804632 electrons
N(Total)           :       31.000022396627 electrons
E(X)               :      -35.680156535622 Eh       
E(C)               :        0.000000000000 Eh       
E(XC)              :      -35.680156535622 Eh       

---------------
SCF CONVERGENCE
---------------

  Last Energy change         ...    3.2670e-09  Tolerance :   1.0000e-08
  Last MAX-Density change    ...    6.4105e-06  Tolerance :   1.0000e-07
  Last RMS-Density change    ...    5.4220e-07  Tolerance :   5.0000e-09
  Last DIIS Error            ...    2.3754e-03  Tolerance :   5.0000e-07
  Last Orbital Gradient      ...    7.6968e-06  Tolerance :   1.0000e-05
  Last Orbital Rotation      ...    1.3872e-05  Tolerance :   1.0000e-05


----------------------
UHF SPIN CONTAMINATION
----------------------

Warning: in a DFT calculation there is little theoretical justification to 
         calculate <S**2> as in Hartree-Fock theory. We will do it anyways
         but you should keep in mind that the values have only limited relevance

Expectation value of <S**2>     :     0.752749
Ideal value S*(S+1) for S=0.5   :     0.750000
Deviation                       :     0.002749

----------------
ORBITAL ENERGIES
----------------
                 SPIN UP ORBITALS
  NO   OCC          E(Eh)            E(eV) 
   0   1.0000     -76.049553     -2069.4136 
   1   1.0000     -18.606022      -506.2956 
   2   1.0000     -18.606015      -506.2954 
   3   1.0000      -6.324936      -172.1103 
   4   1.0000      -4.576097      -124.5219 
   5   1.0000      -4.573450      -124.4499 
   6   1.0000      -4.571140      -124.3870 
   7   1.0000      -0.944799       -25.7093 
   8   1.0000      -0.897851       -24.4318 
   9   1.0000      -0.472683       -12.8624 
  10   1.0000      -0.378728       -10.3057 
  11   1.0000      -0.369131       -10.0446 
  12   1.0000      -0.367790       -10.0081 
  13   1.0000      -0.299497        -8.1497 
  14   1.0000      -0.289989        -7.8910 
  15   1.0000      -0.232595        -6.3292 
  16   0.0000      -0.090849        -2.4721 
  17   0.0000      -0.006860        -0.1867 
  18   0.0000       0.023643         0.6434 
  19   0.0000       0.032544         0.8856 
  20   0.0000       0.042943         1.1685 
  21   0.0000       0.063558         1.7295 
  22   0.0000       0.108758         2.9595 
  23   0.0000       0.118741         3.2311 
  24   0.0000       0.119733         3.2581 
  25   0.0000       0.127860         3.4792 
  26   0.0000       0.136051         3.7021 

                 SPIN DOWN ORBITALS
  NO   OCC          E(Eh)            E(eV) 
   0   1.0000     -76.047567     -2069.3595 
   1   1.0000     -18.598232      -506.0836 
   2   1.0000     -18.598225      -506.0834 
   3   1.0000      -6.321764      -172.0239 
   4   1.0000      -4.573038      -124.4387 
   5   1.0000      -4.568949      -124.3274 
   6   1.0000      -4.568177      -124.3064 
   7   1.0000      -0.928862       -25.2756 
   8   1.0000      -0.881317       -23.9819 
   9   1.0000      -0.447998       -12.1906 
  10   1.0000      -0.358246        -9.7484 
  11   1.0000      -0.357729        -9.7343 
  12   1.0000      -0.349289        -9.5046 
  13   1.0000      -0.291415        -7.9298 
  14   1.0000      -0.277534        -7.5521 
  15   0.0000      -0.183858        -5.0030 
  16   0.0000      -0.063918        -1.7393 
  17   0.0000       0.008591         0.2338 
  18   0.0000       0.037171         1.0115 
  19   0.0000       0.037965         1.0331 
  20   0.0000       0.049116         1.3365 
  21   0.0000       0.073902         2.0110 
  22   0.0000       0.120038         3.2664 
  23   0.0000       0.122572         3.3353 
  24   0.0000       0.130889         3.5617 
  25   0.0000       0.134317         3.6550 
*Only the first 10 virtual orbitals were printed.

                    ********************************
                    * MULLIKEN POPULATION ANALYSIS *
                    ********************************

--------------------------------------------
MULLIKEN ATOMIC CHARGES AND SPIN POPULATIONS
--------------------------------------------
   0 P :    0.978725    0.559001
   1 O :   -0.489362    0.220500
   2 O :   -0.489362    0.220500
Sum of atomic charges         :   -0.0000000
Sum of atomic spin populations:    1.0000000

-----------------------------------------------------
MULLIKEN REDUCED ORBITAL CHARGES AND SPIN POPULATIONS
-----------------------------------------------------
CHARGE
  0 P s       :     5.547683  s :     5.547683
      pz      :     2.771382  p :     7.959350
      px      :     2.649458
      py      :     2.538511
      dz2     :     0.062042  d :     0.490654
      dxz     :     0.006949
      dyz     :     0.162300
      dx2y2   :     0.119616
      dxy     :     0.139747
      f0      :     0.003756  f :     0.023588
      f+1     :     0.000079
      f-1     :     0.008381
      f+2     :     0.006861
      f-2     :     0.003655
      f+3     :    -0.001997
      f-3     :     0.002854

  1 O s       :     3.879838  s :     3.879838
      pz      :     1.583379  p :     4.548886
      px      :     1.577389
      py      :     1.388118
      dz2     :     0.008286  d :     0.056559
      dxz     :     0.003345
      dyz     :     0.017209
      dx2y2   :     0.009186
      dxy     :     0.018534
      f0      :     0.000126  f :     0.004079
      f+1     :     0.000054
      f-1     :     0.001361
      f+2     :     0.000272
      f-2     :     0.000470
      f+3     :     0.001264
      f-3     :     0.000533

  2 O s       :     3.879837  s :     3.879837
      pz      :     1.583379  p :     4.548887
      px      :     1.577389
      py      :     1.388119
      dz2     :     0.008286  d :     0.056559
      dxz     :     0.003345
      dyz     :     0.017209
      dx2y2   :     0.009186
      dxy     :     0.018534
      f0      :     0.000126  f :     0.004079
      f+1     :     0.000054
      f-1     :     0.001361
      f+2     :     0.000272
      f-2     :     0.000470
      f+3     :     0.001264
      f-3     :     0.000533


SPIN
  0 P s       :     0.258565  s :     0.258565
      pz      :     0.191844  p :     0.193927
      px      :     0.024948
      py      :    -0.022865
      dz2     :     0.037368  d :     0.113153
      dxz     :    -0.004191
      dyz     :     0.002568
      dx2y2   :     0.072824
      dxy     :     0.004583
      f0      :     0.000418  f :    -0.006644
      f+1     :    -0.000100
      f-1     :    -0.003845
      f+2     :     0.000674
      f-2     :    -0.000617
      f+3     :    -0.002416
      f-3     :    -0.000758

  1 O s       :     0.020665  s :     0.020665
      pz      :     0.163218  p :     0.198471
      px      :    -0.011569
      py      :     0.046823
      dz2     :    -0.000135  d :     0.001067
      dxz     :    -0.000028
      dyz     :     0.000609
      dx2y2   :     0.000254
      dxy     :     0.000367
      f0      :     0.000001  f :     0.000296
      f+1     :    -0.000010
      f-1     :     0.000063
      f+2     :     0.000077
      f-2     :     0.000064
      f+3     :     0.000073
      f-3     :     0.000029

  2 O s       :     0.020665  s :     0.020665
      pz      :     0.163218  p :     0.198471
      px      :    -0.011569
      py      :     0.046823
      dz2     :    -0.000135  d :     0.001067
      dxz     :    -0.000028
      dyz     :     0.000609
      dx2y2   :     0.000254
      dxy     :     0.000367
      f0      :     0.000001  f :     0.000296
      f+1     :    -0.000010
      f-1     :     0.000063
      f+2     :     0.000077
      f-2     :     0.000064
      f+3     :     0.000073
      f-3     :     0.000029



                     *******************************
                     * LOEWDIN POPULATION ANALYSIS *
                     *******************************

-------------------------------------------
LOEWDIN ATOMIC CHARGES AND SPIN POPULATIONS
-------------------------------------------
   0 P :    0.252769    0.490228
   1 O :   -0.126385    0.254886
   2 O :   -0.126385    0.254886

----------------------------------------------------
LOEWDIN REDUCED ORBITAL CHARGES AND SPIN POPULATIONS
----------------------------------------------------
CHARGE
  0 P s       :     4.807803  s :     4.807803
      pz      :     2.724864  p :     8.051671
      px      :     2.572422
      py      :     2.754386
      dz2     :     0.170627  d :     1.340996
      dxz     :     0.016273
      dyz     :     0.431722
      dx2y2   :     0.371831
      dxy     :     0.350543
      f0      :     0.050471  f :     0.546760
      f+1     :     0.000801
      f-1     :     0.151184
      f+2     :     0.108993
      f-2     :     0.064714
      f+3     :     0.062632
      f-3     :     0.107965

  1 O s       :     3.459909  s :     3.459909
      pz      :     1.451602  p :     4.392704
      px      :     1.399475
      py      :     1.541626
      dz2     :     0.023894  d :     0.209999
      dxz     :     0.005571
      dyz     :     0.079483
      dx2y2   :     0.054994
      dxy     :     0.046057
      f0      :     0.007298  f :     0.063773
      f+1     :     0.000491
      f-1     :     0.011427
      f+2     :     0.015974
      f-2     :     0.004272
      f+3     :     0.010441
      f-3     :     0.013870

  2 O s       :     3.459909  s :     3.459909
      pz      :     1.451602  p :     4.392704
      px      :     1.399475
      py      :     1.541626
      dz2     :     0.023894  d :     0.209999
      dxz     :     0.005571
      dyz     :     0.079483
      dx2y2   :     0.054994
      dxy     :     0.046057
      f0      :     0.007298  f :     0.063773
      f+1     :     0.000491
      f-1     :     0.011427
      f+2     :     0.015974
      f-2     :     0.004272
      f+3     :     0.010441
      f-3     :     0.013870


SPIN
  0 P s       :     0.164679  s :     0.164679
      pz      :     0.151652  p :     0.162034
      px      :     0.018264
      py      :    -0.007883
      dz2     :     0.069052  d :     0.161149
      dxz     :    -0.003725
      dyz     :    -0.001911
      dx2y2   :     0.098387
      dxy     :    -0.000654
      f0      :     0.001990  f :     0.002367
      f+1     :    -0.000159
      f-1     :    -0.002413
      f+2     :     0.007192
      f-2     :    -0.000942
      f+3     :    -0.003589
      f-3     :     0.000287

  1 O s       :     0.038827  s :     0.038827
      pz      :     0.148722  p :     0.195831
      px      :    -0.006435
      py      :     0.053545
      dz2     :     0.002211  d :     0.017867
      dxz     :     0.000310
      dyz     :     0.013912
      dx2y2   :     0.000289
      dxy     :     0.001145
      f0      :    -0.000002  f :     0.002361
      f+1     :    -0.000021
      f-1     :     0.001422
      f+2     :     0.000361
      f-2     :     0.000230
      f+3     :     0.000174
      f-3     :     0.000199

  2 O s       :     0.038827  s :     0.038827
      pz      :     0.148722  p :     0.195831
      px      :    -0.006435
      py      :     0.053545
      dz2     :     0.002211  d :     0.017867
      dxz     :     0.000310
      dyz     :     0.013912
      dx2y2   :     0.000289
      dxy     :     0.001145
      f0      :    -0.000002  f :     0.002361
      f+1     :    -0.000021
      f-1     :     0.001422
      f+2     :     0.000361
      f-2     :     0.000230
      f+3     :     0.000174
      f-3     :     0.000199



                      *****************************
                      * MAYER POPULATION ANALYSIS *
                      *****************************

  NA   - Mulliken gross atomic population
  ZA   - Total nuclear charge
  QA   - Mulliken gross atomic charge
  VA   - Mayer's total valence
  BVA  - Mayer's bonded valence
  FA   - Mayer's free valence

  ATOM       NA         ZA         QA         VA         BVA        FA
  0 P     14.0213    15.0000     0.9787     3.9765     3.6226     0.3539
  1 O      8.4894     8.0000    -0.4894     2.0346     1.9964     0.0382
  2 O      8.4894     8.0000    -0.4894     2.0346     1.9964     0.0382

  Mayer bond orders larger than 0.100000
B(  0-P ,  1-O ) :   1.8113 B(  0-P ,  2-O ) :   1.8113 B(  1-O ,  2-O ) :   0.1851 


-------
TIMINGS
-------

Total SCF time: 0 days 0 hours 0 min 3 sec 

Total time                  ....       3.829 sec
Sum of individual times     ....       3.634 sec  ( 94.9%)

SCF preparation             ....       0.084 sec  (  2.2%)
Fock matrix formation       ....       2.800 sec  ( 73.1%)
  Startup                   ....       0.018 sec  (  0.6% of F)
  Coulomb formation         ....       1.972 sec  ( 70.4% of F)
  XC integration            ....       0.531 sec  ( 19.0% of F)
    Basis function eval.    ....       0.030 sec  (  5.7% of XC)
    Density eval.           ....       0.048 sec  (  9.0% of XC)
    XC-Functional eval.     ....       0.006 sec  (  1.1% of XC)
    XC-Potential eval.      ....       0.082 sec  ( 15.4% of XC)
Diagonalization             ....       0.000 sec  (  0.0%)
Density matrix formation    ....       0.212 sec  (  5.5%)
Total Energy calculation    ....       0.038 sec  (  1.0%)
Population analysis         ....       0.016 sec  (  0.4%)
Orbital Transformation      ....       0.056 sec  (  1.5%)
Orbital Orthonormalization  ....       0.000 sec  (  0.0%)
DIIS solution               ....       0.319 sec  (  8.3%)
SOSCF solution              ....       0.109 sec  (  2.8%)
Finished LeanSCF after   3.9 sec

Maximum memory used throughout the entire LEANSCF-calculation: 13.1 MB


           ************************************************************
           *        Program running with 8 parallel MPI-processes     *
           *              working on a common directory               *
           ************************************************************

------------------------------------------------------------------------------
                         ORCA PROPERTY INTEGRAL CALCULATIONS
------------------------------------------------------------------------------

GBWName                                   ... /cluster/projects/nn14654k/ylvaos/basis_set_n_funcs/functionals/lda_x/PO2/inp/PO2_lda_x_augccpvtz.gbw
Number of atoms                           ...      3
Number of basis functions                 ...    179
Max core memory                           ...   4096 MB

Dipole integrals                          ... YES
Quadrupole integrals                      ... YES
Linear momentum integrals                 ...  NO
Angular momentum integrals                ...  NO
Higher moments length integrals           ...  NO
Higher moments velocity integrals         ...  NO
Kinetic energy integrals                  ...  NO
GIAO right hand sides                     ...  NO
GIAO dipole derivative integrals          ...  NO
SOC integrals                             ...  NO
EPR diamagnetic integrals (GIAO)          ...  NO
EPR gauge integrals                       ...  NO
Field gradient integrals                  ...  NO (   0 nuclei)
Spin-dipole/Fermi contact integrals       ...  NO (   0 nuclei)
Contact density integrals                 ...  NO (   0 nuclei)
Nucleus-orbit integrals                   ...  NO (   0 nuclei)
Geometric perturbations                   ...  NO (   3 nuclei)

Choice of electric origin   ... Center of mass
Position of electric origin ... (  0.0000,  0.0000,  0.0084) 
Choice of magnetic origin   ... GIAO
Position of magnetic origin ... (  0.0000,  0.0000,  0.0000) 

Calculating integrals                     ... Electric Dipole (Length)     done (  0.0 sec)
Calculating integrals                     ... Electric Quadrupole (Length) done (  0.0 sec)

Property integrals calculated in   0.0 sec

Maximum memory used throughout the entire PROPINT-calculation: 9.3 MB
------------------------------------------------------------------------------
                           ORCA ORBITAL LOCALIZATION
------------------------------------------------------------------------------

Input orbitals are from                  ... /cluster/projects/nn14654k/ylvaos/basis_set_n_funcs/functionals/lda_x/PO2/inp/PO2_lda_x_augccpvtz.gbw
Output orbitals are to                   ... /cluster/projects/nn14654k/ylvaos/basis_set_n_funcs/functionals/lda_x/PO2/inp/PO2_lda_x_augccpvtz.loc
Max. number of iterations                ... 128
Localizations seeded randomly            ... on
Convergence tolerance                    ... 1.000e-06
Threshold for strong local MOs           ... 9.500e-01
Threshold for bond MOs                   ... 8.500e-01
Operator                                 ... 0
Orbital range for localization           ... 4 to 15
Localization criterion                   ... NEW-BOYS
Doing the dipole integrals               ... o.k.
Initial value of the localization sum :    33.889853
ITERATION   0 : L=   43.5065542267 DL=  9.62e+00 (AVERGE_DL)=    0.3817166468 
ITERATION   1 : L=   49.5287767353 DL=  6.02e+00 (AVERGE_DL)=    0.3020691901 
ITERATION   2 : L=   49.8787038220 DL=  3.50e-01 (AVERGE_DL)=    0.0728143225 
ITERATION   3 : L=   49.9870142668 DL=  1.08e-01 (AVERGE_DL)=    0.0405100894 
ITERATION   4 : L=   50.0485364645 DL=  6.15e-02 (AVERGE_DL)=    0.0305312055 
ITERATION   5 : L=   50.0915219818 DL=  4.30e-02 (AVERGE_DL)=    0.0255204960 
ITERATION   6 : L=   50.1271109425 DL=  3.56e-02 (AVERGE_DL)=    0.0232212549 
ITERATION   7 : L=   50.1562258923 DL=  2.91e-02 (AVERGE_DL)=    0.0210032284 
ITERATION   8 : L=   50.1747522675 DL=  1.85e-02 (AVERGE_DL)=    0.0167541832 
ITERATION   9 : L=   50.1835763723 DL=  8.82e-03 (AVERGE_DL)=    0.0115628092 
ITERATION  10 : L=   50.1869872942 DL=  3.41e-03 (AVERGE_DL)=    0.0071889245 
ITERATION  11 : L=   50.1881565516 DL=  1.17e-03 (AVERGE_DL)=    0.0042090403 
ITERATION  12 : L=   50.1885341568 DL=  3.78e-04 (AVERGE_DL)=    0.0023919221 
ITERATION  13 : L=   50.1886528463 DL=  1.19e-04 (AVERGE_DL)=    0.0013410166 
ITERATION  14 : L=   50.1886896242 DL=  3.68e-05 (AVERGE_DL)=    0.0007464862 
ITERATION  15 : L=   50.1887008770 DL=  1.13e-05 (AVERGE_DL)=    0.0004129116 
ITERATION  16 : L=   50.1887042689 DL=  3.39e-06 (AVERGE_DL)=    0.0002266994 
ITERATION  17 : L=   50.1887052729 DL=  1.00e-06 (AVERGE_DL)=    0.0001233389 
ITERATION  18 : L=   50.1887055650 DL=  2.92e-07 (AVERGE_DL)=    0.0000665292 
LOCALIZATION SUM CONVERGED


--------------------------------------------------------------------------------
                    LOCALIZED MOLECULAR ORBITAL COMPOSITIONS
--------------------------------------------------------------------------------

The Mulliken populations for each LMO on each atom are computed
The LMO`s will be ordered according to atom index and type
  (A) Strongly localized MO`s have populations of >=0.950 on one atom
  (B) Two center bond orbitals have populations of >=0.850 on two atoms
  (C) Other MO`s are considered to be `delocalized`

FOUND  -   6 strongly local MO`s
       -   6 two center bond MO`s
       -   0 significantly delocalized MO`s

Rather strongly localized orbitals:
MO   9:   2O  -   0.991630
MO   8:   1O  -   0.991623
MO   7:   0P  -   1.016699
MO   6:   0P  -   1.001751
MO   5:   0P  -   1.007015
MO   4:   0P  -   1.001751
Bond-like localized orbitals:
MO  15:   2O  -   0.910535  and   0P  -   0.085655
MO  14:   2O  -   0.727673  and   0P  -   0.272852
MO  13:   2O  -   0.727683  and   0P  -   0.272842
MO  12:   1O  -   0.727675  and   0P  -   0.272850
MO  11:   1O  -   0.727655  and   0P  -   0.272872
MO  10:   1O  -   0.910569  and   0P  -   0.085619
Localized MO's were stored in: /cluster/projects/nn14654k/ylvaos/basis_set_n_funcs/functionals/lda_x/PO2/inp/PO2_lda_x_augccpvtz.loc
------------------------------------------------------------------------------
                           ORCA ORBITAL LOCALIZATION
------------------------------------------------------------------------------

Input orbitals are from                  ... /cluster/projects/nn14654k/ylvaos/basis_set_n_funcs/functionals/lda_x/PO2/inp/PO2_lda_x_augccpvtz.loc
Output orbitals are to                   ... /cluster/projects/nn14654k/ylvaos/basis_set_n_funcs/functionals/lda_x/PO2/inp/PO2_lda_x_augccpvtz.loc
Max. number of iterations                ... 128
Localizations seeded randomly            ... on
Convergence tolerance                    ... 1.000e-06
Threshold for strong local MOs           ... 9.500e-01
Threshold for bond MOs                   ... 8.500e-01
Operator                                 ... 1
Orbital range for localization           ... 4 to 14
Localization criterion                   ... NEW-BOYS
Doing the dipole integrals               ... o.k.
Initial value of the localization sum :    28.667719
ITERATION   0 : L=   40.8922949257 DL=  1.22e+01 (AVERGE_DL)=    0.4714499181 
ITERATION   1 : L=   42.4988633784 DL=  1.61e+00 (AVERGE_DL)=    0.1709103142 
ITERATION   2 : L=   43.0551182769 DL=  5.56e-01 (AVERGE_DL)=    0.1005670196 
ITERATION   3 : L=   43.0751201092 DL=  2.00e-02 (AVERGE_DL)=    0.0190701253 
ITERATION   4 : L=   43.0766743402 DL=  1.55e-03 (AVERGE_DL)=    0.0053158955 
ITERATION   5 : L=   43.0768759373 DL=  2.02e-04 (AVERGE_DL)=    0.0019145239 
ITERATION   6 : L=   43.0770032525 DL=  1.27e-04 (AVERGE_DL)=    0.0015214543 
ITERATION   7 : L=   43.0771042260 DL=  1.01e-04 (AVERGE_DL)=    0.0013549467 
ITERATION   8 : L=   43.0771832143 DL=  7.90e-05 (AVERGE_DL)=    0.0011983954 
ITERATION   9 : L=   43.0772447806 DL=  6.16e-05 (AVERGE_DL)=    0.0010580109 
ITERATION  10 : L=   43.0772927205 DL=  4.79e-05 (AVERGE_DL)=    0.0009336139 
ITERATION  11 : L=   43.0773300600 DL=  3.73e-05 (AVERGE_DL)=    0.0008239542 
ITERATION  12 : L=   43.0773591622 DL=  2.91e-05 (AVERGE_DL)=    0.0007274129 
ITERATION  13 : L=   43.0773818489 DL=  2.27e-05 (AVERGE_DL)=    0.0006422504 
ITERATION  14 : L=   43.0773995461 DL=  1.77e-05 (AVERGE_DL)=    0.0005672461 
ITERATION  15 : L=   43.0774133544 DL=  1.38e-05 (AVERGE_DL)=    0.0005010577 
ITERATION  16 : L=   43.0774241334 DL=  1.08e-05 (AVERGE_DL)=    0.0004426996 
ITERATION  17 : L=   43.0774325550 DL=  8.42e-06 (AVERGE_DL)=    0.0003913051 
ITERATION  18 : L=   43.0774391334 DL=  6.58e-06 (AVERGE_DL)=    0.0003458425 
ITERATION  19 : L=   43.0774442767 DL=  5.14e-06 (AVERGE_DL)=    0.0003058006 
ITERATION  20 : L=   43.0774482982 DL=  4.02e-06 (AVERGE_DL)=    0.0002704048 
ITERATION  21 : L=   43.0774514450 DL=  3.15e-06 (AVERGE_DL)=    0.0002391946 
ITERATION  22 : L=   43.0774539079 DL=  2.46e-06 (AVERGE_DL)=    0.0002116151 
ITERATION  23 : L=   43.0774558365 DL=  1.93e-06 (AVERGE_DL)=    0.0001872565 
ITERATION  24 : L=   43.0774573467 DL=  1.51e-06 (AVERGE_DL)=    0.0001657071 
ITERATION  25 : L=   43.0774585300 DL=  1.18e-06 (AVERGE_DL)=    0.0001466796 
ITERATION  26 : L=   43.0774594578 DL=  9.28e-07 (AVERGE_DL)=    0.0001298752 
LOCALIZATION SUM CONVERGED


--------------------------------------------------------------------------------
                    LOCALIZED MOLECULAR ORBITAL COMPOSITIONS
--------------------------------------------------------------------------------

The Mulliken populations for each LMO on each atom are computed
The LMO`s will be ordered according to atom index and type
  (A) Strongly localized MO`s have populations of >=0.950 on one atom
  (B) Two center bond orbitals have populations of >=0.850 on two atoms
  (C) Other MO`s are considered to be `delocalized`

FOUND  -   5 strongly local MO`s
       -   6 two center bond MO`s
       -   0 significantly delocalized MO`s

Rather strongly localized orbitals:
MO   8:   2O  -   0.997804
MO   7:   1O  -   0.997801
MO   6:   0P  -   1.001369
MO   5:   0P  -   1.001369
MO   4:   0P  -   1.006741
Bond-like localized orbitals:
MO  14:   2O  -   0.573084  and   0P  -   0.427026
MO  13:   2O  -   0.778045  and   0P  -   0.221512
MO  12:   2O  -   0.778596  and   0P  -   0.220914
MO  11:   1O  -   0.573126  and   0P  -   0.426982
MO  10:   1O  -   0.778471  and   0P  -   0.221047
MO   9:   1O  -   0.778129  and   0P  -   0.221423
Localized MO's were stored in: /cluster/projects/nn14654k/ylvaos/basis_set_n_funcs/functionals/lda_x/PO2/inp/PO2_lda_x_augccpvtz.loc

-------------------------   --------------------
FINAL SINGLE POINT ENERGY      -487.289779310732
-------------------------   --------------------



           ************************************************************
           *        Program running with 8 parallel MPI-processes     *
           *              working on a common directory               *
           ************************************************************

------------------------------------------------------------------------------
                              ORCA PROPERTY CALCULATIONS
------------------------------------------------------------------------------

GBWName                                 ... /cluster/projects/nn14654k/ylvaos/basis_set_n_funcs/functionals/lda_x/PO2/inp/PO2_lda_x_augccpvtz.gbw
Number of atoms                         ...      3
Number of basis functions               ...    179
Max core memory                         ...   4096 MB

Electric properties:
Dipole moment                           ... YES
Quadrupole moment                       ... YES
Static polarizability (Dipole/Dipole)   ...  NO
Static polarizability (Dipole/Quad.)    ...  NO
Static polarizability (Quad./Quad.)     ...  NO
Static polarizability (Velocity)        ...  NO
Static hyperpolarizability              ...  NO

Atomic electric properties:
Dipole moment                           ...  NO
Quadrupole moment                       ...  NO
Static polarizability                   ...  NO

Choice of electric origin               ... Center of mass
Position of electric origin             ...     0.000000     0.000000     0.008437

General magnetic properties:
Magnetizability                         ...  NO

EPR properties:
g-Tensor (aka g-matrix)                 ...  NO
Zero-Field splitting spin-orbit         ...  NO
Zero-field splitting spin-spin          ...  NO
Hyperfine couplings                     ...  NO (   0 nuclei)
Quadrupole couplings                    ...  NO (   0 nuclei)
Contact density                         ...  NO (   0 nuclei)

NMR properties:
Chemical shifts                         ...  NO (   0 nuclei)
Spin-rotation constants                 ...  NO (   0 nuclei)
Spin-spin couplings                     ...  NO (   0 nuclei,    0 pairs)

Choice of magnetic origin               ... GIAO
Position of magnetic origin             ...     0.000000     0.000000     0.000000

Properties with geometric perturbations:
SCF Hessian                             ...  NO
IR spectrum                             ...  NO
VCD spectrum                            ...  NO
X-ray spectroscopy properties:
SCF XES/XAS/RIXS spectra                ...  NO

SCF SOC stabilization energy            ...  NO
Diagonal Born-Oppenheimer correction    ...  NO

-------------
DIPOLE MOMENT
-------------

Method             : SCF
Type of density    : Electron Density
Multiplicity       :   2
Irrep              :   0
Energy             :  -487.2897793107321718 Eh
Basis              : AO
                                X                 Y                 Z
Electronic contribution:      0.000000002      -0.000000006       0.749551992
Nuclear contribution   :      0.000000000       0.000000000      -0.261362976
                        -----------------------------------------
Total Dipole Moment    :      0.000000002      -0.000000006       0.488189016
                        -----------------------------------------
Magnitude (a.u.)       :      0.488189016
Magnitude (Debye)      :      1.240877864



--------------------
Rotational spectrum 
--------------------
 
Rotational constants in cm-1:             3.442444             0.286393             0.264396 
Rotational constants in MHz :        103201.869580          8585.841533          7926.407020 

Dipole components along the rotational axes: 
x,y,z [a.u.] :    -0.000000     0.488189     0.000000 
x,y,z [Debye]:    -0.000000     1.240878     0.000000 

 

Dipole moment calculation done in   0.0 sec 

-----------------
QUADRUPOLE MOMENT
-----------------

Method             : SCF
Type of density    : Electron Density
Multiplicity       :   2
Irrep              :   0
Energy             :  -487.2897793107321718 Eh
Basis              : AO

                XX              YY              ZZ              XY              XZ              YZ
  NUC        0.000000000   105.106420135     8.604299986     0.000000000     0.000000000     0.000000000
  EL       -16.101433977  -126.406853196   -25.434244372     0.000000002     0.000000001     0.000000014
  TOT      -16.101433977   -21.300433061   -16.829944387     0.000000002     0.000000001     0.000000014 (a.u.)
           -21.656979368   -28.649810942   -22.636850784     0.000000003     0.000000002     0.000000019 (Buckingham)

diagonalized tensor:
           -21.300433061   -16.829944387   -16.101433977 (a.u.)
           -28.649810942   -22.636850784   -21.656979368 (Buckingham)
           -13.005791732     5.033088742     7.972702990 (traceless form in Buckingham)

            -0.000000000     0.000000002     1.000000000
             1.000000000    -0.000000003     0.000000000
            -0.000000003    -1.000000000     0.000000002
        
Isotropic quadrupole :   -18.077270475

Quadrupole moment calculation done in   0.0 sec (  0.0 sec for integrals)

Maximum memory used throughout the entire PROP-calculation: 5.7 MB

--------------------------------
SUGGESTED CITATIONS FOR THIS RUN
--------------------------------

Below you find a list of papers that are relevant to this ORCA run
We neither can nor want to force you to cite these papers, but we appreciate if you do
You receive ORCA, which is the product of decades of hard work by many enthusiastic individuals, for free
The only thing we kindly ask in return is that you cite our papers,
We deeply appreciate it, if you show your appreciation for ORCA by not just citing the generic ORCA reference.

Please note that relegating all ORCA citations to the supporting information does *not* help us.
SI sections are not indexed - citations you put there will not count into any citation statistics
But we need these citations in order to attract the funding resources that allow us to do what we are doing

Therefore, if you are a happy ORCA user, please consider citing a few of the papers listed below in the main body of your paper

In addition to the list printed below, the program has created the file /cluster/projects/nn14654k/ylvaos/basis_set_n_funcs/functionals/lda_x/PO2/inp/PO2_lda_x_augccpvtz.bibtex that contains the list in bibtex format
You can import this file easily into all common literature databanks and citation aid programs

It goes without saying that in many instances, there are alternative algorithms to achieve similar
results as the ones you have gotten from ORCA. It is, of course, also the case that in some instances
ORCA just re-implements algorithms worked out by others. We are fully aware of that and we are also
fully appreciative of our colleagues work. Hence this citation list should not be read as indicating
that the listed papers, which are focused on our own work, are the only ones worth citing. It simply
meant to make it easier for users to cite ORCA specific papers. It is not a substitute for doing your
own literature research and citing the relevant literature in a scientifically appropriate manner.

List of essential papers. We consider these as the minimum necessary citations

  1. Neese, F.
     Software update: the ORCA program system, version 6.0
     WIRES Comput. Molec. Sci. 2025 15(1), e70019
     doi.org/10.1002/wcms.70019

List of papers to cite with high priority. The work reported in these papers was absolutely
necessary for this run to complete.
Our perspective: the developers of density functionals and basis sets usually get cited in chemistry papers
Good! But without the algorithms to do something with them, the functionals or basis sets would not do anything.
Hence, in our opinion, the algorithm design and method developments papers are equally worthy of getting cited

  1. Lehtola, S.; Steigemann, C.; Oliveira, M.; Marques, M.
     Recent developments in Libxc - A comprehensive library of functionals for density functional theory
     Software X 2018 7 , 
     doi.org/10.1016/j.softx.2017.11.002
  2. Neese, F.
     The SHARK Integral Generation and Digestion System
     J. Comp. Chem. 2022 44(3), 381
     doi.org/10.1002/jcc.26942

List of suggested additional citations. These are papers that are important in the 'surrounding' of 
of this run, or papers that preceded the highly important papers. If you like your results we are grateful for a citation.

  1. Neese, F.
     The ORCA program system
     WIRES Comput. Molec. Sci. 2012 2(1), 73-78
     doi.org/10.1002/wcms.81
  2. Neese, F.
     Software update: the ORCA program system, version 4.0
     WIRES Comput. Molec. Sci. 2018 8(1), 1-6
     doi.org/10.1002/wcms.1327
  3. Neese, F.; Wennmohs, F.; Becker, U.; Riplinger, C.
     The ORCA quantum chemistry program package
     J. Chem. Phys. 2020 152(22), 224108
     doi.org/10.1063/5.0004608
  4. Neese, F.
     Software update: The ORCA program system—Version 5.0
     WIRES Comput. Molec. Sci. 2022 12(1), e1606
     doi.org/10.1002/wcms.1606

List of optional additional citations

  1. Neese, F.
     Approximate second-order SCF convergence for spin unrestricted wavefunctions
     Chem. Phys. Lett. 2000 325(1-3), 93-98
     doi.org/10.1016/s0009-2614(00)00662-x

Timings for individual modules:

Sum of individual times          ...        6.115 sec (=   0.102 min)
Startup calculation              ...        1.010 sec (=   0.017 min)  16.5 %
SCF iterations                   ...        4.504 sec (=   0.075 min)  73.7 %
Property integrals               ...        0.280 sec (=   0.005 min)   4.6 %
Property calculations            ...        0.308 sec (=   0.005 min)   5.0 %
Orbital localization             ...        0.014 sec (=   0.000 min)   0.2 %
                             ****ORCA TERMINATED NORMALLY****
TOTAL RUN TIME: 0 days 0 hours 0 minutes 7 seconds 306 msec
