
                                 *****************
                                 * O   R   C   A *
                                 *****************

                                            #,                                       
                                            ###                                      
                                            ####                                     
                                            #####                                    
                                            ######                                   
                                           ########,                                 
                                     ,,################,,,,,                         
                               ,,#################################,,                 
                          ,,##########################################,,             
                       ,#########################################, ''#####,          
                    ,#############################################,,   '####,        
                  ,##################################################,,,,####,       
                ,###########''''           ''''###############################       
              ,#####''   ,,,,##########,,,,          '''####'''          '####       
            ,##' ,,,,###########################,,,                        '##       
           ' ,,###''''                  '''############,,,                           
         ,,##''                                '''############,,,,        ,,,,,,###''
      ,#''                                            '''#######################'''  
     '                                                          ''''####''''         
             ,#######,   #######,   ,#######,      ##                                
            ,#'     '#,  ##    ##  ,#'     '#,    #''#        ,####,    ,#,          
            ##       ##  ##   ,#'  ##            #'  '#       #'       ,# #          
            ##       ##  #######   ##           ,######,      #####,      #          
            '#,     ,#'  ##    ##  '#,     ,#' ,#      #,     #,   #      #          
             '#######'   ##     ##  '#######'  #'      '#     '####' #    #          



                #########################################################
                #                        -***-                          #
                #          Department of theory and spectroscopy        #
                #                                                       #
                #                      Frank Neese                      #
                #                                                       #
                #     Directorship, Architecture, Infrastructure        #
                #                    SHARK, DRIVERS                     #
                #        Core code/Algorithms in most modules           #
                #                                                       #
                #        Max Planck Institute fuer Kohlenforschung      #
                #                Kaiser Wilhelm Platz 1                 #
                #                 D-45470 Muelheim/Ruhr                 #
                #                      Germany                          #
                #                                                       #
                #                  All rights reserved                  #
                #                        -***-                          #
                #########################################################


                         Program Version 6.1.1  -  RELEASE   -
                                (GIT: $487d211c$)
                          ($2025-11-21 10:33:24 +0100$)


 With contributions from (in alphabetic order):
[Max-Planck-Institut fuer Kohlenforschung]                               
  Daniel Aravena         : Magnetic Suceptibility                        
  Michael Atanasov       : Ab Initio Ligand Field Theory (pilot matlab implementation)
  Alexander A. Auer      : GIAO ZORA, VPT2 properties, NMR spectrum      
  Ute Becker             : All parallelization in ORCA, NUMFREQ, NUMCALC 
  Giovanni Bistoni       : ED, misc. LED, open-shell LED, HFLD           
  Dmytro Bykov           : pre 5.0 version of the SCF Hessian            
  Marcos Casanova-Páez   : Triplet and SCS-CIS(D). UHF-(DLPNO)-IP/EA/STEOM-CCSD. UHF-CVS-IP/STEOM-CCSD   
  Vijay G. Chilkuri      : MRCI spin determinant printing, contributions to CSF-ICE 
  Pauline Colinet        : FMM embedding                                 
  Dipayan Datta          : RHF DLPNO-CCSD density                        
  Achintya Kumar Dutta   : EOM-CC, STEOM-CC                              
  Nicolas Foglia         : Exact transition moments, OPA infrastructure, MCD improvements    
  Dmitry Ganyushin       : Spin-Orbit,Spin-Spin,Magnetic field MRCI      
  Miquel Garcia-Rates    : C-PCM and meta-GGA Hessian, CCSD/C-PCM, Gaussian charge scheme 
  Tiago L. C. Gouveia    : GS-ROHF, GS-ROCIS                             
  Yang Guo               : DLPNO-NEVPT2, F12-NEVPT2, CIM, IAO-localization        
  Andreas Hansen         : Spin unrestricted coupled pair/coupled cluster methods 
  Ingolf Harden          : AUTO-CI MPn and infrastructure                
  Benjamin Helmich-Paris : MC-RPA, TRAH-(SCF,CASSCF), AVAS, COSX integrals, SCF dyn. polar., MC-PDFT, srDFT 
  Lee Huntington         : MR-EOM, pCC                                   
  Robert Izsak           : Overlap fitted RIJCOSX, COSX-SCS-MP3, EOM     
  Riya Kayal             : Wick's Theorem for AUTO-CI, AUTO-CI UHF-CCSDT 
  Emily Kempfer          : AUTO-CI RHF CISDT and CCSDT, approximate NEVPT4
  Christian Kollmar      : KDIIS, OOCD, Brueckner-CCSD(T), CCSD density, CASPT2, CASPT2-K, improved NEVPT2 
  Axel Koslowski         : Symmetry handling                             
  Simone Kossmann        : meta-GGA functionals, TD-DFT gradient, OOMP2, (MP2 Hessian; deprecated post 5.0) 
  Lucas Lang             : DCDCAS, Hyperfine gauge corrections, ICE-SOC+SSC
  Marvin Lechner         : AUTO-CI (C++ implementation), FIC-MRCC        
  Spencer Leger          : CASSCF response                               
  Dagmar Lenk            : GEPOL surface, SMD, ORCA-2-JSON               
  Dimitrios Liakos       : Extrapolation schemes; Compound Job, Property file
  Dimitrios Manganas     : Further ROCIS development; embedding schemes. LFT, Crystal Embedding 
  Dimitrios Pantazis     : SARC Basis sets                               
  Anastasios Papadopoulos: AUTO-CI, single reference methods and gradients 
  Taras Petrenko         : pre 6.0 DFT Hessian and TD-DFT gradient,  ECA, NRVS 
  Petra Pikulova         : Analytic Raman intensities                    
  Peter Pinski           : DLPNO-MP2, DLPNO-MP2 Gradient                 
  Shashank Vittal Rao    : ES-AILFT, MagRelax                            
  Christoph Reimann      : Effective Core Potentials                     
  Marius Retegan         : Local ZFS, SOC                                
  Christoph Riplinger    : Optimizer, TS searches, QM/MM, DLPNO-CCSD(T), (RO)-DLPNO pert. Triples 
  Michael Roemelt        : Original ROCIS implementation, recursive CI coupling coefficients
  Masaaki Saitow         : Open-shell DLPNO-CCSD energy and density      
  Barbara Sandhoefer     : DKH picture change effects                    
  Yorick L. A. Schmerwitz: GMF and freeze-and-release deltaSCF, NEB S-IDPP initial path                    
  Kantharuban Sivalingam : CASSCF convergence/infrastructure, NEVPT2, NEVPT3, NEVPT4(SD), FIC-MRCI and CEPA variants
  Bernardo de Souza      : ESD, SOC TD-DFT                               
  Georgi L. Stoychev     : AutoAux, RI-MP2 NMR, DLPNO-MP2 response, X2C  
  Van Anh Tran           : RI-MP2 g-tensors                              
  Willem Van den Heuvel  : Paramagnetic NMR                              
  Zikuan Wang            : NOTCH, Electric field optimization            
  Frank Wennmohs         : Technical directorship and infrastructure     
  Hang Xu                : AUTO-CI-Response properties                   
                                                                         
[FACCTs GmbH]                                                            
  Markus Bursch, Nicolas Foglia, Miquel Garcia-Rates, Ingolf Harden, Hagen Neugebauer, Anastasios Papadopoulos, 
  Christoph Riplinger, Bernardo de Souza, Georgi L. Stoychev                                                    
                                                                 
  APM, various basis sets, CI-OPT, improved COSX, DLPNO-Multilevel,           
  DOCKER, DRACO, updates on ESD, Fragmentator, GOAT, IRC, LR-CPCM, L-BFGS, MBIS, meta-GGA TD-DFT gradient, ML-optimized integration grids, 
  MM, NACMEs, nearIR, NEB, NEB-TS, NL-DFT gradient (VV10), 2- and 3-layer-ONIOM, interface openCOSMO-RS, QMMM,   
  Crystal-QMMM, RESP, rigid body optimization, SF, symmetry and pop. for TD-DFT, various functionals, SOLVATOR                                   
                                                                         
[Other institutions]                                                     
  V. Asgeirsson          : NEB                                           
  Christoph Bannwarth    : sTDA-DFT, sTD-DFT, PBEh-3c, B97-3c, D3        
  Giovanni Bistoni       : ETS/NOCV, ADLD/ADEX, COVALED                  
  Martin Brehm           : Molecular dynamics                            
  Ronald Cardenas        : ETS/NOCV                                      
  Martina Colucci        : COVALED                                       
  Sebastian Ehlert       : rSCAN, r2SCAN, r2SCAN-3c, D4, dhf basis sets  
  Marvin Friede          : D4 for Fr, Ra, Ac-Lr                          
  Lars Goerigk           : TD-DFT with DH, B97 family of functionals     
  Stefan Grimme          : VdW corrections, initial TS optimization, DFT functionals, gCP, sTDA/sTD-DF 
  Waldemar Hujo          : DFT-NL                                        
  H. Jonsson             : NEB                                           
  Holger Kruse           : gCP                                           
  Marcel Mueller         : wB97X-3c, vDZP basis set                      
  Hagen Neugebauer       : wr2SCAN, Native XTB                           
  Gianluca Regni         : ADLD/ADEX                                     
  Tobias Risthaus        : pre 6.0 range-separated hybrid DFT and stability analysis
  Lukas Wittmann         : regularized MP2, r2SCAN double-hybrids, wr2SCAN        
                                                                         
We gratefully acknowledge several colleagues who have allowed us to      
interface, adapt or use parts of their codes:                            
  Ed Valeev, F. Pavosevic, A. Kumar             : LibInt (2-el integral package), F12 methods 
  Garnet Chan, S. Sharma, J. Yang, R. Olivares  : DMRG                   
  Ulf Ekstrom                                   : XCFun DFT Library      
  Mihaly Kallay                                 : mrcc  (arbitrary order and MRCC methods)
  Frank Weinhold                                : gennbo (NPA and NBO analysis)           
  Simon Mueller                                 : openCOSMO-RS                            
  Christopher J. Cramer and Donald G. Truhlar   : smd solvation model                     
  S Lehtola, MJT Oliveira, MAL Marques          : LibXC Library                           
  Liviu Ungur et al                             : ANISO software                          


 Your calculation uses the libint2 library for the computation of 2-el integrals
 For citations please refer to: http://libint.valeyev.net

 Your ORCA version has been built with support for libXC version: 7.0.0
 For citations please refer to: https://libxc.gitlab.io

 This ORCA versions uses:
   CBLAS   interface :  Fast vector & matrix operations
   LAPACKE interface :  Fast linear algebra routines
   SCALAPACK package :  Parallel linear algebra routines
   Shared memory     :  Shared parallel matrices
   BLAS/LAPACK       :  OpenBLAS 0.3.29  USE64BITINT DYNAMIC_ARCH NO_AFFINITY Cooperlake SINGLE_THREADED
        Core in use  :  Cooperlake
   Copyright (c) 2011-2014, The OpenBLAS Project


  ***********************************
  * Starting time: Wed May 20 12:39:34 2026
  * Host name:     c1-14
  * Process ID:    1135197
  * Working dir.:  /cluster/projects/nn14654k/ylvaos/basis_set_n_funcs/functionals/lda_x/PO2/out
  ***********************************

Using LibXC functional ID   1 : Slater exchange
[ 1]  P. A. M. Dirac.,  Math. Proc. Cambridge Philos. Soc. 26, 376 (1930)
[ 2]  F. Bloch.,  Z. Phys. 57, 545 (1929)
Using LibXC functional ID   1 : Slater exchange
[ 1]  P. A. M. Dirac.,  Math. Proc. Cambridge Philos. Soc. 26, 376 (1930)
[ 2]  F. Bloch.,  Z. Phys. 57, 545 (1929)
Your calculation utilizes LibXC
by S. Lehtola, C. Steigemann, M. J. T. Oliveira & M. A. L. Marques
Please cite in your paper:
Lehtola, S.; Steigemann, C.; Oliveira, M.J.T.; Marques, M. A. L. Software X, 7, (2018), 1.
   

================================================================================

----- Orbital basis set information -----
Your calculation utilizes the basis: cc-pVQZ 
       H, B-Ne : Obtained from the ccRepo (grant-hill.group.shef.ac.uk/ccrepo) Feb. 2017
                 T. H. Dunning, Jr., J. Chem. Phys. 90, 1007 (1989)
            He : Obtained from the ccRepo (grant-hill.group.shef.ac.uk/ccrepo) Feb. 2017
                 D. E. Woon, T. H. Dunning, Jr., J. Chem. Phys. 100, 2975 (1994)
  Li-Be, Na-Mg : Obtained from the ccRepo (grant-hill.group.shef.ac.uk/ccrepo) Feb. 2017
                 B. P. Prascher, D. E. Woon, K. A. Peterson, T. H. Dunning, Jr., A. K. Wilson, Theor. Chem. Acc. 128, 69 (2011)
         Al-Ar : Obtained from the ccRepo (grant-hill.group.shef.ac.uk/ccrepo) Feb. 2017
                 D. E. Woon, T. H. Dunning, Jr., J. Chem. Phys. 98, 1358 (1993)
            Ca : Obtained from the Peterson Research Group Website (tyr0.chem.wsu.edu/~kipeters) Feb. 2017
                 J. Koput, K. A. Peterson, J. Phys. Chem. 106, 9595 (2002)
         Sc-Zn : Obtained from the ccRepo (grant-hill.group.shef.ac.uk/ccrepo) Feb. 2017
                 N. B. Balabanov, K. A. Peterson, J. Chem. Phys. 123, 064107 (2005)
                 N. B. Balabanov, K. A. Peterson, J. Chem. Phys. 125, 074110 (2006)
         Ga-Kr : Obtained from the ccRepo (grant-hill.group.shef.ac.uk/ccrepo) Feb. 2017
                 A. K. Wilson, D. E. Woon, K. A. Peterson, T. H. Dunning, Jr., J. Chem. Phys. 110, 7667 (1999)

================================================================================
                                        WARNINGS
                       Please study these warnings very carefully!
================================================================================


WARNING: your system is open-shell and RHF/RKS was chosen
  ===> : WILL SWITCH to UHF/UKS


================================================================================
                                       INPUT FILE
================================================================================
NAME = /cluster/projects/nn14654k/ylvaos/basis_set_n_funcs/functionals/lda_x/PO2/inp/PO2_lda_x_ccpvqz.inp
|  1> ! dft cc-pVQZ TightSCF
|  2> %pal nprocs 8 end
|  3> 
|  4> %loc
|  5>   LocMet NewBoys
|  6>   Occ true
|  7> end
|  8> 
|  9> %method
| 10>   exchange lda_x
| 11>   correlation None
| 12> end
| 13> 
| 14> %elprop
| 15>   Dipole true
| 16>   Quadrupole true
| 17> end
| 18> 
| 19> * xyz 0 2
| 20> P    0.000000000000   0.000000000000   0.287900000000
| 21> O    0.000000000000   1.356300000000  -0.269900000000
| 22> O    0.000000000000  -1.356300000000  -0.269900000000
| 23> *
| 24> 
| 25> 
| 26>                          ****END OF INPUT****
================================================================================

                       ****************************
                       * Single Point Calculation *
                       ****************************

---------------------------------
CARTESIAN COORDINATES (ANGSTROEM)
---------------------------------
  P      0.000000    0.000000    0.287900
  O      0.000000    1.356300   -0.269900
  O      0.000000   -1.356300   -0.269900

----------------------------
CARTESIAN COORDINATES (A.U.)
----------------------------
  NO LB      ZA    FRAG     MASS         X           Y           Z
   0 P    15.0000    0    30.974    0.000000    0.000000    0.544052
   1 O     8.0000    0    15.999    0.000000    2.563036   -0.510037
   2 O     8.0000    0    15.999    0.000000   -2.563036   -0.510037

--------------------------------
INTERNAL COORDINATES (ANGSTROEM)
--------------------------------
 P      0   0   0     0.000000000000     0.00000000     0.00000000
 O      1   0   0     1.466523279733     0.00000000     0.00000000
 O      1   2   0     1.466523279733   135.28860674     0.00000000

---------------------------
INTERNAL COORDINATES (A.U.)
---------------------------
 P      0   0   0     0.000000000000     0.00000000     0.00000000
 O      1   0   0     2.771327367716     0.00000000     0.00000000
 O      1   2   0     2.771327367716   135.28860674     0.00000000

---------------------
BASIS SET INFORMATION
---------------------
There are 2 groups of distinct atoms

 Group   1 Type P   : 42s19p3d2f1g contracted to 6s5p3d2f1g pattern {131313111/88111/111/11/1}
 Group   2 Type O   : 21s6p3d2f1g contracted to 5s4p3d2f1g pattern {99111/3111/111/11/1}

Atom   0P    basis set group =>   1
Atom   1O    basis set group =>   2
Atom   2O    basis set group =>   2


           ************************************************************
           *        Program running with 8 parallel MPI-processes     *
           *              working on a common directory               *
           ************************************************************
------------------------------------------------------------------------------
                             ORCA STARTUP CALCULATIONS
------------------------------------------------------------------------------
------------------------------------------------------------------------------
                   ___                                                        
                  /   \      - P O W E R E D   B Y -                         
                 /     \                                                     
                 |  |  |   _    _      __       _____    __    __             
                 |  |  |  | |  | |    /  \     |  _  \  |  |  /  |          
                  \  \/   | |  | |   /    \    | | | |  |  | /  /          
                 / \  \   | |__| |  /  /\  \   | |_| |  |  |/  /          
                |  |  |   |  __  | /  /__\  \  |    /   |      \           
                |  |  |   | |  | | |   __   |  |    \   |  |\   \          
                \     /   | |  | | |  |  |  |  | |\  \  |  | \   \       
                 \___/    |_|  |_| |__|  |__|  |_| \__\ |__|  \__/        
                                                                              
                      - O R C A' S   B I G   F R I E N D -                    
                                      &                                       
                       - I N T E G R A L  F E E D E R -                       
                                                                              
 v1 FN, 2020, v2 2021, v3 2022-2024                                           
------------------------------------------------------------------------------


----------------------
SHARK INTEGRAL PACKAGE
----------------------

Number of atoms                             ...      3
Number of basis functions                   ...    211
Number of shells                            ...     77
Maximum angular momentum                    ...      4
Integral batch strategy                     ... SHARK/LIBINT Hybrid
RI-J (if used) integral strategy            ... SPLIT-RIJ (Revised 2003 algorithm where possible)
Printlevel                                  ...      1
Contraction scheme used                     ... PARTIAL GENERAL contraction
Prescreening option                         ... SCHWARTZ
   Thresh                                   ... 2.500e-11
   Tcut                                     ... 2.500e-12
   Tpresel                                  ... 2.500e-12 
Coulomb Range Separation                    ... NOT USED
Exchange Range Separation                   ... NOT USED
Multipole approximations                    ... NOT USED
Finite Nucleus Model                        ... NOT USED
CABS basis                                  ... NOT available
Auxiliary Coulomb fitting basis             ... NOT available
Auxiliary J/K fitting basis                 ... NOT available
Auxiliary Correlation fitting basis         ... NOT available
Auxiliary 'external' fitting basis          ... NOT available

Checking pre-screening integrals            ... done (  0.0 sec) Dimension = 77
Save PGC pre-screening integrals            ... done (  0.0 sec) Dimension = 77
Calculate PGC overlap integrals             ... done (  0.0 sec) Dimension = 47
Calculating pre-screening integrals (ORCA)  ... done (  0.1 sec) Dimension = 47
Shell pair information
Shell pair cut-off parameter TPreSel        ...   2.5e-12
Total number of shell pairs                 ...      3003
Shell pairs after pre-screening             ...      2436
Total number of primitive shell pairs       ...      3327
Primitive shell pairs kept                  ...      2626
          la=0 lb=0:    515 shell pairs
          la=1 lb=0:    600 shell pairs
          la=1 lb=1:    181 shell pairs
          la=2 lb=0:    316 shell pairs
          la=2 lb=1:    167 shell pairs
          la=2 lb=2:     44 shell pairs
          la=3 lb=0:    220 shell pairs
          la=3 lb=1:    112 shell pairs
          la=3 lb=2:     52 shell pairs
          la=3 lb=3:     21 shell pairs
          la=4 lb=0:    100 shell pairs
          la=4 lb=1:     57 shell pairs
          la=4 lb=2:     27 shell pairs
          la=4 lb=3:     18 shell pairs
          la=4 lb=4:      6 shell pairs

Checking whether 4 symmetric matrices of dimension 211 fit in memory
:Max Core in MB      =   4096.00
 MB in use           =      5.99
 MB left             =   4090.01
 MB needed           =      0.68
 Data fit in memory  = YES
Calculating Nuclear repulsion               ... done (  0.0 sec) ENN=     99.086296046297 Eh

Diagonalization of the overlap matrix:
Smallest eigenvalue                        ... 2.307e-04
Time for diagonalization                   ...    0.002 sec
Threshold for overlap eigenvalues          ... 1.000e-07
Number of eigenvalues below threshold      ... 0
Time for construction of square roots      ...    0.002 sec
Total time needed                          ...    0.006 sec

-------------------
DFT GRID GENERATION
-------------------

General Integration Accuracy     IntAcc      ... 4.388
Radial Grid Type                 RadialGrid  ... OptM3 with GC (2021)
Angular Grid (max. ang.)         AngularGrid ... 4 (Lebedev-302)
Angular grid pruning method      GridPruning ... 4 (adaptive)
Weight generation scheme         WeightScheme... mBecke (2022)
Basis function cutoff            BFCut       ... 1.0000e-11
Integration weight cutoff        WCut        ... 1.0000e-14
Partially contracted basis set               ... off
Rotationally invariant grid construction     ... off
Angular grids for H and He will be reduced by one unit

Total number of grid points                  ...    19622
Total number of batches                      ...      309
Average number of points per batch           ...       63
Average number of grid points per atom       ...     6541

---------------------
SHARK GRID GENERATION
---------------------

General Integration Accuracy     IntAcc      ... 4.388
Radial Grid Type                 RadialGrid  ... OptM3 with GC (2021)
Angular Grid (max. ang.)         AngularGrid ... 4 (Lebedev-302)
Angular grid pruning method      GridPruning ... 4 (adaptive)
Weight generation scheme         WeightScheme... mBecke (2022)
Basis function cutoff            BFCut       ... 1.0000e-11
Integration weight cutoff        WCut        ... 1.0000e-14
Partially contracted basis set               ... off
Rotationally invariant grid construction     ... off
Angular grids for H and He will be reduced by one unit
Core-polarized basis detected: some atoms will have their core
                               angular grid increased.
Steep s-basis detected: some atoms will have their radial
                        grid points doubled.

Total number of grid points                  ...    44068
Total number of batches                      ...      689
Average number of points per batch           ...       63
Average number of grid points per atom       ...    14689
Grids setup in   0.4 sec
Initializing property integral containers    ... done (  0.0 sec)

SHARK setup successfully completed in   0.6 seconds

Maximum memory used throughout the entire STARTUP-calculation: 59.5 MB


           ************************************************************
           *        Program running with 8 parallel MPI-processes     *
           *              working on a common directory               *
           ************************************************************
-------------------------------------------------------------------------------
                                 ORCA GUESS
                   Start orbitals & Density for SCF / CASSCF
-------------------------------------------------------------------------------

------------
SCF SETTINGS
------------
Hamiltonian:
 Density Functional     Method          .... DFT(GTOs)
  Functional kind                       .... Exchange
  Functional name                       .... Slater exchange
  Functional family                     .... LDA
  Functional refs                              
    [ 0] P. A. M. Dirac.,  Math. Proc. Cambridge Philos. Soc. 26, 376 (1930), doi: 10.1017/S0305004100016108
    [ 1] F. Bloch.,  Z. Phys. 57, 545 (1929), doi: 10.1007/BF01340281
  Functional external parameters        .... 0
 Correlation Functional Correlation     .... No Correlation
 Gradients option       PostSCFGGA      .... off


General Settings:
 Integral files         IntName         .... /cluster/projects/nn14654k/ylvaos/basis_set_n_funcs/functionals/lda_x/PO2/inp/PO2_lda_x_ccpvqz
 Hartree-Fock type      HFTyp           .... UHF
 Total Charge           Charge          ....    0
 Multiplicity           Mult            ....    2
 Number of Electrons    NEL             ....   31
 Basis Dimension        Dim             ....  169
 Nuclear Repulsion      ENuc            ....     99.0862960463 Eh

Convergence Acceleration:
 AO-DIIS                CNVDIIS         .... on
   Start iteration      DIISMaxIt       ....    12
   Startup error        DIISStart       ....  0.200000
   # of expansion vecs  DIISMaxEq       ....     5
   Bias factor          DIISBfac        ....   1.050
   Max. coefficient     DIISMaxC        ....  10.000
 MO-DIIS                CNVKDIIS        .... off
 Trust-Rad. Augm. Hess. CNVTRAH         .... auto
   Auto Start mean grad. ratio tolernc. ....  1.125000
   Auto Start start iteration           ....    50
   Auto Start num. interpolation iter.  ....    10
   Max. Number of Micro iterations      ....    24
   Max. Number of Macro iterations      .... Maxiter - #DIIS iter
   Number of Davidson start vectors     ....     2
   Converg. threshold    (grad. norm)   ....   1.000e-05
   Grad. Scal. Fac. for Micro threshold ....   0.100
   Minimum threshold for Micro iter.    ....   1.000e-02
   NR start threshold (gradient norm)   ....   1.000e-04
   Initial trust radius                 ....   0.400
   Minimum AH scaling param. (alpha)    ....   1.000
   Maximum AH scaling param. (alpha)    .... 1000.000
   Quad. conv. algorithm                .... NR
   White noise on init. David. guess    .... on
   Maximum white noise                  ....   0.010
   Pseudo random numbers                .... off
   Inactive MOs                         .... canonical
   Orbital update algorithm             .... Taylor
   Preconditioner                       .... Diag
   Full preconditioner red. dimension   ....   250
 SOSCF                 CNVSOSCF           .... on
   Start iteration     SOSCFMaxIt         ....   150
   Startup grad/error  SOSCFStart         ....  0.003300
   Hessian update      SOSCFHessUp        .... L-BFGS
   Autom. constraints  SOSCFAutoConstrain .... off
 Level Shifting         CNVShift        .... on
   Level shift para.    LevelShift      ....    0.2500
   Turn off err/grad.   ShiftErr        ....    0.0010
 Zerner damping         CNVZerner       .... off
 Static damping         CNVDamp         .... on
   Fraction old density DampFac         ....    0.7000
   Max. Damping (<1)    DampMax         ....    0.9800
   Min. Damping (>=0)   DampMin         ....    0.0000
   Turn off err/grad.   DampErr         ....    0.1000

SCF Procedure:
 Maximum # iterations   MaxIter         ....   125
 SCF integral mode      SCFMode         .... Direct
   Integral package                     .... SHARK and LIBINT hybrid scheme
 Reset frequency        DirectResetFreq ....    20
 Integral Threshold     Thresh          ....  2.500e-11 Eh
 Primitive CutOff       TCut            ....  2.500e-12 Eh

Convergence Tolerance:
 Convergence Check Mode ConvCheckMode   .... Total+1el-Energy
 Convergence forced     ConvForced      .... 0
 Energy Change          TolE            ....  1.000e-08 Eh
 1-El. energy change                    ....  1.000e-05 Eh
 Orbital Gradient       TolG            ....  1.000e-05
 Orbital Rotation angle TolX            ....  1.000e-05
 DIIS Error             TolErr          ....  5.000e-07

------------------------------
INITIAL GUESS: MODEL POTENTIAL
------------------------------
Loading Hartree-Fock densities                     ... done
Calculating cut-offs                               ... done
Initializing the effective Hamiltonian             ... done
Setting up the integral package (SHARK)            ... done
Starting the Coulomb interaction                   ... done (   0.0 sec)
Making the grid                                    ... done (   0.0 sec)
Mapping shells                                     ... done
Starting the XC term evaluation                    ... done (   0.0 sec)
  promolecular density results
     # of electrons  =     31.000340816
     EX              =    -35.634422867
     EC              =      0.000000000
     EX+EC           =    -35.634422867
Transforming the Hamiltonian                       ... done (   0.0 sec)
Diagonalizing the Hamiltonian                      ... done (   0.0 sec)
Back transforming the eigenvectors                 ... done (   0.0 sec)
Now organizing SCF variables                       ... done
                      ------------------
                      INITIAL GUESS DONE (   0.1 sec)
                      ------------------
             **** ENERGY FILE WAS UPDATED (/cluster/projects/nn14654k/ylvaos/basis_set_n_funcs/functionals/lda_x/PO2/inp/PO2_lda_x_ccpvqz.en.tmp) ****
Finished Guess after   0.1 sec
Maximum memory used throughout the entire GUESS-calculation: 12.5 MB


           ************************************************************
           *        Program running with 8 parallel MPI-processes     *
           *              working on a common directory               *
           ************************************************************

-------------------------------------------------------------------------------------------
                                      ORCA LEAN-SCF
                              memory conserving SCF solver
-------------------------------------------------------------------------------------------

----------------------------------------D-I-I-S--------------------------------------------
Iteration    Energy (Eh)           Delta-E    RMSDP     MaxDP     DIISErr   Damp  Time(sec)
-------------------------------------------------------------------------------------------
               ***  Starting incremental Fock matrix formation  ***
    1    -487.1085842669434101     0.00e+00  3.70e-03  3.64e-02  1.35e-01  0.700   0.4
Warning: op=1 Small HOMO/LUMO gap (   0.064) - skipping pre-diagonalization
         Will do a full diagonalization
    2    -487.2215773895598545    -1.13e-01  1.59e-03  1.93e-02  3.05e-02  0.700   0.4
                               ***Turning on AO-DIIS***
    3    -487.2435576596562328    -2.20e-02  7.53e-04  1.82e-02  1.75e-02  0.700   0.4
    4    -487.2597474776700324    -1.62e-02  1.57e-03  5.04e-02  2.01e-02  0.000   0.4
    5    -487.3063730002647276    -4.66e-02  4.20e-04  5.78e-03  1.49e-02  0.000   0.4
    6    -487.3084515650893422    -2.08e-03  1.90e-04  3.97e-03  5.72e-03  0.000   0.4
                              *** Initializing SOSCF ***
---------------------------------------S-O-S-C-F--------------------------------------
Iteration    Energy (Eh)           Delta-E    RMSDP     MaxDP     MaxGrad    Time(sec)
--------------------------------------------------------------------------------------
    7    -487.3087541154029054    -3.03e-04  9.95e-05  2.80e-03  2.13e-03     0.5
               *** Restarting incremental Fock matrix formation ***
    8    -487.3087994862841583    -4.54e-05  1.36e-04  2.13e-03  1.37e-03     0.4
    9    -487.3087665371195385     3.29e-05  7.03e-05  8.59e-04  2.77e-03     0.3
   10    -487.3088117608708103    -4.52e-05  2.44e-05  7.34e-04  1.35e-04     0.3
   11    -487.3088120527606293    -2.92e-07  1.10e-05  3.62e-04  9.43e-05     0.3
   12    -487.3088122139006941    -1.61e-07  2.30e-06  6.56e-05  1.23e-05     0.3
   13    -487.3088122173055012    -3.40e-09  5.32e-07  6.75e-06  7.18e-06     0.3
                 **** Energy Check signals convergence ****

               *****************************************************
               *                     SUCCESS                       *
               *           SCF CONVERGED AFTER  13 CYCLES          *
               *****************************************************

             **** ENERGY FILE WAS UPDATED (/cluster/projects/nn14654k/ylvaos/basis_set_n_funcs/functionals/lda_x/PO2/inp/PO2_lda_x_ccpvqz.en.tmp) ****

----------------
TOTAL SCF ENERGY
----------------

Total Energy       :       -487.30881221854253 Eh          -13260.34692 eV

Components:
Nuclear Repulsion  :         99.08629604629714 Eh            2696.27519 eV
Electronic Energy  :       -586.39510826483968 Eh          -15956.62211 eV
One Electron Energy:       -874.38256786877946 Eh          -23793.15929 eV
Two Electron Energy:        287.98745960393978 Eh            7836.53718 eV

Virial components:
Potential Energy   :       -975.27036304168951 Eh          -26538.45577 eV
Kinetic Energy     :        487.96155082314698 Eh           13278.10884 eV
Virial Ratio       :          1.99866231549698

DFT components:
N(Alpha)           :       16.000019772050 electrons
N(Beta)            :       15.000008464290 electrons
N(Total)           :       31.000028236340 electrons
E(X)               :      -35.686386803558 Eh       
E(C)               :        0.000000000000 Eh       
E(XC)              :      -35.686386803558 Eh       

---------------
SCF CONVERGENCE
---------------

  Last Energy change         ...    3.4048e-09  Tolerance :   1.0000e-08
  Last MAX-Density change    ...    6.7516e-06  Tolerance :   1.0000e-07
  Last RMS-Density change    ...    5.3205e-07  Tolerance :   5.0000e-09
  Last DIIS Error            ...    2.1318e-03  Tolerance :   5.0000e-07
  Last Orbital Gradient      ...    7.1761e-06  Tolerance :   1.0000e-05
  Last Orbital Rotation      ...    1.8530e-05  Tolerance :   1.0000e-05


----------------------
UHF SPIN CONTAMINATION
----------------------

Warning: in a DFT calculation there is little theoretical justification to 
         calculate <S**2> as in Hartree-Fock theory. We will do it anyways
         but you should keep in mind that the values have only limited relevance

Expectation value of <S**2>     :     0.752774
Ideal value S*(S+1) for S=0.5   :     0.750000
Deviation                       :     0.002774

----------------
ORBITAL ENERGIES
----------------
                 SPIN UP ORBITALS
  NO   OCC          E(Eh)            E(eV) 
   0   1.0000     -76.051929     -2069.4782 
   1   1.0000     -18.596388      -506.0334 
   2   1.0000     -18.596379      -506.0332 
   3   1.0000      -6.321938      -172.0287 
   4   1.0000      -4.574588      -124.4809 
   5   1.0000      -4.571811      -124.4053 
   6   1.0000      -4.568871      -124.3253 
   7   1.0000      -0.940008       -25.5789 
   8   1.0000      -0.893020       -24.3003 
   9   1.0000      -0.469040       -12.7632 
  10   1.0000      -0.374963       -10.2033 
  11   1.0000      -0.365696        -9.9511 
  12   1.0000      -0.364318        -9.9136 
  13   1.0000      -0.296768        -8.0755 
  14   1.0000      -0.287313        -7.8182 
  15   1.0000      -0.230625        -6.2756 
  16   0.0000      -0.086811        -2.3622 
  17   0.0000       0.008783         0.2390 
  18   0.0000       0.081606         2.2206 
  19   0.0000       0.120241         3.2719 
  20   0.0000       0.147668         4.0182 
  21   0.0000       0.172422         4.6918 
  22   0.0000       0.196504         5.3471 
  23   0.0000       0.220447         5.9987 
  24   0.0000       0.231341         6.2951 
  25   0.0000       0.320688         8.7264 
  26   0.0000       0.327024         8.8988 

                 SPIN DOWN ORBITALS
  NO   OCC          E(Eh)            E(eV) 
   0   1.0000     -76.049937     -2069.4240 
   1   1.0000     -18.588615      -505.8219 
   2   1.0000     -18.588607      -505.8217 
   3   1.0000      -6.318643      -171.9390 
   4   1.0000      -4.571423      -124.3948 
   5   1.0000      -4.566531      -124.2616 
   6   1.0000      -4.566435      -124.2590 
   7   1.0000      -0.923991       -25.1431 
   8   1.0000      -0.876464       -23.8498 
   9   1.0000      -0.444136       -12.0855 
  10   1.0000      -0.354391        -9.6435 
  11   1.0000      -0.354269        -9.6401 
  12   1.0000      -0.345917        -9.4129 
  13   1.0000      -0.288762        -7.8576 
  14   1.0000      -0.274948        -7.4817 
  15   0.0000      -0.181477        -4.9382 
  16   0.0000      -0.059674        -1.6238 
  17   0.0000       0.027650         0.7524 
  18   0.0000       0.097582         2.6553 
  19   0.0000       0.144700         3.9375 
  20   0.0000       0.159894         4.3509 
  21   0.0000       0.186833         5.0840 
  22   0.0000       0.219729         5.9791 
  23   0.0000       0.236531         6.4363 
  24   0.0000       0.252590         6.8733 
  25   0.0000       0.329865         8.9761 
*Only the first 10 virtual orbitals were printed.

                    ********************************
                    * MULLIKEN POPULATION ANALYSIS *
                    ********************************

--------------------------------------------
MULLIKEN ATOMIC CHARGES AND SPIN POPULATIONS
--------------------------------------------
   0 P :    0.645831    0.634886
   1 O :   -0.322915    0.182557
   2 O :   -0.322915    0.182557
Sum of atomic charges         :   -0.0000000
Sum of atomic spin populations:    1.0000000

-----------------------------------------------------
MULLIKEN REDUCED ORBITAL CHARGES AND SPIN POPULATIONS
-----------------------------------------------------
CHARGE
  0 P s       :     5.481242  s :     5.481242
      pz      :     2.831146  p :     8.211478
      px      :     2.744001
      py      :     2.636330
      dz2     :     0.079540  d :     0.583439
      dxz     :     0.014900
      dyz     :     0.181202
      dx2y2   :     0.128869
      dxy     :     0.178929
      f0      :     0.006438  f :     0.068219
      f+1     :     0.000162
      f-1     :     0.013958
      f+2     :     0.016310
      f-2     :     0.006175
      f+3     :     0.010793
      f-3     :     0.014383
      g0      :     0.001162  g :     0.009792
      g+1     :     0.000140
      g-1     :     0.001710
      g+2     :     0.001726
      g-2     :    -0.000001
      g+3     :     0.001543
      g-3     :     0.001777
      g+4     :     0.000424
      g-4     :     0.001312

  1 O s       :     3.752699  s :     3.752699
      pz      :     1.539039  p :     4.533257
      px      :     1.507981
      py      :     1.486236
      dz2     :     0.005176  d :     0.033987
      dxz     :     0.001732
      dyz     :     0.008962
      dx2y2   :     0.007875
      dxy     :     0.010243
      f0      :     0.000224  f :     0.002856
      f+1     :     0.000006
      f-1     :     0.000664
      f+2     :     0.000501
      f-2     :     0.000368
      f+3     :     0.000656
      f-3     :     0.000438
      g0      :     0.000010  g :     0.000116
      g+1     :     0.000001
      g-1     :     0.000014
      g+2     :     0.000018
      g-2     :     0.000000
      g+3     :     0.000016
      g-3     :     0.000020
      g+4     :     0.000016
      g-4     :     0.000019

  2 O s       :     3.752699  s :     3.752699
      pz      :     1.539039  p :     4.533257
      px      :     1.507981
      py      :     1.486236
      dz2     :     0.005176  d :     0.033987
      dxz     :     0.001732
      dyz     :     0.008962
      dx2y2   :     0.007875
      dxy     :     0.010243
      f0      :     0.000224  f :     0.002856
      f+1     :     0.000006
      f-1     :     0.000664
      f+2     :     0.000501
      f-2     :     0.000368
      f+3     :     0.000656
      f-3     :     0.000438
      g0      :     0.000010  g :     0.000116
      g+1     :     0.000001
      g-1     :     0.000014
      g+2     :     0.000018
      g-2     :     0.000000
      g+3     :     0.000016
      g-3     :     0.000020
      g+4     :     0.000016
      g-4     :     0.000019


SPIN
  0 P s       :     0.412943  s :     0.412943
      pz      :     0.159131  p :     0.173995
      px      :     0.027437
      py      :    -0.012572
      dz2     :     0.021098  d :     0.052674
      dxz     :    -0.004471
      dyz     :    -0.000412
      dx2y2   :     0.035623
      dxy     :     0.000836
      f0      :     0.000124  f :    -0.004266
      f+1     :    -0.000098
      f-1     :    -0.002435
      f+2     :     0.001605
      f-2     :    -0.000767
      f+3     :    -0.002071
      f-3     :    -0.000625
      g0      :    -0.000042  g :    -0.000460
      g+1     :     0.000002
      g-1     :     0.000097
      g+2     :    -0.000151
      g-2     :     0.000000
      g+3     :     0.000072
      g-3     :     0.000031
      g+4     :    -0.000271
      g-4     :    -0.000198

  1 O s       :    -0.018216  s :    -0.018216
      pz      :     0.169792  p :     0.201997
      px      :    -0.010554
      py      :     0.042760
      dz2     :    -0.000018  d :    -0.001322
      dxz     :     0.000010
      dyz     :    -0.001357
      dx2y2   :    -0.000050
      dxy     :     0.000093
      f0      :     0.000002  f :     0.000092
      f+1     :    -0.000006
      f-1     :    -0.000038
      f+2     :     0.000040
      f-2     :     0.000053
      f+3     :     0.000030
      f-3     :     0.000011
      g0      :     0.000000  g :     0.000006
      g+1     :     0.000000
      g-1     :     0.000001
      g+2     :     0.000000
      g-2     :     0.000000
      g+3     :     0.000001
      g-3     :     0.000003
      g+4     :     0.000000
      g-4     :     0.000001

  2 O s       :    -0.018216  s :    -0.018216
      pz      :     0.169792  p :     0.201997
      px      :    -0.010554
      py      :     0.042760
      dz2     :    -0.000018  d :    -0.001322
      dxz     :     0.000010
      dyz     :    -0.001357
      dx2y2   :    -0.000050
      dxy     :     0.000093
      f0      :     0.000002  f :     0.000092
      f+1     :    -0.000006
      f-1     :    -0.000038
      f+2     :     0.000040
      f-2     :     0.000053
      f+3     :     0.000030
      f-3     :     0.000011
      g0      :     0.000000  g :     0.000006
      g+1     :     0.000000
      g-1     :     0.000001
      g+2     :     0.000000
      g-2     :     0.000000
      g+3     :     0.000001
      g-3     :     0.000003
      g+4     :     0.000000
      g-4     :     0.000001



                     *******************************
                     * LOEWDIN POPULATION ANALYSIS *
                     *******************************

-------------------------------------------
LOEWDIN ATOMIC CHARGES AND SPIN POPULATIONS
-------------------------------------------
   0 P :   -0.331785    0.603642
   1 O :    0.165893    0.198179
   2 O :    0.165893    0.198179

----------------------------------------------------
LOEWDIN REDUCED ORBITAL CHARGES AND SPIN POPULATIONS
----------------------------------------------------
CHARGE
  0 P s       :     5.086778  s :     5.086778
      pz      :     2.884249  p :     8.425464
      px      :     2.722619
      py      :     2.818595
      dz2     :     0.168534  d :     1.306605
      dxz     :     0.020574
      dyz     :     0.412302
      dx2y2   :     0.362555
      dxy     :     0.342640
      f0      :     0.033350  f :     0.406738
      f+1     :     0.000431
      f-1     :     0.120582
      f+2     :     0.076802
      f-2     :     0.051433
      f+3     :     0.046860
      f-3     :     0.077280
      g0      :     0.009652  g :     0.106200
      g+1     :     0.000852
      g-1     :     0.010343
      g+2     :     0.017581
      g-2     :     0.000003
      g+3     :     0.009736
      g-3     :     0.017266
      g+4     :     0.014074
      g-4     :     0.026693

  1 O s       :     3.412456  s :     3.412456
      pz      :     1.425640  p :     4.334444
      px      :     1.371499
      py      :     1.537306
      dz2     :     0.008272  d :     0.074468
      dxz     :     0.001783
      dyz     :     0.027990
      dx2y2   :     0.022888
      dxy     :     0.013535
      f0      :     0.001563  f :     0.012324
      f+1     :     0.000017
      f-1     :     0.001833
      f+2     :     0.003553
      f-2     :     0.000630
      f+3     :     0.001551
      f-3     :     0.003178
      g0      :     0.000020  g :     0.000415
      g+1     :     0.000002
      g-1     :     0.000093
      g+2     :     0.000037
      g-2     :     0.000001
      g+3     :     0.000026
      g-3     :     0.000113
      g+4     :     0.000088
      g-4     :     0.000035

  2 O s       :     3.412456  s :     3.412456
      pz      :     1.425640  p :     4.334444
      px      :     1.371499
      py      :     1.537306
      dz2     :     0.008272  d :     0.074468
      dxz     :     0.001783
      dyz     :     0.027990
      dx2y2   :     0.022888
      dxy     :     0.013535
      f0      :     0.001563  f :     0.012324
      f+1     :     0.000017
      f-1     :     0.001833
      f+2     :     0.003553
      f-2     :     0.000630
      f+3     :     0.001551
      f-3     :     0.003178
      g0      :     0.000020  g :     0.000415
      g+1     :     0.000002
      g-1     :     0.000093
      g+2     :     0.000037
      g-2     :     0.000001
      g+3     :     0.000026
      g-3     :     0.000113
      g+4     :     0.000088
      g-4     :     0.000035


SPIN
  0 P s       :     0.225279  s :     0.225279
      pz      :     0.177034  p :     0.192490
      px      :     0.022850
      py      :    -0.007394
      dz2     :     0.070096  d :     0.178451
      dxz     :    -0.004360
      dyz     :    -0.001174
      dx2y2   :     0.114253
      dxy     :    -0.000363
      f0      :     0.000346  f :    -0.002989
      f+1     :    -0.000098
      f-1     :    -0.001827
      f+2     :     0.001782
      f-2     :    -0.000797
      f+3     :    -0.002872
      f-3     :     0.000479
      g0      :     0.002009  g :     0.010411
      g+1     :    -0.000014
      g-1     :     0.000275
      g+2     :     0.004394
      g-2     :     0.000001
      g+3     :    -0.000115
      g-3     :     0.000170
      g+4     :     0.003727
      g-4     :    -0.000035

  1 O s       :     0.017251  s :     0.017251
      pz      :     0.139985  p :     0.175416
      px      :    -0.007747
      py      :     0.043178
      dz2     :     0.000996  d :     0.004807
      dxz     :     0.000125
      dyz     :     0.003397
      dx2y2   :    -0.000123
      dxy     :     0.000411
      f0      :    -0.000008  f :     0.000684
      f+1     :    -0.000005
      f-1     :     0.000437
      f+2     :     0.000090
      f-2     :     0.000064
      f+3     :     0.000051
      f-3     :     0.000055
      g0      :     0.000004  g :     0.000022
      g+1     :     0.000000
      g-1     :     0.000004
      g+2     :     0.000009
      g-2     :     0.000000
      g+3     :     0.000002
      g-3     :     0.000000
      g+4     :     0.000002
      g-4     :     0.000001

  2 O s       :     0.017251  s :     0.017251
      pz      :     0.139985  p :     0.175416
      px      :    -0.007747
      py      :     0.043178
      dz2     :     0.000996  d :     0.004807
      dxz     :     0.000125
      dyz     :     0.003397
      dx2y2   :    -0.000123
      dxy     :     0.000411
      f0      :    -0.000008  f :     0.000684
      f+1     :    -0.000005
      f-1     :     0.000437
      f+2     :     0.000090
      f-2     :     0.000064
      f+3     :     0.000051
      f-3     :     0.000055
      g0      :     0.000004  g :     0.000022
      g+1     :     0.000000
      g-1     :     0.000004
      g+2     :     0.000009
      g-2     :     0.000000
      g+3     :     0.000002
      g-3     :     0.000000
      g+4     :     0.000002
      g-4     :     0.000001



                      *****************************
                      * MAYER POPULATION ANALYSIS *
                      *****************************

  NA   - Mulliken gross atomic population
  ZA   - Total nuclear charge
  QA   - Mulliken gross atomic charge
  VA   - Mayer's total valence
  BVA  - Mayer's bonded valence
  FA   - Mayer's free valence

  ATOM       NA         ZA         QA         VA         BVA        FA
  0 P     14.3542    15.0000     0.6458     4.7568     4.3293     0.4275
  1 O      8.3229     8.0000    -0.3229     2.3570     2.3197     0.0374
  2 O      8.3229     8.0000    -0.3229     2.3570     2.3197     0.0374

  Mayer bond orders larger than 0.100000
B(  0-P ,  1-O ) :   2.1646 B(  0-P ,  2-O ) :   2.1646 B(  1-O ,  2-O ) :   0.1550 


-------
TIMINGS
-------

Total SCF time: 0 days 0 hours 0 min 5 sec 

Total time                  ....       5.145 sec
Sum of individual times     ....       4.881 sec  ( 94.9%)

SCF preparation             ....       0.088 sec  (  1.7%)
Fock matrix formation       ....       3.989 sec  ( 77.5%)
  Startup                   ....       0.021 sec  (  0.5% of F)
  Coulomb formation         ....       3.271 sec  ( 82.0% of F)
  XC integration            ....       0.490 sec  ( 12.3% of F)
    XC Preparation          ....       0.000 sec  (  0.0% of XC)
    Basis function eval.    ....       0.027 sec  (  5.4% of XC)
    Density eval.           ....       0.050 sec  ( 10.1% of XC)
    XC-Functional eval.     ....       0.006 sec  (  1.2% of XC)
    XC-Potential eval.      ....       0.084 sec  ( 17.2% of XC)
Diagonalization             ....       0.000 sec  (  0.0%)
Density matrix formation    ....       0.167 sec  (  3.3%)
Total Energy calculation    ....       0.034 sec  (  0.7%)
Population analysis         ....       0.022 sec  (  0.4%)
Orbital Transformation      ....       0.060 sec  (  1.2%)
Orbital Orthonormalization  ....       0.000 sec  (  0.0%)
DIIS solution               ....       0.402 sec  (  7.8%)
SOSCF solution              ....       0.120 sec  (  2.3%)
Finished LeanSCF after   5.5 sec

Maximum memory used throughout the entire LEANSCF-calculation: 22.9 MB


           ************************************************************
           *        Program running with 8 parallel MPI-processes     *
           *              working on a common directory               *
           ************************************************************

------------------------------------------------------------------------------
                         ORCA PROPERTY INTEGRAL CALCULATIONS
------------------------------------------------------------------------------

GBWName                                   ... /cluster/projects/nn14654k/ylvaos/basis_set_n_funcs/functionals/lda_x/PO2/inp/PO2_lda_x_ccpvqz.gbw
Number of atoms                           ...      3
Number of basis functions                 ...    211
Max core memory                           ...   4096 MB

Dipole integrals                          ... YES
Quadrupole integrals                      ... YES
Linear momentum integrals                 ...  NO
Angular momentum integrals                ...  NO
Higher moments length integrals           ...  NO
Higher moments velocity integrals         ...  NO
Kinetic energy integrals                  ...  NO
GIAO right hand sides                     ...  NO
GIAO dipole derivative integrals          ...  NO
SOC integrals                             ...  NO
EPR diamagnetic integrals (GIAO)          ...  NO
EPR gauge integrals                       ...  NO
Field gradient integrals                  ...  NO (   0 nuclei)
Spin-dipole/Fermi contact integrals       ...  NO (   0 nuclei)
Contact density integrals                 ...  NO (   0 nuclei)
Nucleus-orbit integrals                   ...  NO (   0 nuclei)
Geometric perturbations                   ...  NO (   3 nuclei)

Choice of electric origin   ... Center of mass
Position of electric origin ... (  0.0000,  0.0000,  0.0084) 
Choice of magnetic origin   ... GIAO
Position of magnetic origin ... (  0.0000,  0.0000,  0.0000) 

Calculating integrals                     ... Electric Dipole (Length)     done (  0.0 sec)
Calculating integrals                     ... Electric Quadrupole (Length) done (  0.0 sec)

Property integrals calculated in   0.0 sec

Maximum memory used throughout the entire PROPINT-calculation: 13.5 MB
------------------------------------------------------------------------------
                           ORCA ORBITAL LOCALIZATION
------------------------------------------------------------------------------

Input orbitals are from                  ... /cluster/projects/nn14654k/ylvaos/basis_set_n_funcs/functionals/lda_x/PO2/inp/PO2_lda_x_ccpvqz.gbw
Output orbitals are to                   ... /cluster/projects/nn14654k/ylvaos/basis_set_n_funcs/functionals/lda_x/PO2/inp/PO2_lda_x_ccpvqz.loc
Max. number of iterations                ... 128
Localizations seeded randomly            ... on
Convergence tolerance                    ... 1.000e-06
Threshold for strong local MOs           ... 9.500e-01
Threshold for bond MOs                   ... 8.500e-01
Operator                                 ... 0
Orbital range for localization           ... 4 to 15
Localization criterion                   ... NEW-BOYS
Doing the dipole integrals               ... o.k.
Initial value of the localization sum :    32.930141
ITERATION   0 : L=   47.4774265801 DL=  1.45e+01 (AVERGE_DL)=    0.4694820756 
ITERATION   1 : L=   49.9568466028 DL=  2.48e+00 (AVERGE_DL)=    0.1938220061 
ITERATION   2 : L=   50.1229908470 DL=  1.66e-01 (AVERGE_DL)=    0.0501730708 
ITERATION   3 : L=   50.1287442539 DL=  5.75e-03 (AVERGE_DL)=    0.0093366392 
ITERATION   4 : L=   50.1299875665 DL=  1.24e-03 (AVERGE_DL)=    0.0043402846 
ITERATION   5 : L=   50.1303433317 DL=  3.56e-04 (AVERGE_DL)=    0.0023217194 
ITERATION   6 : L=   50.1304514759 DL=  1.08e-04 (AVERGE_DL)=    0.0012800579 
ITERATION   7 : L=   50.1304845625 DL=  3.31e-05 (AVERGE_DL)=    0.0007080347 
ITERATION   8 : L=   50.1304947807 DL=  1.02e-05 (AVERGE_DL)=    0.0003934728 
ITERATION   9 : L=   50.1304979462 DL=  3.17e-06 (AVERGE_DL)=    0.0002190008 
ITERATION  10 : L=   50.1304989226 DL=  9.76e-07 (AVERGE_DL)=    0.0001216330 
LOCALIZATION SUM CONVERGED


--------------------------------------------------------------------------------
                    LOCALIZED MOLECULAR ORBITAL COMPOSITIONS
--------------------------------------------------------------------------------

The Mulliken populations for each LMO on each atom are computed
The LMO`s will be ordered according to atom index and type
  (A) Strongly localized MO`s have populations of >=0.950 on one atom
  (B) Two center bond orbitals have populations of >=0.850 on two atoms
  (C) Other MO`s are considered to be `delocalized`

FOUND  -   4 strongly local MO`s
       -   8 two center bond MO`s
       -   0 significantly delocalized MO`s

Rather strongly localized orbitals:
MO   7:   0P  -   1.081258
MO   6:   0P  -   0.999837
MO   5:   0P  -   0.995272
MO   4:   0P  -   0.999837
Bond-like localized orbitals:
MO  15:   2O  -   0.881658  and   0P  -   0.120437
MO  14:   2O  -   0.742069  and   0P  -   0.256418
MO  13:   2O  -   0.742063  and   0P  -   0.256430
MO  12:   2O  -   0.926575  and   0P  -   0.073073
MO  11:   1O  -   0.742068  and   0P  -   0.256426
MO  10:   1O  -   0.881652  and   0P  -   0.120444
MO   9:   1O  -   0.926580  and   0P  -   0.073068
MO   8:   1O  -   0.742064  and   0P  -   0.256421
Localized MO's were stored in: /cluster/projects/nn14654k/ylvaos/basis_set_n_funcs/functionals/lda_x/PO2/inp/PO2_lda_x_ccpvqz.loc
------------------------------------------------------------------------------
                           ORCA ORBITAL LOCALIZATION
------------------------------------------------------------------------------

Input orbitals are from                  ... /cluster/projects/nn14654k/ylvaos/basis_set_n_funcs/functionals/lda_x/PO2/inp/PO2_lda_x_ccpvqz.loc
Output orbitals are to                   ... /cluster/projects/nn14654k/ylvaos/basis_set_n_funcs/functionals/lda_x/PO2/inp/PO2_lda_x_ccpvqz.loc
Max. number of iterations                ... 128
Localizations seeded randomly            ... on
Convergence tolerance                    ... 1.000e-06
Threshold for strong local MOs           ... 9.500e-01
Threshold for bond MOs                   ... 8.500e-01
Operator                                 ... 1
Orbital range for localization           ... 4 to 14
Localization criterion                   ... NEW-BOYS
Doing the dipole integrals               ... o.k.
Initial value of the localization sum :    29.303621
ITERATION   0 : L=   39.1502520574 DL=  9.85e+00 (AVERGE_DL)=    0.4231189545 
ITERATION   1 : L=   42.4478178326 DL=  3.30e+00 (AVERGE_DL)=    0.2448586151 
ITERATION   2 : L=   43.0025955089 DL=  5.55e-01 (AVERGE_DL)=    0.1004333951 
ITERATION   3 : L=   43.0444626879 DL=  4.19e-02 (AVERGE_DL)=    0.0275902417 
ITERATION   4 : L=   43.0496012701 DL=  5.14e-03 (AVERGE_DL)=    0.0096658558 
ITERATION   5 : L=   43.0499170528 DL=  3.16e-04 (AVERGE_DL)=    0.0023961434 
ITERATION   6 : L=   43.0499391728 DL=  2.21e-05 (AVERGE_DL)=    0.0006341786 
ITERATION   7 : L=   43.0499421413 DL=  2.97e-06 (AVERGE_DL)=    0.0002323189 
ITERATION   8 : L=   43.0499438160 DL=  1.67e-06 (AVERGE_DL)=    0.0001744956 
ITERATION   9 : L=   43.0499450951 DL=  1.28e-06 (AVERGE_DL)=    0.0001524992 
ITERATION  10 : L=   43.0499460965 DL=  1.00e-06 (AVERGE_DL)=    0.0001349394 
ITERATION  11 : L=   43.0499468825 DL=  7.86e-07 (AVERGE_DL)=    0.0001195415 
LOCALIZATION SUM CONVERGED


--------------------------------------------------------------------------------
                    LOCALIZED MOLECULAR ORBITAL COMPOSITIONS
--------------------------------------------------------------------------------

The Mulliken populations for each LMO on each atom are computed
The LMO`s will be ordered according to atom index and type
  (A) Strongly localized MO`s have populations of >=0.950 on one atom
  (B) Two center bond orbitals have populations of >=0.850 on two atoms
  (C) Other MO`s are considered to be `delocalized`

FOUND  -   3 strongly local MO`s
       -   8 two center bond MO`s
       -   0 significantly delocalized MO`s

Rather strongly localized orbitals:
MO   6:   0P  -   0.999984
MO   5:   0P  -   0.997434
MO   4:   0P  -   0.997434
Bond-like localized orbitals:
MO  14:   2O  -   0.594585  and   0P  -   0.398669
MO  13:   2O  -   0.771133  and   0P  -   0.228129
MO  12:   2O  -   0.770463  and   0P  -   0.228797
MO  11:   2O  -   0.922981  and   0P  -   0.074244
MO  10:   1O  -   0.594565  and   0P  -   0.398690
MO   9:   1O  -   0.770732  and   0P  -   0.228534
MO   8:   1O  -   0.770885  and   0P  -   0.228370
MO   7:   1O  -   0.922982  and   0P  -   0.074243
Localized MO's were stored in: /cluster/projects/nn14654k/ylvaos/basis_set_n_funcs/functionals/lda_x/PO2/inp/PO2_lda_x_ccpvqz.loc

-------------------------   --------------------
FINAL SINGLE POINT ENERGY      -487.308812218543
-------------------------   --------------------



           ************************************************************
           *        Program running with 8 parallel MPI-processes     *
           *              working on a common directory               *
           ************************************************************

------------------------------------------------------------------------------
                              ORCA PROPERTY CALCULATIONS
------------------------------------------------------------------------------

GBWName                                 ... /cluster/projects/nn14654k/ylvaos/basis_set_n_funcs/functionals/lda_x/PO2/inp/PO2_lda_x_ccpvqz.gbw
Number of atoms                         ...      3
Number of basis functions               ...    211
Max core memory                         ...   4096 MB

Electric properties:
Dipole moment                           ... YES
Quadrupole moment                       ... YES
Static polarizability (Dipole/Dipole)   ...  NO
Static polarizability (Dipole/Quad.)    ...  NO
Static polarizability (Quad./Quad.)     ...  NO
Static polarizability (Velocity)        ...  NO
Static hyperpolarizability              ...  NO

Atomic electric properties:
Dipole moment                           ...  NO
Quadrupole moment                       ...  NO
Static polarizability                   ...  NO

Choice of electric origin               ... Center of mass
Position of electric origin             ...     0.000000     0.000000     0.008437

General magnetic properties:
Magnetizability                         ...  NO

EPR properties:
g-Tensor (aka g-matrix)                 ...  NO
Zero-Field splitting spin-orbit         ...  NO
Zero-field splitting spin-spin          ...  NO
Hyperfine couplings                     ...  NO (   0 nuclei)
Quadrupole couplings                    ...  NO (   0 nuclei)
Contact density                         ...  NO (   0 nuclei)

NMR properties:
Chemical shifts                         ...  NO (   0 nuclei)
Spin-rotation constants                 ...  NO (   0 nuclei)
Spin-spin couplings                     ...  NO (   0 nuclei,    0 pairs)

Choice of magnetic origin               ... GIAO
Position of magnetic origin             ...     0.000000     0.000000     0.000000

Properties with geometric perturbations:
SCF Hessian                             ...  NO
IR spectrum                             ...  NO
VCD spectrum                            ...  NO
X-ray spectroscopy properties:
SCF XES/XAS/RIXS spectra                ...  NO

SCF SOC stabilization energy            ...  NO
Diagonal Born-Oppenheimer correction    ...  NO

-------------
DIPOLE MOMENT
-------------

Method             : SCF
Type of density    : Electron Density
Multiplicity       :   2
Irrep              :   0
Energy             :  -487.3088122185425277 Eh
Basis              : AO
                                X                 Y                 Z
Electronic contribution:     -0.000000001      -0.000000004       0.748193615
Nuclear contribution   :      0.000000000       0.000000000      -0.261362976
                        -----------------------------------------
Total Dipole Moment    :     -0.000000001      -0.000000004       0.486830638
                        -----------------------------------------
Magnitude (a.u.)       :      0.486830638
Magnitude (Debye)      :      1.237425142



--------------------
Rotational spectrum 
--------------------
 
Rotational constants in cm-1:             3.442444             0.286393             0.264396 
Rotational constants in MHz :        103201.869580          8585.841533          7926.407020 

Dipole components along the rotational axes: 
x,y,z [a.u.] :    -0.000000     0.486831    -0.000000 
x,y,z [Debye]:    -0.000000     1.237425    -0.000000 

 

Dipole moment calculation done in   0.0 sec 

-----------------
QUADRUPOLE MOMENT
-----------------

Method             : SCF
Type of density    : Electron Density
Multiplicity       :   2
Irrep              :   0
Energy             :  -487.3088122185425277 Eh
Basis              : AO

                XX              YY              ZZ              XY              XZ              YZ
  NUC        0.000000000   105.106420135     8.604299986     0.000000000     0.000000000     0.000000000
  EL       -15.939905450  -126.181608383   -25.215165174    -0.000000002     0.000000002     0.000000002
  TOT      -15.939905450   -21.075188248   -16.610865189    -0.000000002     0.000000002     0.000000002 (a.u.)
           -21.439717975   -28.346848965   -22.342181770    -0.000000002     0.000000002     0.000000002 (Buckingham)

diagonalized tensor:
           -21.075188248   -16.610865189   -15.939905450 (a.u.)
           -28.346848965   -22.342181770   -21.439717975 (Buckingham)
           -12.911798185     5.102203400     7.809594785 (traceless form in Buckingham)

             0.000000000    -0.000000003     1.000000000
             1.000000000     0.000000000    -0.000000000
            -0.000000000     1.000000000     0.000000003
        
Isotropic quadrupole :   -17.875319629

Quadrupole moment calculation done in   0.0 sec (  0.0 sec for integrals)

Maximum memory used throughout the entire PROP-calculation: 8.1 MB

--------------------------------
SUGGESTED CITATIONS FOR THIS RUN
--------------------------------

Below you find a list of papers that are relevant to this ORCA run
We neither can nor want to force you to cite these papers, but we appreciate if you do
You receive ORCA, which is the product of decades of hard work by many enthusiastic individuals, for free
The only thing we kindly ask in return is that you cite our papers,
We deeply appreciate it, if you show your appreciation for ORCA by not just citing the generic ORCA reference.

Please note that relegating all ORCA citations to the supporting information does *not* help us.
SI sections are not indexed - citations you put there will not count into any citation statistics
But we need these citations in order to attract the funding resources that allow us to do what we are doing

Therefore, if you are a happy ORCA user, please consider citing a few of the papers listed below in the main body of your paper

In addition to the list printed below, the program has created the file /cluster/projects/nn14654k/ylvaos/basis_set_n_funcs/functionals/lda_x/PO2/inp/PO2_lda_x_ccpvqz.bibtex that contains the list in bibtex format
You can import this file easily into all common literature databanks and citation aid programs

It goes without saying that in many instances, there are alternative algorithms to achieve similar
results as the ones you have gotten from ORCA. It is, of course, also the case that in some instances
ORCA just re-implements algorithms worked out by others. We are fully aware of that and we are also
fully appreciative of our colleagues work. Hence this citation list should not be read as indicating
that the listed papers, which are focused on our own work, are the only ones worth citing. It simply
meant to make it easier for users to cite ORCA specific papers. It is not a substitute for doing your
own literature research and citing the relevant literature in a scientifically appropriate manner.

List of essential papers. We consider these as the minimum necessary citations

  1. Neese, F.
     Software update: the ORCA program system, version 6.0
     WIRES Comput. Molec. Sci. 2025 15(1), e70019
     doi.org/10.1002/wcms.70019

List of papers to cite with high priority. The work reported in these papers was absolutely
necessary for this run to complete.
Our perspective: the developers of density functionals and basis sets usually get cited in chemistry papers
Good! But without the algorithms to do something with them, the functionals or basis sets would not do anything.
Hence, in our opinion, the algorithm design and method developments papers are equally worthy of getting cited

  1. Lehtola, S.; Steigemann, C.; Oliveira, M.; Marques, M.
     Recent developments in Libxc - A comprehensive library of functionals for density functional theory
     Software X 2018 7 , 
     doi.org/10.1016/j.softx.2017.11.002
  2. Neese, F.
     The SHARK Integral Generation and Digestion System
     J. Comp. Chem. 2022 44(3), 381
     doi.org/10.1002/jcc.26942

List of suggested additional citations. These are papers that are important in the 'surrounding' of 
of this run, or papers that preceded the highly important papers. If you like your results we are grateful for a citation.

  1. Neese, F.
     The ORCA program system
     WIRES Comput. Molec. Sci. 2012 2(1), 73-78
     doi.org/10.1002/wcms.81
  2. Neese, F.
     Software update: the ORCA program system, version 4.0
     WIRES Comput. Molec. Sci. 2018 8(1), 1-6
     doi.org/10.1002/wcms.1327
  3. Neese, F.; Wennmohs, F.; Becker, U.; Riplinger, C.
     The ORCA quantum chemistry program package
     J. Chem. Phys. 2020 152(22), 224108
     doi.org/10.1063/5.0004608
  4. Neese, F.
     Software update: The ORCA program system—Version 5.0
     WIRES Comput. Molec. Sci. 2022 12(1), e1606
     doi.org/10.1002/wcms.1606

List of optional additional citations

  1. Neese, F.
     Approximate second-order SCF convergence for spin unrestricted wavefunctions
     Chem. Phys. Lett. 2000 325(1-3), 93-98
     doi.org/10.1016/s0009-2614(00)00662-x

Timings for individual modules:

Sum of individual times          ...        7.725 sec (=   0.129 min)
Startup calculation              ...        1.035 sec (=   0.017 min)  13.4 %
SCF iterations                   ...        6.164 sec (=   0.103 min)  79.8 %
Property integrals               ...        0.252 sec (=   0.004 min)   3.3 %
Property calculations            ...        0.265 sec (=   0.004 min)   3.4 %
Orbital localization             ...        0.009 sec (=   0.000 min)   0.1 %
                             ****ORCA TERMINATED NORMALLY****
TOTAL RUN TIME: 0 days 0 hours 0 minutes 8 seconds 512 msec
