
                                 *****************
                                 * O   R   C   A *
                                 *****************

                                            #,                                       
                                            ###                                      
                                            ####                                     
                                            #####                                    
                                            ######                                   
                                           ########,                                 
                                     ,,################,,,,,                         
                               ,,#################################,,                 
                          ,,##########################################,,             
                       ,#########################################, ''#####,          
                    ,#############################################,,   '####,        
                  ,##################################################,,,,####,       
                ,###########''''           ''''###############################       
              ,#####''   ,,,,##########,,,,          '''####'''          '####       
            ,##' ,,,,###########################,,,                        '##       
           ' ,,###''''                  '''############,,,                           
         ,,##''                                '''############,,,,        ,,,,,,###''
      ,#''                                            '''#######################'''  
     '                                                          ''''####''''         
             ,#######,   #######,   ,#######,      ##                                
            ,#'     '#,  ##    ##  ,#'     '#,    #''#        ,####,    ,#,          
            ##       ##  ##   ,#'  ##            #'  '#       #'       ,# #          
            ##       ##  #######   ##           ,######,      #####,      #          
            '#,     ,#'  ##    ##  '#,     ,#' ,#      #,     #,   #      #          
             '#######'   ##     ##  '#######'  #'      '#     '####' #    #          



                #########################################################
                #                        -***-                          #
                #          Department of theory and spectroscopy        #
                #                                                       #
                #                      Frank Neese                      #
                #                                                       #
                #     Directorship, Architecture, Infrastructure        #
                #                    SHARK, DRIVERS                     #
                #        Core code/Algorithms in most modules           #
                #                                                       #
                #        Max Planck Institute fuer Kohlenforschung      #
                #                Kaiser Wilhelm Platz 1                 #
                #                 D-45470 Muelheim/Ruhr                 #
                #                      Germany                          #
                #                                                       #
                #                  All rights reserved                  #
                #                        -***-                          #
                #########################################################


                         Program Version 6.1.1  -  RELEASE   -
                                (GIT: $487d211c$)
                          ($2025-11-21 10:33:24 +0100$)


 With contributions from (in alphabetic order):
[Max-Planck-Institut fuer Kohlenforschung]                               
  Daniel Aravena         : Magnetic Suceptibility                        
  Michael Atanasov       : Ab Initio Ligand Field Theory (pilot matlab implementation)
  Alexander A. Auer      : GIAO ZORA, VPT2 properties, NMR spectrum      
  Ute Becker             : All parallelization in ORCA, NUMFREQ, NUMCALC 
  Giovanni Bistoni       : ED, misc. LED, open-shell LED, HFLD           
  Dmytro Bykov           : pre 5.0 version of the SCF Hessian            
  Marcos Casanova-Páez   : Triplet and SCS-CIS(D). UHF-(DLPNO)-IP/EA/STEOM-CCSD. UHF-CVS-IP/STEOM-CCSD   
  Vijay G. Chilkuri      : MRCI spin determinant printing, contributions to CSF-ICE 
  Pauline Colinet        : FMM embedding                                 
  Dipayan Datta          : RHF DLPNO-CCSD density                        
  Achintya Kumar Dutta   : EOM-CC, STEOM-CC                              
  Nicolas Foglia         : Exact transition moments, OPA infrastructure, MCD improvements    
  Dmitry Ganyushin       : Spin-Orbit,Spin-Spin,Magnetic field MRCI      
  Miquel Garcia-Rates    : C-PCM and meta-GGA Hessian, CCSD/C-PCM, Gaussian charge scheme 
  Tiago L. C. Gouveia    : GS-ROHF, GS-ROCIS                             
  Yang Guo               : DLPNO-NEVPT2, F12-NEVPT2, CIM, IAO-localization        
  Andreas Hansen         : Spin unrestricted coupled pair/coupled cluster methods 
  Ingolf Harden          : AUTO-CI MPn and infrastructure                
  Benjamin Helmich-Paris : MC-RPA, TRAH-(SCF,CASSCF), AVAS, COSX integrals, SCF dyn. polar., MC-PDFT, srDFT 
  Lee Huntington         : MR-EOM, pCC                                   
  Robert Izsak           : Overlap fitted RIJCOSX, COSX-SCS-MP3, EOM     
  Riya Kayal             : Wick's Theorem for AUTO-CI, AUTO-CI UHF-CCSDT 
  Emily Kempfer          : AUTO-CI RHF CISDT and CCSDT, approximate NEVPT4
  Christian Kollmar      : KDIIS, OOCD, Brueckner-CCSD(T), CCSD density, CASPT2, CASPT2-K, improved NEVPT2 
  Axel Koslowski         : Symmetry handling                             
  Simone Kossmann        : meta-GGA functionals, TD-DFT gradient, OOMP2, (MP2 Hessian; deprecated post 5.0) 
  Lucas Lang             : DCDCAS, Hyperfine gauge corrections, ICE-SOC+SSC
  Marvin Lechner         : AUTO-CI (C++ implementation), FIC-MRCC        
  Spencer Leger          : CASSCF response                               
  Dagmar Lenk            : GEPOL surface, SMD, ORCA-2-JSON               
  Dimitrios Liakos       : Extrapolation schemes; Compound Job, Property file
  Dimitrios Manganas     : Further ROCIS development; embedding schemes. LFT, Crystal Embedding 
  Dimitrios Pantazis     : SARC Basis sets                               
  Anastasios Papadopoulos: AUTO-CI, single reference methods and gradients 
  Taras Petrenko         : pre 6.0 DFT Hessian and TD-DFT gradient,  ECA, NRVS 
  Petra Pikulova         : Analytic Raman intensities                    
  Peter Pinski           : DLPNO-MP2, DLPNO-MP2 Gradient                 
  Shashank Vittal Rao    : ES-AILFT, MagRelax                            
  Christoph Reimann      : Effective Core Potentials                     
  Marius Retegan         : Local ZFS, SOC                                
  Christoph Riplinger    : Optimizer, TS searches, QM/MM, DLPNO-CCSD(T), (RO)-DLPNO pert. Triples 
  Michael Roemelt        : Original ROCIS implementation, recursive CI coupling coefficients
  Masaaki Saitow         : Open-shell DLPNO-CCSD energy and density      
  Barbara Sandhoefer     : DKH picture change effects                    
  Yorick L. A. Schmerwitz: GMF and freeze-and-release deltaSCF, NEB S-IDPP initial path                    
  Kantharuban Sivalingam : CASSCF convergence/infrastructure, NEVPT2, NEVPT3, NEVPT4(SD), FIC-MRCI and CEPA variants
  Bernardo de Souza      : ESD, SOC TD-DFT                               
  Georgi L. Stoychev     : AutoAux, RI-MP2 NMR, DLPNO-MP2 response, X2C  
  Van Anh Tran           : RI-MP2 g-tensors                              
  Willem Van den Heuvel  : Paramagnetic NMR                              
  Zikuan Wang            : NOTCH, Electric field optimization            
  Frank Wennmohs         : Technical directorship and infrastructure     
  Hang Xu                : AUTO-CI-Response properties                   
                                                                         
[FACCTs GmbH]                                                            
  Markus Bursch, Nicolas Foglia, Miquel Garcia-Rates, Ingolf Harden, Hagen Neugebauer, Anastasios Papadopoulos, 
  Christoph Riplinger, Bernardo de Souza, Georgi L. Stoychev                                                    
                                                                 
  APM, various basis sets, CI-OPT, improved COSX, DLPNO-Multilevel,           
  DOCKER, DRACO, updates on ESD, Fragmentator, GOAT, IRC, LR-CPCM, L-BFGS, MBIS, meta-GGA TD-DFT gradient, ML-optimized integration grids, 
  MM, NACMEs, nearIR, NEB, NEB-TS, NL-DFT gradient (VV10), 2- and 3-layer-ONIOM, interface openCOSMO-RS, QMMM,   
  Crystal-QMMM, RESP, rigid body optimization, SF, symmetry and pop. for TD-DFT, various functionals, SOLVATOR                                   
                                                                         
[Other institutions]                                                     
  V. Asgeirsson          : NEB                                           
  Christoph Bannwarth    : sTDA-DFT, sTD-DFT, PBEh-3c, B97-3c, D3        
  Giovanni Bistoni       : ETS/NOCV, ADLD/ADEX, COVALED                  
  Martin Brehm           : Molecular dynamics                            
  Ronald Cardenas        : ETS/NOCV                                      
  Martina Colucci        : COVALED                                       
  Sebastian Ehlert       : rSCAN, r2SCAN, r2SCAN-3c, D4, dhf basis sets  
  Marvin Friede          : D4 for Fr, Ra, Ac-Lr                          
  Lars Goerigk           : TD-DFT with DH, B97 family of functionals     
  Stefan Grimme          : VdW corrections, initial TS optimization, DFT functionals, gCP, sTDA/sTD-DF 
  Waldemar Hujo          : DFT-NL                                        
  H. Jonsson             : NEB                                           
  Holger Kruse           : gCP                                           
  Marcel Mueller         : wB97X-3c, vDZP basis set                      
  Hagen Neugebauer       : wr2SCAN, Native XTB                           
  Gianluca Regni         : ADLD/ADEX                                     
  Tobias Risthaus        : pre 6.0 range-separated hybrid DFT and stability analysis
  Lukas Wittmann         : regularized MP2, r2SCAN double-hybrids, wr2SCAN        
                                                                         
We gratefully acknowledge several colleagues who have allowed us to      
interface, adapt or use parts of their codes:                            
  Ed Valeev, F. Pavosevic, A. Kumar             : LibInt (2-el integral package), F12 methods 
  Garnet Chan, S. Sharma, J. Yang, R. Olivares  : DMRG                   
  Ulf Ekstrom                                   : XCFun DFT Library      
  Mihaly Kallay                                 : mrcc  (arbitrary order and MRCC methods)
  Frank Weinhold                                : gennbo (NPA and NBO analysis)           
  Simon Mueller                                 : openCOSMO-RS                            
  Christopher J. Cramer and Donald G. Truhlar   : smd solvation model                     
  S Lehtola, MJT Oliveira, MAL Marques          : LibXC Library                           
  Liviu Ungur et al                             : ANISO software                          


 Your calculation uses the libint2 library for the computation of 2-el integrals
 For citations please refer to: http://libint.valeyev.net

 Your ORCA version has been built with support for libXC version: 7.0.0
 For citations please refer to: https://libxc.gitlab.io

 This ORCA versions uses:
   CBLAS   interface :  Fast vector & matrix operations
   LAPACKE interface :  Fast linear algebra routines
   SCALAPACK package :  Parallel linear algebra routines
   Shared memory     :  Shared parallel matrices
   BLAS/LAPACK       :  OpenBLAS 0.3.29  USE64BITINT DYNAMIC_ARCH NO_AFFINITY Cooperlake SINGLE_THREADED
        Core in use  :  Cooperlake
   Copyright (c) 2011-2014, The OpenBLAS Project


  ***********************************
  * Starting time: Wed May 20 12:39:34 2026
  * Host name:     c1-46
  * Process ID:    4000369
  * Working dir.:  /cluster/projects/nn14654k/ylvaos/basis_set_n_funcs/functionals/lda_x/PO2/out
  ***********************************

Using LibXC functional ID   1 : Slater exchange
[ 1]  P. A. M. Dirac.,  Math. Proc. Cambridge Philos. Soc. 26, 376 (1930)
[ 2]  F. Bloch.,  Z. Phys. 57, 545 (1929)
Using LibXC functional ID   1 : Slater exchange
[ 1]  P. A. M. Dirac.,  Math. Proc. Cambridge Philos. Soc. 26, 376 (1930)
[ 2]  F. Bloch.,  Z. Phys. 57, 545 (1929)
Your calculation utilizes LibXC
by S. Lehtola, C. Steigemann, M. J. T. Oliveira & M. A. L. Marques
Please cite in your paper:
Lehtola, S.; Steigemann, C.; Oliveira, M.J.T.; Marques, M. A. L. Software X, 7, (2018), 1.
   

================================================================================

----- Orbital basis set information -----
Your calculation utilizes the basis: pc-0
   H, C-F              : F. Jensen, J. Chem. Phys. 115, 9113 (2001).
                         F. Jensen, J. Chem. Phys. 116, 7372 (2002).
                         F. Jensen, J. Chem. Phys. 117, 9234 (2002).
   Si-Cl               : F. Jensen, T. Helgaker, J. Chem. Phys. 121, 3463 (2004).
   He-B, Ne-Mg, Al, Ar : F. Jensen, J. Phys. Chem. A 111, 11198 (2007).
   K, Ca, Ga-Kr        : F. Jensen, J. Chem. Phys. 136, 094110 (2012).
   Sc-Zn               : F. Jensen, J. Chem. Phys. 138, 014107 (2013).

================================================================================
                                        WARNINGS
                       Please study these warnings very carefully!
================================================================================


WARNING: your system is open-shell and RHF/RKS was chosen
  ===> : WILL SWITCH to UHF/UKS


================================================================================
                                       INPUT FILE
================================================================================
NAME = /cluster/projects/nn14654k/ylvaos/basis_set_n_funcs/functionals/lda_x/PO2/inp/PO2_lda_x_pc0.inp
|  1> ! dft pc-0 TightSCF
|  2> %pal nprocs 8 end
|  3> 
|  4> %loc
|  5>   LocMet NewBoys
|  6>   Occ true
|  7> end
|  8> 
|  9> %method
| 10>   exchange lda_x
| 11>   correlation None
| 12> end
| 13> 
| 14> %elprop
| 15>   Dipole true
| 16>   Quadrupole true
| 17> end
| 18> 
| 19> * xyz 0 2
| 20> P    0.000000000000   0.000000000000   0.287900000000
| 21> O    0.000000000000   1.356300000000  -0.269900000000
| 22> O    0.000000000000  -1.356300000000  -0.269900000000
| 23> *
| 24> 
| 25> 
| 26>                          ****END OF INPUT****
================================================================================

                       ****************************
                       * Single Point Calculation *
                       ****************************

---------------------------------
CARTESIAN COORDINATES (ANGSTROEM)
---------------------------------
  P      0.000000    0.000000    0.287900
  O      0.000000    1.356300   -0.269900
  O      0.000000   -1.356300   -0.269900

----------------------------
CARTESIAN COORDINATES (A.U.)
----------------------------
  NO LB      ZA    FRAG     MASS         X           Y           Z
   0 P    15.0000    0    30.974    0.000000    0.000000    0.544052
   1 O     8.0000    0    15.999    0.000000    2.563036   -0.510037
   2 O     8.0000    0    15.999    0.000000   -2.563036   -0.510037

--------------------------------
INTERNAL COORDINATES (ANGSTROEM)
--------------------------------
 P      0   0   0     0.000000000000     0.00000000     0.00000000
 O      1   0   0     1.466523279733     0.00000000     0.00000000
 O      1   2   0     1.466523279733   135.28860674     0.00000000

---------------------------
INTERNAL COORDINATES (A.U.)
---------------------------
 P      0   0   0     0.000000000000     0.00000000     0.00000000
 O      1   0   0     2.771327367716     0.00000000     0.00000000
 O      1   2   0     2.771327367716   135.28860674     0.00000000

---------------------
BASIS SET INFORMATION
---------------------
There are 2 groups of distinct atoms

 Group   1 Type P   : 16s9p contracted to 4s3p pattern {5551/441}
 Group   2 Type O   : 7s3p contracted to 3s2p pattern {331/21}

Atom   0P    basis set group =>   1
Atom   1O    basis set group =>   2
Atom   2O    basis set group =>   2


           ************************************************************
           *        Program running with 8 parallel MPI-processes     *
           *              working on a common directory               *
           ************************************************************
------------------------------------------------------------------------------
                             ORCA STARTUP CALCULATIONS
------------------------------------------------------------------------------
------------------------------------------------------------------------------
                   ___                                                        
                  /   \      - P O W E R E D   B Y -                         
                 /     \                                                     
                 |  |  |   _    _      __       _____    __    __             
                 |  |  |  | |  | |    /  \     |  _  \  |  |  /  |          
                  \  \/   | |  | |   /    \    | | | |  |  | /  /          
                 / \  \   | |__| |  /  /\  \   | |_| |  |  |/  /          
                |  |  |   |  __  | /  /__\  \  |    /   |      \           
                |  |  |   | |  | | |   __   |  |    \   |  |\   \          
                \     /   | |  | | |  |  |  |  | |\  \  |  | \   \       
                 \___/    |_|  |_| |__|  |__|  |_| \__\ |__|  \__/        
                                                                              
                      - O R C A' S   B I G   F R I E N D -                    
                                      &                                       
                       - I N T E G R A L  F E E D E R -                       
                                                                              
 v1 FN, 2020, v2 2021, v3 2022-2024                                           
------------------------------------------------------------------------------


----------------------
SHARK INTEGRAL PACKAGE
----------------------

Number of atoms                             ...      3
Number of basis functions                   ...     31
Number of shells                            ...     17
Maximum angular momentum                    ...      1
Integral batch strategy                     ... SHARK/LIBINT Hybrid
RI-J (if used) integral strategy            ... SPLIT-RIJ (Revised 2003 algorithm where possible)
Printlevel                                  ...      1
Contraction scheme used                     ... SEGMENTED contraction
Prescreening option                         ... SCHWARTZ
   Thresh                                   ... 2.500e-11
   Tcut                                     ... 2.500e-12
   Tpresel                                  ... 2.500e-12 
Coulomb Range Separation                    ... NOT USED
Exchange Range Separation                   ... NOT USED
Multipole approximations                    ... NOT USED
Finite Nucleus Model                        ... NOT USED
CABS basis                                  ... NOT available
Auxiliary Coulomb fitting basis             ... NOT available
Auxiliary J/K fitting basis                 ... NOT available
Auxiliary Correlation fitting basis         ... NOT available
Auxiliary 'external' fitting basis          ... NOT available

Checking pre-screening integrals            ... done (  0.0 sec) Dimension = 17
   => SHARK Basis and OBASIS are compatible. Storing Pre-screening
Shell pair information
Shell pair cut-off parameter TPreSel        ...   2.5e-12
Total number of shell pairs                 ...       153
Shell pairs after pre-screening             ...       139
Total number of primitive shell pairs       ...      1091
Primitive shell pairs kept                  ...       776
          la=0 lb=0:     45 shell pairs
          la=1 lb=0:     66 shell pairs
          la=1 lb=1:     28 shell pairs

Checking whether 4 symmetric matrices of dimension 31 fit in memory
:Max Core in MB      =   4096.00
 MB in use           =      0.98
 MB left             =   4095.02
 MB needed           =      0.02
 Data fit in memory  = YES
Calculating Nuclear repulsion               ... done (  0.0 sec) ENN=     99.086296046297 Eh

Diagonalization of the overlap matrix:
Smallest eigenvalue                        ... 3.433e-02
Time for diagonalization                   ...    0.000 sec
Threshold for overlap eigenvalues          ... 1.000e-07
Number of eigenvalues below threshold      ... 0
Time for construction of square roots      ...    0.005 sec
Total time needed                          ...    0.007 sec

-------------------
DFT GRID GENERATION
-------------------

General Integration Accuracy     IntAcc      ... 4.388
Radial Grid Type                 RadialGrid  ... OptM3 with GC (2021)
Angular Grid (max. ang.)         AngularGrid ... 4 (Lebedev-302)
Angular grid pruning method      GridPruning ... 4 (adaptive)
Weight generation scheme         WeightScheme... mBecke (2022)
Basis function cutoff            BFCut       ... 1.0000e-11
Integration weight cutoff        WCut        ... 1.0000e-14
Partially contracted basis set               ... off
Rotationally invariant grid construction     ... off
Angular grids for H and He will be reduced by one unit

Total number of grid points                  ...    19622
Total number of batches                      ...      309
Average number of points per batch           ...       63
Average number of grid points per atom       ...     6541
Grids setup in   0.1 sec
Initializing property integral containers    ... done (  0.0 sec)

SHARK setup successfully completed in   0.1 seconds

Maximum memory used throughout the entire STARTUP-calculation: 5.5 MB


           ************************************************************
           *        Program running with 8 parallel MPI-processes     *
           *              working on a common directory               *
           ************************************************************
-------------------------------------------------------------------------------
                                 ORCA GUESS
                   Start orbitals & Density for SCF / CASSCF
-------------------------------------------------------------------------------

------------
SCF SETTINGS
------------
Hamiltonian:
 Density Functional     Method          .... DFT(GTOs)
  Functional kind                       .... Exchange
  Functional name                       .... Slater exchange
  Functional family                     .... LDA
  Functional refs                              
    [ 0] P. A. M. Dirac.,  Math. Proc. Cambridge Philos. Soc. 26, 376 (1930), doi: 10.1017/S0305004100016108
    [ 1] F. Bloch.,  Z. Phys. 57, 545 (1929), doi: 10.1007/BF01340281
  Functional external parameters        .... 0
 Correlation Functional Correlation     .... No Correlation
 Gradients option       PostSCFGGA      .... off


General Settings:
 Integral files         IntName         .... /cluster/projects/nn14654k/ylvaos/basis_set_n_funcs/functionals/lda_x/PO2/inp/PO2_lda_x_pc0
 Hartree-Fock type      HFTyp           .... UHF
 Total Charge           Charge          ....    0
 Multiplicity           Mult            ....    2
 Number of Electrons    NEL             ....   31
 Basis Dimension        Dim             ....   31
 Nuclear Repulsion      ENuc            ....     99.0862960463 Eh

Convergence Acceleration:
 AO-DIIS                CNVDIIS         .... on
   Start iteration      DIISMaxIt       ....    12
   Startup error        DIISStart       ....  0.200000
   # of expansion vecs  DIISMaxEq       ....     5
   Bias factor          DIISBfac        ....   1.050
   Max. coefficient     DIISMaxC        ....  10.000
 MO-DIIS                CNVKDIIS        .... off
 Trust-Rad. Augm. Hess. CNVTRAH         .... auto
   Auto Start mean grad. ratio tolernc. ....  1.125000
   Auto Start start iteration           ....    50
   Auto Start num. interpolation iter.  ....    10
   Max. Number of Micro iterations      ....    24
   Max. Number of Macro iterations      .... Maxiter - #DIIS iter
   Number of Davidson start vectors     ....     2
   Converg. threshold    (grad. norm)   ....   1.000e-05
   Grad. Scal. Fac. for Micro threshold ....   0.100
   Minimum threshold for Micro iter.    ....   1.000e-02
   NR start threshold (gradient norm)   ....   1.000e-04
   Initial trust radius                 ....   0.400
   Minimum AH scaling param. (alpha)    ....   1.000
   Maximum AH scaling param. (alpha)    .... 1000.000
   Quad. conv. algorithm                .... NR
   White noise on init. David. guess    .... on
   Maximum white noise                  ....   0.010
   Pseudo random numbers                .... off
   Inactive MOs                         .... canonical
   Orbital update algorithm             .... Taylor
   Preconditioner                       .... Diag
   Full preconditioner red. dimension   ....   250
 SOSCF                 CNVSOSCF           .... on
   Start iteration     SOSCFMaxIt         ....   150
   Startup grad/error  SOSCFStart         ....  0.003300
   Hessian update      SOSCFHessUp        .... L-BFGS
   Autom. constraints  SOSCFAutoConstrain .... off
 Level Shifting         CNVShift        .... on
   Level shift para.    LevelShift      ....    0.2500
   Turn off err/grad.   ShiftErr        ....    0.0010
 Zerner damping         CNVZerner       .... off
 Static damping         CNVDamp         .... on
   Fraction old density DampFac         ....    0.7000
   Max. Damping (<1)    DampMax         ....    0.9800
   Min. Damping (>=0)   DampMin         ....    0.0000
   Turn off err/grad.   DampErr         ....    0.1000

SCF Procedure:
 Maximum # iterations   MaxIter         ....   125
 SCF integral mode      SCFMode         .... Direct
   Integral package                     .... SHARK and LIBINT hybrid scheme
 Reset frequency        DirectResetFreq ....    20
 Integral Threshold     Thresh          ....  2.500e-11 Eh
 Primitive CutOff       TCut            ....  2.500e-12 Eh

Convergence Tolerance:
 Convergence Check Mode ConvCheckMode   .... Total+1el-Energy
 Convergence forced     ConvForced      .... 0
 Energy Change          TolE            ....  1.000e-08 Eh
 1-El. energy change                    ....  1.000e-05 Eh
 Orbital Gradient       TolG            ....  1.000e-05
 Orbital Rotation angle TolX            ....  1.000e-05
 DIIS Error             TolErr          ....  5.000e-07

------------------------------
INITIAL GUESS: MODEL POTENTIAL
------------------------------
Loading Hartree-Fock densities                     ... done
Calculating cut-offs                               ... done
Initializing the effective Hamiltonian             ... done
Setting up the integral package (SHARK)            ... done
Starting the Coulomb interaction                   ... done (   0.0 sec)
Making the grid                                    ... done (   0.0 sec)
Mapping shells                                     ... done
Starting the XC term evaluation                    ... done (   0.0 sec)
  promolecular density results
     # of electrons  =     31.000335487
     EX              =    -35.634422855
     EC              =      0.000000000
     EX+EC           =    -35.634422855
Transforming the Hamiltonian                       ... done (   0.0 sec)
Diagonalizing the Hamiltonian                      ... done (   0.0 sec)
Back transforming the eigenvectors                 ... done (   0.0 sec)
Now organizing SCF variables                       ... done
                      ------------------
                      INITIAL GUESS DONE (   0.1 sec)
                      ------------------
             **** ENERGY FILE WAS UPDATED (/cluster/projects/nn14654k/ylvaos/basis_set_n_funcs/functionals/lda_x/PO2/inp/PO2_lda_x_pc0.en.tmp) ****
Finished Guess after   0.2 sec
Maximum memory used throughout the entire GUESS-calculation: 2.5 MB


           ************************************************************
           *        Program running with 8 parallel MPI-processes     *
           *              working on a common directory               *
           ************************************************************

-------------------------------------------------------------------------------------------
                                      ORCA LEAN-SCF
                              memory conserving SCF solver
-------------------------------------------------------------------------------------------

----------------------------------------D-I-I-S--------------------------------------------
Iteration    Energy (Eh)           Delta-E    RMSDP     MaxDP     DIISErr   Damp  Time(sec)
-------------------------------------------------------------------------------------------
               ***  Starting incremental Fock matrix formation  ***
    1    -486.2591420966904820     0.00e+00  2.78e-02  1.32e-01  1.20e-01  0.700   0.2
Warning: op=0 Small HOMO/LUMO gap (   0.093) - skipping pre-diagonalization
         Will do a full diagonalization
    2    -486.3735863943010713    -1.14e-01  1.90e-02  1.00e-01  4.30e-02  0.700   0.2
                               ***Turning on AO-DIIS***
    3    -486.4002816368981144    -2.67e-02  8.16e-03  4.30e-02  1.83e-02  0.700   0.2
    4    -486.4150881477857524    -1.48e-02  1.10e-02  4.99e-02  2.28e-02  0.000   0.1
    5    -486.4581542662021434    -4.31e-02  4.98e-03  2.48e-02  2.02e-02  0.000   0.1
    6    -486.4622105333044715    -4.06e-03  2.19e-03  1.09e-02  9.17e-03  0.000   0.1
    7    -486.4629868542173767    -7.76e-04  1.01e-03  4.99e-03  4.00e-03  0.000   0.1
                              *** Initializing SOSCF ***
---------------------------------------S-O-S-C-F--------------------------------------
Iteration    Energy (Eh)           Delta-E    RMSDP     MaxDP     MaxGrad    Time(sec)
--------------------------------------------------------------------------------------
    8    -486.4631368501431439    -1.50e-04  4.39e-04  2.17e-03  1.68e-03     0.2
               *** Restarting incremental Fock matrix formation ***
    9    -486.4631628941546637    -2.60e-05  8.69e-04  4.68e-03  1.23e-03     0.2
   10    -486.4631404273125668     2.25e-05  5.39e-04  2.81e-03  2.41e-03     0.1
   11    -486.4631687214238696    -2.83e-05  5.34e-05  2.18e-04  1.01e-04     0.1
   12    -486.4631687625359859    -4.11e-08  1.73e-05  6.60e-05  4.83e-05     0.1
   13    -486.4631687760517593    -1.35e-08  2.09e-06  6.49e-06  3.12e-06     0.1
   14    -486.4631687760228829     2.89e-11  8.59e-07  2.21e-06  9.64e-07     0.1
                 **** Energy Check signals convergence ****

               *****************************************************
               *                     SUCCESS                       *
               *           SCF CONVERGED AFTER  14 CYCLES          *
               *****************************************************

             **** ENERGY FILE WAS UPDATED (/cluster/projects/nn14654k/ylvaos/basis_set_n_funcs/functionals/lda_x/PO2/inp/PO2_lda_x_pc0.en.tmp) ****

----------------
TOTAL SCF ENERGY
----------------

Total Energy       :       -486.46316877600560 Eh          -13237.33580 eV

Components:
Nuclear Repulsion  :         99.08629604629714 Eh            2696.27519 eV
Electronic Energy  :       -585.54946482230275 Eh          -15933.61099 eV
One Electron Energy:       -872.98157747704465 Eh          -23755.03641 eV
Two Electron Energy:        287.43211265474190 Eh            7821.42542 eV

Virial components:
Potential Energy   :       -974.93923677833823 Eh          -26529.44536 eV
Kinetic Energy     :        488.47606800233257 Eh           13292.10957 eV
Virial Ratio       :          1.99587922652064

DFT components:
N(Alpha)           :       15.999993060957 electrons
N(Beta)            :       14.999994420812 electrons
N(Total)           :       30.999987481769 electrons
E(X)               :      -35.720404607284 Eh       
E(C)               :        0.000000000000 Eh       
E(XC)              :      -35.720404607284 Eh       

---------------
SCF CONVERGENCE
---------------

  Last Energy change         ...   -2.8876e-11  Tolerance :   1.0000e-08
  Last MAX-Density change    ...    2.2111e-06  Tolerance :   1.0000e-07
  Last RMS-Density change    ...    8.5914e-07  Tolerance :   5.0000e-09
  Last DIIS Error            ...    1.6788e-03  Tolerance :   5.0000e-07
  Last Orbital Gradient      ...    9.6381e-07  Tolerance :   1.0000e-05
  Last Orbital Rotation      ...    2.8847e-06  Tolerance :   1.0000e-05


----------------------
UHF SPIN CONTAMINATION
----------------------

Warning: in a DFT calculation there is little theoretical justification to 
         calculate <S**2> as in Hartree-Fock theory. We will do it anyways
         but you should keep in mind that the values have only limited relevance

Expectation value of <S**2>     :     0.750820
Ideal value S*(S+1) for S=0.5   :     0.750000
Deviation                       :     0.000820

----------------
ORBITAL ENERGIES
----------------
                 SPIN UP ORBITALS
  NO   OCC          E(Eh)            E(eV) 
   0   1.0000     -75.979339     -2067.5029 
   1   1.0000     -18.607676      -506.3406 
   2   1.0000     -18.607206      -506.3278 
   3   1.0000      -6.341542      -172.5621 
   4   1.0000      -4.586138      -124.7952 
   5   1.0000      -4.579945      -124.6266 
   6   1.0000      -4.578198      -124.5791 
   7   1.0000      -0.960835       -26.1457 
   8   1.0000      -0.911624       -24.8066 
   9   1.0000      -0.430939       -11.7264 
  10   1.0000      -0.365227        -9.9383 
  11   1.0000      -0.350384        -9.5344 
  12   1.0000      -0.340176        -9.2567 
  13   1.0000      -0.263580        -7.1724 
  14   1.0000      -0.256028        -6.9669 
  15   1.0000      -0.177013        -4.8168 
  16   0.0000      -0.066828        -1.8185 
  17   0.0000       0.068488         1.8636 
  18   0.0000       0.223948         6.0939 
  19   0.0000       0.576175        15.6785 
  20   0.0000       0.594650        16.1813 
  21   0.0000       0.695104        18.9147 
  22   0.0000       1.269100        34.5340 
  23   0.0000       1.333881        36.2967 
  24   0.0000       1.354608        36.8608 
  25   0.0000       1.394415        37.9440 
  26   0.0000       1.407636        38.3037 

                 SPIN DOWN ORBITALS
  NO   OCC          E(Eh)            E(eV) 
   0   1.0000     -75.976889     -2067.4363 
   1   1.0000     -18.597569      -506.0656 
   2   1.0000     -18.597108      -506.0530 
   3   1.0000      -6.338533      -172.4802 
   4   1.0000      -4.583789      -124.7312 
   5   1.0000      -4.576955      -124.5453 
   6   1.0000      -4.572850      -124.4336 
   7   1.0000      -0.943592       -25.6765 
   8   1.0000      -0.891779       -24.2665 
   9   1.0000      -0.403019       -10.9667 
  10   1.0000      -0.352977        -9.6050 
  11   1.0000      -0.332029        -9.0350 
  12   1.0000      -0.311445        -8.4748 
  13   1.0000      -0.251052        -6.8315 
  14   1.0000      -0.238314        -6.4848 
  15   0.0000      -0.132710        -3.6112 
  16   0.0000      -0.049767        -1.3542 
  17   0.0000       0.080558         2.1921 
  18   0.0000       0.242167         6.5897 
  19   0.0000       0.587628        15.9902 
  20   0.0000       0.614802        16.7296 
  21   0.0000       0.708816        19.2879 
  22   0.0000       1.281058        34.8594 
  23   0.0000       1.352733        36.8097 
  24   0.0000       1.389198        37.8020 
  25   0.0000       1.420271        38.6475 
*Only the first 10 virtual orbitals were printed.

                    ********************************
                    * MULLIKEN POPULATION ANALYSIS *
                    ********************************

--------------------------------------------
MULLIKEN ATOMIC CHARGES AND SPIN POPULATIONS
--------------------------------------------
   0 P :    0.869875    0.352665
   1 O :   -0.434930    0.323670
   2 O :   -0.434945    0.323666
Sum of atomic charges         :   -0.0000000
Sum of atomic spin populations:    1.0000000

-----------------------------------------------------
MULLIKEN REDUCED ORBITAL CHARGES AND SPIN POPULATIONS
-----------------------------------------------------
CHARGE
  0 P s       :     5.498572  s :     5.498572
      pz      :     3.022429  p :     8.631553
      px      :     2.933124
      py      :     2.676000

  1 O s       :     3.823161  s :     3.823161
      pz      :     1.602416  p :     4.611769
      px      :     1.533435
      py      :     1.475919

  2 O s       :     3.823161  s :     3.823161
      pz      :     1.602421  p :     4.611783
      px      :     1.533441
      py      :     1.475922


SPIN
  0 P s       :     0.221482  s :     0.221482
      pz      :     0.142947  p :     0.131183
      px      :     0.004100
      py      :    -0.015865

  1 O s       :    -0.001074  s :    -0.001074
      pz      :     0.268804  p :     0.324744
      px      :    -0.002050
      py      :     0.057990

  2 O s       :    -0.001074  s :    -0.001074
      pz      :     0.268800  p :     0.324740
      px      :    -0.002050
      py      :     0.057990



                     *******************************
                     * LOEWDIN POPULATION ANALYSIS *
                     *******************************

-------------------------------------------
LOEWDIN ATOMIC CHARGES AND SPIN POPULATIONS
-------------------------------------------
   0 P :    0.758790    0.371893
   1 O :   -0.379388    0.314056
   2 O :   -0.379402    0.314052

----------------------------------------------------
LOEWDIN REDUCED ORBITAL CHARGES AND SPIN POPULATIONS
----------------------------------------------------
CHARGE
  0 P s       :     5.353752  s :     5.353752
      pz      :     3.078825  p :     8.887458
      px      :     2.925968
      py      :     2.882665

  1 O s       :     3.683804  s :     3.683804
      pz      :     1.618303  p :     4.695584
      px      :     1.537013
      py      :     1.540268

  2 O s       :     3.683805  s :     3.683805
      pz      :     1.618308  p :     4.695598
      px      :     1.537019
      py      :     1.540271


SPIN
  0 P s       :     0.220684  s :     0.220684
      pz      :     0.160045  p :     0.151209
      px      :     0.003592
      py      :    -0.012428

  1 O s       :     0.000621  s :     0.000621
      pz      :     0.263778  p :     0.313434
      px      :    -0.001796
      py      :     0.051453

  2 O s       :     0.000621  s :     0.000621
      pz      :     0.263774  p :     0.313431
      px      :    -0.001796
      py      :     0.051453



                      *****************************
                      * MAYER POPULATION ANALYSIS *
                      *****************************

  NA   - Mulliken gross atomic population
  ZA   - Total nuclear charge
  QA   - Mulliken gross atomic charge
  VA   - Mayer's total valence
  BVA  - Mayer's bonded valence
  FA   - Mayer's free valence

  ATOM       NA         ZA         QA         VA         BVA        FA
  0 P     14.1301    15.0000     0.8699     3.5725     3.4294     0.1431
  1 O      8.4349     8.0000    -0.4349     2.2855     2.1805     0.1050
  2 O      8.4349     8.0000    -0.4349     2.2854     2.1804     0.1050

  Mayer bond orders larger than 0.100000
B(  0-P ,  1-O ) :   1.7147 B(  0-P ,  2-O ) :   1.7147 B(  1-O ,  2-O ) :   0.4658 


-------
TIMINGS
-------

Total SCF time: 0 days 0 hours 0 min 2 sec 

Total time                  ....       2.078 sec
Sum of individual times     ....       1.915 sec  ( 92.1%)

SCF preparation             ....       0.074 sec  (  3.6%)
Fock matrix formation       ....       1.119 sec  ( 53.8%)
  Startup                   ....       0.035 sec  (  3.1% of F)
  Coulomb formation         ....       0.033 sec  (  3.0% of F)
  XC integration            ....       0.483 sec  ( 43.2% of F)
    Basis function eval.    ....       0.008 sec  (  1.6% of XC)
    Density eval.           ....       0.004 sec  (  0.7% of XC)
    XC-Functional eval.     ....       0.006 sec  (  1.2% of XC)
    XC-Potential eval.      ....       0.003 sec  (  0.6% of XC)
Diagonalization             ....       0.000 sec  (  0.0%)
Density matrix formation    ....       0.335 sec  ( 16.1%)
Total Energy calculation    ....       0.064 sec  (  3.1%)
Population analysis         ....       0.012 sec  (  0.6%)
Orbital Transformation      ....       0.034 sec  (  1.6%)
Orbital Orthonormalization  ....       0.000 sec  (  0.0%)
DIIS solution               ....       0.109 sec  (  5.3%)
SOSCF solution              ....       0.168 sec  (  8.1%)
Finished LeanSCF after   2.2 sec

Maximum memory used throughout the entire LEANSCF-calculation: 4.5 MB


           ************************************************************
           *        Program running with 8 parallel MPI-processes     *
           *              working on a common directory               *
           ************************************************************

------------------------------------------------------------------------------
                         ORCA PROPERTY INTEGRAL CALCULATIONS
------------------------------------------------------------------------------

GBWName                                   ... /cluster/projects/nn14654k/ylvaos/basis_set_n_funcs/functionals/lda_x/PO2/inp/PO2_lda_x_pc0.gbw
Number of atoms                           ...      3
Number of basis functions                 ...     31
Max core memory                           ...   4096 MB

Dipole integrals                          ... YES
Quadrupole integrals                      ... YES
Linear momentum integrals                 ...  NO
Angular momentum integrals                ...  NO
Higher moments length integrals           ...  NO
Higher moments velocity integrals         ...  NO
Kinetic energy integrals                  ...  NO
GIAO right hand sides                     ...  NO
GIAO dipole derivative integrals          ...  NO
SOC integrals                             ...  NO
EPR diamagnetic integrals (GIAO)          ...  NO
EPR gauge integrals                       ...  NO
Field gradient integrals                  ...  NO (   0 nuclei)
Spin-dipole/Fermi contact integrals       ...  NO (   0 nuclei)
Contact density integrals                 ...  NO (   0 nuclei)
Nucleus-orbit integrals                   ...  NO (   0 nuclei)
Geometric perturbations                   ...  NO (   3 nuclei)

Choice of electric origin   ... Center of mass
Position of electric origin ... (  0.0000,  0.0000,  0.0084) 
Choice of magnetic origin   ... GIAO
Position of magnetic origin ... (  0.0000,  0.0000,  0.0000) 

Calculating integrals                     ... Electric Dipole (Length)     done (  0.0 sec)
Calculating integrals                     ... Electric Quadrupole (Length) done (  0.0 sec)

Property integrals calculated in   0.0 sec

Maximum memory used throughout the entire PROPINT-calculation: 2.4 MB
------------------------------------------------------------------------------
                           ORCA ORBITAL LOCALIZATION
------------------------------------------------------------------------------

Input orbitals are from                  ... /cluster/projects/nn14654k/ylvaos/basis_set_n_funcs/functionals/lda_x/PO2/inp/PO2_lda_x_pc0.gbw
Output orbitals are to                   ... /cluster/projects/nn14654k/ylvaos/basis_set_n_funcs/functionals/lda_x/PO2/inp/PO2_lda_x_pc0.loc
Max. number of iterations                ... 128
Localizations seeded randomly            ... on
Convergence tolerance                    ... 1.000e-06
Threshold for strong local MOs           ... 9.500e-01
Threshold for bond MOs                   ... 8.500e-01
Operator                                 ... 0
Orbital range for localization           ... 4 to 15
Localization criterion                   ... NEW-BOYS
Doing the dipole integrals               ... o.k.
Initial value of the localization sum :    38.593806
ITERATION   0 : L=   49.3085447080 DL=  1.07e+01 (AVERGE_DL)=    0.4029200052 
ITERATION   1 : L=   50.0351609135 DL=  7.27e-01 (AVERGE_DL)=    0.1049253851 
ITERATION   2 : L=   50.0550835592 DL=  1.99e-02 (AVERGE_DL)=    0.0173740689 
ITERATION   3 : L=   50.0566657829 DL=  1.58e-03 (AVERGE_DL)=    0.0048962318 
ITERATION   4 : L=   50.0567628673 DL=  9.71e-05 (AVERGE_DL)=    0.0012128381 
ITERATION   5 : L=   50.0567712465 DL=  8.38e-06 (AVERGE_DL)=    0.0003563097 
ITERATION   6 : L=   50.0567720352 DL=  7.89e-07 (AVERGE_DL)=    0.0001093172 
LOCALIZATION SUM CONVERGED


--------------------------------------------------------------------------------
                    LOCALIZED MOLECULAR ORBITAL COMPOSITIONS
--------------------------------------------------------------------------------

The Mulliken populations for each LMO on each atom are computed
The LMO`s will be ordered according to atom index and type
  (A) Strongly localized MO`s have populations of >=0.950 on one atom
  (B) Two center bond orbitals have populations of >=0.850 on two atoms
  (C) Other MO`s are considered to be `delocalized`

FOUND  -   6 strongly local MO`s
       -   6 two center bond MO`s
       -   0 significantly delocalized MO`s

Rather strongly localized orbitals:
MO   9:   2O  -   0.975414
MO   8:   1O  -   0.975413
MO   7:   0P  -   1.000103
MO   6:   0P  -   1.002987
MO   5:   0P  -   1.001082
MO   4:   0P  -   1.016888
Bond-like localized orbitals:
MO  15:   2O  -   0.733905  and   0P  -   0.258856
MO  14:   2O  -   0.733905  and   0P  -   0.258856
MO  13:   2O  -   0.926189  and   0P  -   0.069062
MO  12:   1O  -   0.733902  and   0P  -   0.258859
MO  11:   1O  -   0.733903  and   0P  -   0.258858
MO  10:   1O  -   0.926189  and   0P  -   0.069062
Localized MO's were stored in: /cluster/projects/nn14654k/ylvaos/basis_set_n_funcs/functionals/lda_x/PO2/inp/PO2_lda_x_pc0.loc
------------------------------------------------------------------------------
                           ORCA ORBITAL LOCALIZATION
------------------------------------------------------------------------------

Input orbitals are from                  ... /cluster/projects/nn14654k/ylvaos/basis_set_n_funcs/functionals/lda_x/PO2/inp/PO2_lda_x_pc0.loc
Output orbitals are to                   ... /cluster/projects/nn14654k/ylvaos/basis_set_n_funcs/functionals/lda_x/PO2/inp/PO2_lda_x_pc0.loc
Max. number of iterations                ... 128
Localizations seeded randomly            ... on
Convergence tolerance                    ... 1.000e-06
Threshold for strong local MOs           ... 9.500e-01
Threshold for bond MOs                   ... 8.500e-01
Operator                                 ... 1
Orbital range for localization           ... 4 to 14
Localization criterion                   ... NEW-BOYS
Doing the dipole integrals               ... o.k.
Initial value of the localization sum :    24.524520
ITERATION   0 : L=   35.9808339839 DL=  1.15e+01 (AVERGE_DL)=    0.4563952400 
ITERATION   1 : L=   39.5236489285 DL=  3.54e+00 (AVERGE_DL)=    0.2538007431 
ITERATION   2 : L=   40.0421197276 DL=  5.18e-01 (AVERGE_DL)=    0.0970914095 
ITERATION   3 : L=   40.1014571478 DL=  5.93e-02 (AVERGE_DL)=    0.0328460376 
ITERATION   4 : L=   40.1094437745 DL=  7.99e-03 (AVERGE_DL)=    0.0120503690 
ITERATION   5 : L=   40.1124486567 DL=  3.00e-03 (AVERGE_DL)=    0.0073914967 
ITERATION   6 : L=   40.1141700719 DL=  1.72e-03 (AVERGE_DL)=    0.0055945025 
ITERATION   7 : L=   40.1152229382 DL=  1.05e-03 (AVERGE_DL)=    0.0043752741 
ITERATION   8 : L=   40.1158734827 DL=  6.51e-04 (AVERGE_DL)=    0.0034391978 
ITERATION   9 : L=   40.1162768038 DL=  4.03e-04 (AVERGE_DL)=    0.0027079719 
ITERATION  10 : L=   40.1165278198 DL=  2.51e-04 (AVERGE_DL)=    0.0021363351 
ITERATION  11 : L=   40.1166848265 DL=  1.57e-04 (AVERGE_DL)=    0.0016895760 
ITERATION  12 : L=   40.1167836002 DL=  9.88e-05 (AVERGE_DL)=    0.0013401061 
ITERATION  13 : L=   40.1168461237 DL=  6.25e-05 (AVERGE_DL)=    0.0010662046 
ITERATION  14 : L=   40.1168859515 DL=  3.98e-05 (AVERGE_DL)=    0.0008509648 
ITERATION  15 : L=   40.1169114789 DL=  2.55e-05 (AVERGE_DL)=    0.0006812741 
ITERATION  16 : L=   40.1169279399 DL=  1.65e-05 (AVERGE_DL)=    0.0005470759 
ITERATION  17 : L=   40.1169386144 DL=  1.07e-05 (AVERGE_DL)=    0.0004405466 
ITERATION  18 : L=   40.1169455752 DL=  6.96e-06 (AVERGE_DL)=    0.0003557528 
ITERATION  19 : L=   40.1169501355 DL=  4.56e-06 (AVERGE_DL)=    0.0002879496 
ITERATION  20 : L=   40.1169531378 DL=  3.00e-06 (AVERGE_DL)=    0.0002336381 
ITERATION  21 : L=   40.1169551224 DL=  1.98e-06 (AVERGE_DL)=    0.0001899570 
ITERATION  22 : L=   40.1169564395 DL=  1.32e-06 (AVERGE_DL)=    0.0001547513 
ITERATION  23 : L=   40.1169573162 DL=  8.77e-07 (AVERGE_DL)=    0.0001262516 
LOCALIZATION SUM CONVERGED


--------------------------------------------------------------------------------
                    LOCALIZED MOLECULAR ORBITAL COMPOSITIONS
--------------------------------------------------------------------------------

The Mulliken populations for each LMO on each atom are computed
The LMO`s will be ordered according to atom index and type
  (A) Strongly localized MO`s have populations of >=0.950 on one atom
  (B) Two center bond orbitals have populations of >=0.850 on two atoms
  (C) Other MO`s are considered to be `delocalized`

FOUND  -   3 strongly local MO`s
       -   8 two center bond MO`s
       -   0 significantly delocalized MO`s

Rather strongly localized orbitals:
MO   6:   0P  -   1.001740
MO   5:   0P  -   1.000087
MO   4:   0P  -   1.001738
Bond-like localized orbitals:
MO  14:   2O  -   0.542601  and   0P  -   0.438100
MO  13:   2O  -   0.766707  and   0P  -   0.224442
MO  12:   2O  -   0.935247  and   0P  -   0.056911
MO  11:   2O  -   0.767128  and   0P  -   0.223990
MO  10:   1O  -   0.542595  and   0P  -   0.438105
MO   9:   1O  -   0.766799  and   0P  -   0.224350
MO   8:   1O  -   0.767039  and   0P  -   0.224076
MO   7:   1O  -   0.935243  and   0P  -   0.056916
Localized MO's were stored in: /cluster/projects/nn14654k/ylvaos/basis_set_n_funcs/functionals/lda_x/PO2/inp/PO2_lda_x_pc0.loc

-------------------------   --------------------
FINAL SINGLE POINT ENERGY      -486.463168776006
-------------------------   --------------------



           ************************************************************
           *        Program running with 8 parallel MPI-processes     *
           *              working on a common directory               *
           ************************************************************

------------------------------------------------------------------------------
                              ORCA PROPERTY CALCULATIONS
------------------------------------------------------------------------------

GBWName                                 ... /cluster/projects/nn14654k/ylvaos/basis_set_n_funcs/functionals/lda_x/PO2/inp/PO2_lda_x_pc0.gbw
Number of atoms                         ...      3
Number of basis functions               ...     31
Max core memory                         ...   4096 MB

Electric properties:
Dipole moment                           ... YES
Quadrupole moment                       ... YES
Static polarizability (Dipole/Dipole)   ...  NO
Static polarizability (Dipole/Quad.)    ...  NO
Static polarizability (Quad./Quad.)     ...  NO
Static polarizability (Velocity)        ...  NO
Static hyperpolarizability              ...  NO

Atomic electric properties:
Dipole moment                           ...  NO
Quadrupole moment                       ...  NO
Static polarizability                   ...  NO

Choice of electric origin               ... Center of mass
Position of electric origin             ...     0.000000     0.000000     0.008437

General magnetic properties:
Magnetizability                         ...  NO

EPR properties:
g-Tensor (aka g-matrix)                 ...  NO
Zero-Field splitting spin-orbit         ...  NO
Zero-field splitting spin-spin          ...  NO
Hyperfine couplings                     ...  NO (   0 nuclei)
Quadrupole couplings                    ...  NO (   0 nuclei)
Contact density                         ...  NO (   0 nuclei)

NMR properties:
Chemical shifts                         ...  NO (   0 nuclei)
Spin-rotation constants                 ...  NO (   0 nuclei)
Spin-spin couplings                     ...  NO (   0 nuclei,    0 pairs)

Choice of magnetic origin               ... GIAO
Position of magnetic origin             ...     0.000000     0.000000     0.000000

Properties with geometric perturbations:
SCF Hessian                             ...  NO
IR spectrum                             ...  NO
VCD spectrum                            ...  NO
X-ray spectroscopy properties:
SCF XES/XAS/RIXS spectra                ...  NO

SCF SOC stabilization energy            ...  NO
Diagonal Born-Oppenheimer correction    ...  NO

-------------
DIPOLE MOMENT
-------------

Method             : SCF
Type of density    : Electron Density
Multiplicity       :   2
Irrep              :   0
Energy             :  -486.4631687760056025 Eh
Basis              : AO
                                X                 Y                 Z
Electronic contribution:      0.000000000       0.000034277       0.750681959
Nuclear contribution   :      0.000000000       0.000000000      -0.261362976
                        -----------------------------------------
Total Dipole Moment    :      0.000000000       0.000034277       0.489318983
                        -----------------------------------------
Magnitude (a.u.)       :      0.489318984
Magnitude (Debye)      :      1.243750015



--------------------
Rotational spectrum 
--------------------
 
Rotational constants in cm-1:             3.442444             0.286393             0.264396 
Rotational constants in MHz :        103201.869580          8585.841533          7926.407020 

Dipole components along the rotational axes: 
x,y,z [a.u.] :     0.000034     0.489319     0.000000 
x,y,z [Debye]:     0.000087     1.243750     0.000000 

 

Dipole moment calculation done in   0.0 sec 

-----------------
QUADRUPOLE MOMENT
-----------------

Method             : SCF
Type of density    : Electron Density
Multiplicity       :   2
Irrep              :   0
Energy             :  -486.4631687760056025 Eh
Basis              : AO

                XX              YY              ZZ              XY              XZ              YZ
  NUC        0.000000000   105.106420135     8.604299986     0.000000000     0.000000000     0.000000000
  EL       -15.351219610  -127.281254187   -24.889919498     0.000000001     0.000000001    -0.000023366
  TOT      -15.351219610   -22.174834052   -16.285619512     0.000000001     0.000000001    -0.000023366 (a.u.)
           -20.647915387   -29.825910180   -21.904715212     0.000000001     0.000000002    -0.000031428 (Buckingham)

diagonalized tensor:
           -22.174834053   -16.285619512   -15.351219610 (a.u.)
           -29.825910180   -21.904715212   -20.647915387 (Buckingham)
           -17.099189761     6.664395143    10.434794618 (traceless form in Buckingham)

            -0.000000000     0.000000002     1.000000000
             1.000000000     0.000003968     0.000000000
             0.000003968    -1.000000000     0.000000002
        
Isotropic quadrupole :   -17.937224391

Quadrupole moment calculation done in   0.0 sec (  0.0 sec for integrals)

Maximum memory used throughout the entire PROP-calculation: 1.1 MB

--------------------------------
SUGGESTED CITATIONS FOR THIS RUN
--------------------------------

Below you find a list of papers that are relevant to this ORCA run
We neither can nor want to force you to cite these papers, but we appreciate if you do
You receive ORCA, which is the product of decades of hard work by many enthusiastic individuals, for free
The only thing we kindly ask in return is that you cite our papers,
We deeply appreciate it, if you show your appreciation for ORCA by not just citing the generic ORCA reference.

Please note that relegating all ORCA citations to the supporting information does *not* help us.
SI sections are not indexed - citations you put there will not count into any citation statistics
But we need these citations in order to attract the funding resources that allow us to do what we are doing

Therefore, if you are a happy ORCA user, please consider citing a few of the papers listed below in the main body of your paper

In addition to the list printed below, the program has created the file /cluster/projects/nn14654k/ylvaos/basis_set_n_funcs/functionals/lda_x/PO2/inp/PO2_lda_x_pc0.bibtex that contains the list in bibtex format
You can import this file easily into all common literature databanks and citation aid programs

It goes without saying that in many instances, there are alternative algorithms to achieve similar
results as the ones you have gotten from ORCA. It is, of course, also the case that in some instances
ORCA just re-implements algorithms worked out by others. We are fully aware of that and we are also
fully appreciative of our colleagues work. Hence this citation list should not be read as indicating
that the listed papers, which are focused on our own work, are the only ones worth citing. It simply
meant to make it easier for users to cite ORCA specific papers. It is not a substitute for doing your
own literature research and citing the relevant literature in a scientifically appropriate manner.

List of essential papers. We consider these as the minimum necessary citations

  1. Neese, F.
     Software update: the ORCA program system, version 6.0
     WIRES Comput. Molec. Sci. 2025 15(1), e70019
     doi.org/10.1002/wcms.70019

List of papers to cite with high priority. The work reported in these papers was absolutely
necessary for this run to complete.
Our perspective: the developers of density functionals and basis sets usually get cited in chemistry papers
Good! But without the algorithms to do something with them, the functionals or basis sets would not do anything.
Hence, in our opinion, the algorithm design and method developments papers are equally worthy of getting cited

  1. Lehtola, S.; Steigemann, C.; Oliveira, M.; Marques, M.
     Recent developments in Libxc - A comprehensive library of functionals for density functional theory
     Software X 2018 7 , 
     doi.org/10.1016/j.softx.2017.11.002
  2. Neese, F.
     The SHARK Integral Generation and Digestion System
     J. Comp. Chem. 2022 44(3), 381
     doi.org/10.1002/jcc.26942

List of suggested additional citations. These are papers that are important in the 'surrounding' of 
of this run, or papers that preceded the highly important papers. If you like your results we are grateful for a citation.

  1. Neese, F.
     The ORCA program system
     WIRES Comput. Molec. Sci. 2012 2(1), 73-78
     doi.org/10.1002/wcms.81
  2. Neese, F.
     Software update: the ORCA program system, version 4.0
     WIRES Comput. Molec. Sci. 2018 8(1), 1-6
     doi.org/10.1002/wcms.1327
  3. Neese, F.; Wennmohs, F.; Becker, U.; Riplinger, C.
     The ORCA quantum chemistry program package
     J. Chem. Phys. 2020 152(22), 224108
     doi.org/10.1063/5.0004608
  4. Neese, F.
     Software update: The ORCA program system—Version 5.0
     WIRES Comput. Molec. Sci. 2022 12(1), e1606
     doi.org/10.1002/wcms.1606

List of optional additional citations

  1. Neese, F.
     Approximate second-order SCF convergence for spin unrestricted wavefunctions
     Chem. Phys. Lett. 2000 325(1-3), 93-98
     doi.org/10.1016/s0009-2614(00)00662-x

Timings for individual modules:

Sum of individual times          ...        3.901 sec (=   0.065 min)
Startup calculation              ...        0.454 sec (=   0.008 min)  11.6 %
SCF iterations                   ...        2.928 sec (=   0.049 min)  75.1 %
Property integrals               ...        0.236 sec (=   0.004 min)   6.0 %
Property calculations            ...        0.272 sec (=   0.005 min)   7.0 %
Orbital localization             ...        0.012 sec (=   0.000 min)   0.3 %
                             ****ORCA TERMINATED NORMALLY****
TOTAL RUN TIME: 0 days 0 hours 0 minutes 6 seconds 501 msec
