
                                 *****************
                                 * O   R   C   A *
                                 *****************

                                            #,                                       
                                            ###                                      
                                            ####                                     
                                            #####                                    
                                            ######                                   
                                           ########,                                 
                                     ,,################,,,,,                         
                               ,,#################################,,                 
                          ,,##########################################,,             
                       ,#########################################, ''#####,          
                    ,#############################################,,   '####,        
                  ,##################################################,,,,####,       
                ,###########''''           ''''###############################       
              ,#####''   ,,,,##########,,,,          '''####'''          '####       
            ,##' ,,,,###########################,,,                        '##       
           ' ,,###''''                  '''############,,,                           
         ,,##''                                '''############,,,,        ,,,,,,###''
      ,#''                                            '''#######################'''  
     '                                                          ''''####''''         
             ,#######,   #######,   ,#######,      ##                                
            ,#'     '#,  ##    ##  ,#'     '#,    #''#        ,####,    ,#,          
            ##       ##  ##   ,#'  ##            #'  '#       #'       ,# #          
            ##       ##  #######   ##           ,######,      #####,      #          
            '#,     ,#'  ##    ##  '#,     ,#' ,#      #,     #,   #      #          
             '#######'   ##     ##  '#######'  #'      '#     '####' #    #          



                #########################################################
                #                        -***-                          #
                #          Department of theory and spectroscopy        #
                #                                                       #
                #                      Frank Neese                      #
                #                                                       #
                #     Directorship, Architecture, Infrastructure        #
                #                    SHARK, DRIVERS                     #
                #        Core code/Algorithms in most modules           #
                #                                                       #
                #        Max Planck Institute fuer Kohlenforschung      #
                #                Kaiser Wilhelm Platz 1                 #
                #                 D-45470 Muelheim/Ruhr                 #
                #                      Germany                          #
                #                                                       #
                #                  All rights reserved                  #
                #                        -***-                          #
                #########################################################


                         Program Version 6.1.1  -  RELEASE   -
                                (GIT: $487d211c$)
                          ($2025-11-21 10:33:24 +0100$)


 With contributions from (in alphabetic order):
[Max-Planck-Institut fuer Kohlenforschung]                               
  Daniel Aravena         : Magnetic Suceptibility                        
  Michael Atanasov       : Ab Initio Ligand Field Theory (pilot matlab implementation)
  Alexander A. Auer      : GIAO ZORA, VPT2 properties, NMR spectrum      
  Ute Becker             : All parallelization in ORCA, NUMFREQ, NUMCALC 
  Giovanni Bistoni       : ED, misc. LED, open-shell LED, HFLD           
  Dmytro Bykov           : pre 5.0 version of the SCF Hessian            
  Marcos Casanova-Páez   : Triplet and SCS-CIS(D). UHF-(DLPNO)-IP/EA/STEOM-CCSD. UHF-CVS-IP/STEOM-CCSD   
  Vijay G. Chilkuri      : MRCI spin determinant printing, contributions to CSF-ICE 
  Pauline Colinet        : FMM embedding                                 
  Dipayan Datta          : RHF DLPNO-CCSD density                        
  Achintya Kumar Dutta   : EOM-CC, STEOM-CC                              
  Nicolas Foglia         : Exact transition moments, OPA infrastructure, MCD improvements    
  Dmitry Ganyushin       : Spin-Orbit,Spin-Spin,Magnetic field MRCI      
  Miquel Garcia-Rates    : C-PCM and meta-GGA Hessian, CCSD/C-PCM, Gaussian charge scheme 
  Tiago L. C. Gouveia    : GS-ROHF, GS-ROCIS                             
  Yang Guo               : DLPNO-NEVPT2, F12-NEVPT2, CIM, IAO-localization        
  Andreas Hansen         : Spin unrestricted coupled pair/coupled cluster methods 
  Ingolf Harden          : AUTO-CI MPn and infrastructure                
  Benjamin Helmich-Paris : MC-RPA, TRAH-(SCF,CASSCF), AVAS, COSX integrals, SCF dyn. polar., MC-PDFT, srDFT 
  Lee Huntington         : MR-EOM, pCC                                   
  Robert Izsak           : Overlap fitted RIJCOSX, COSX-SCS-MP3, EOM     
  Riya Kayal             : Wick's Theorem for AUTO-CI, AUTO-CI UHF-CCSDT 
  Emily Kempfer          : AUTO-CI RHF CISDT and CCSDT, approximate NEVPT4
  Christian Kollmar      : KDIIS, OOCD, Brueckner-CCSD(T), CCSD density, CASPT2, CASPT2-K, improved NEVPT2 
  Axel Koslowski         : Symmetry handling                             
  Simone Kossmann        : meta-GGA functionals, TD-DFT gradient, OOMP2, (MP2 Hessian; deprecated post 5.0) 
  Lucas Lang             : DCDCAS, Hyperfine gauge corrections, ICE-SOC+SSC
  Marvin Lechner         : AUTO-CI (C++ implementation), FIC-MRCC        
  Spencer Leger          : CASSCF response                               
  Dagmar Lenk            : GEPOL surface, SMD, ORCA-2-JSON               
  Dimitrios Liakos       : Extrapolation schemes; Compound Job, Property file
  Dimitrios Manganas     : Further ROCIS development; embedding schemes. LFT, Crystal Embedding 
  Dimitrios Pantazis     : SARC Basis sets                               
  Anastasios Papadopoulos: AUTO-CI, single reference methods and gradients 
  Taras Petrenko         : pre 6.0 DFT Hessian and TD-DFT gradient,  ECA, NRVS 
  Petra Pikulova         : Analytic Raman intensities                    
  Peter Pinski           : DLPNO-MP2, DLPNO-MP2 Gradient                 
  Shashank Vittal Rao    : ES-AILFT, MagRelax                            
  Christoph Reimann      : Effective Core Potentials                     
  Marius Retegan         : Local ZFS, SOC                                
  Christoph Riplinger    : Optimizer, TS searches, QM/MM, DLPNO-CCSD(T), (RO)-DLPNO pert. Triples 
  Michael Roemelt        : Original ROCIS implementation, recursive CI coupling coefficients
  Masaaki Saitow         : Open-shell DLPNO-CCSD energy and density      
  Barbara Sandhoefer     : DKH picture change effects                    
  Yorick L. A. Schmerwitz: GMF and freeze-and-release deltaSCF, NEB S-IDPP initial path                    
  Kantharuban Sivalingam : CASSCF convergence/infrastructure, NEVPT2, NEVPT3, NEVPT4(SD), FIC-MRCI and CEPA variants
  Bernardo de Souza      : ESD, SOC TD-DFT                               
  Georgi L. Stoychev     : AutoAux, RI-MP2 NMR, DLPNO-MP2 response, X2C  
  Van Anh Tran           : RI-MP2 g-tensors                              
  Willem Van den Heuvel  : Paramagnetic NMR                              
  Zikuan Wang            : NOTCH, Electric field optimization            
  Frank Wennmohs         : Technical directorship and infrastructure     
  Hang Xu                : AUTO-CI-Response properties                   
                                                                         
[FACCTs GmbH]                                                            
  Markus Bursch, Nicolas Foglia, Miquel Garcia-Rates, Ingolf Harden, Hagen Neugebauer, Anastasios Papadopoulos, 
  Christoph Riplinger, Bernardo de Souza, Georgi L. Stoychev                                                    
                                                                 
  APM, various basis sets, CI-OPT, improved COSX, DLPNO-Multilevel,           
  DOCKER, DRACO, updates on ESD, Fragmentator, GOAT, IRC, LR-CPCM, L-BFGS, MBIS, meta-GGA TD-DFT gradient, ML-optimized integration grids, 
  MM, NACMEs, nearIR, NEB, NEB-TS, NL-DFT gradient (VV10), 2- and 3-layer-ONIOM, interface openCOSMO-RS, QMMM,   
  Crystal-QMMM, RESP, rigid body optimization, SF, symmetry and pop. for TD-DFT, various functionals, SOLVATOR                                   
                                                                         
[Other institutions]                                                     
  V. Asgeirsson          : NEB                                           
  Christoph Bannwarth    : sTDA-DFT, sTD-DFT, PBEh-3c, B97-3c, D3        
  Giovanni Bistoni       : ETS/NOCV, ADLD/ADEX, COVALED                  
  Martin Brehm           : Molecular dynamics                            
  Ronald Cardenas        : ETS/NOCV                                      
  Martina Colucci        : COVALED                                       
  Sebastian Ehlert       : rSCAN, r2SCAN, r2SCAN-3c, D4, dhf basis sets  
  Marvin Friede          : D4 for Fr, Ra, Ac-Lr                          
  Lars Goerigk           : TD-DFT with DH, B97 family of functionals     
  Stefan Grimme          : VdW corrections, initial TS optimization, DFT functionals, gCP, sTDA/sTD-DF 
  Waldemar Hujo          : DFT-NL                                        
  H. Jonsson             : NEB                                           
  Holger Kruse           : gCP                                           
  Marcel Mueller         : wB97X-3c, vDZP basis set                      
  Hagen Neugebauer       : wr2SCAN, Native XTB                           
  Gianluca Regni         : ADLD/ADEX                                     
  Tobias Risthaus        : pre 6.0 range-separated hybrid DFT and stability analysis
  Lukas Wittmann         : regularized MP2, r2SCAN double-hybrids, wr2SCAN        
                                                                         
We gratefully acknowledge several colleagues who have allowed us to      
interface, adapt or use parts of their codes:                            
  Ed Valeev, F. Pavosevic, A. Kumar             : LibInt (2-el integral package), F12 methods 
  Garnet Chan, S. Sharma, J. Yang, R. Olivares  : DMRG                   
  Ulf Ekstrom                                   : XCFun DFT Library      
  Mihaly Kallay                                 : mrcc  (arbitrary order and MRCC methods)
  Frank Weinhold                                : gennbo (NPA and NBO analysis)           
  Simon Mueller                                 : openCOSMO-RS                            
  Christopher J. Cramer and Donald G. Truhlar   : smd solvation model                     
  S Lehtola, MJT Oliveira, MAL Marques          : LibXC Library                           
  Liviu Ungur et al                             : ANISO software                          


 Your calculation uses the libint2 library for the computation of 2-el integrals
 For citations please refer to: http://libint.valeyev.net

 Your ORCA version has been built with support for libXC version: 7.0.0
 For citations please refer to: https://libxc.gitlab.io

 This ORCA versions uses:
   CBLAS   interface :  Fast vector & matrix operations
   LAPACKE interface :  Fast linear algebra routines
   SCALAPACK package :  Parallel linear algebra routines
   Shared memory     :  Shared parallel matrices
   BLAS/LAPACK       :  OpenBLAS 0.3.29  USE64BITINT DYNAMIC_ARCH NO_AFFINITY Cooperlake SINGLE_THREADED
        Core in use  :  Cooperlake
   Copyright (c) 2011-2014, The OpenBLAS Project


  ***********************************
  * Starting time: Wed May 20 12:39:34 2026
  * Host name:     c1-46
  * Process ID:    4000330
  * Working dir.:  /cluster/projects/nn14654k/ylvaos/basis_set_n_funcs/functionals/lda_x/PO2/out
  ***********************************

Using LibXC functional ID   1 : Slater exchange
[ 1]  P. A. M. Dirac.,  Math. Proc. Cambridge Philos. Soc. 26, 376 (1930)
[ 2]  F. Bloch.,  Z. Phys. 57, 545 (1929)
Using LibXC functional ID   1 : Slater exchange
[ 1]  P. A. M. Dirac.,  Math. Proc. Cambridge Philos. Soc. 26, 376 (1930)
[ 2]  F. Bloch.,  Z. Phys. 57, 545 (1929)
Your calculation utilizes LibXC
by S. Lehtola, C. Steigemann, M. J. T. Oliveira & M. A. L. Marques
Please cite in your paper:
Lehtola, S.; Steigemann, C.; Oliveira, M.J.T.; Marques, M. A. L. Software X, 7, (2018), 1.
   

================================================================================

----- Orbital basis set information -----
Your calculation utilizes the basis: def2-SVP
   F. Weigend and R. Ahlrichs, Phys. Chem. Chem. Phys. 7, 3297 (2005).

================================================================================
                                        WARNINGS
                       Please study these warnings very carefully!
================================================================================


WARNING: your system is open-shell and RHF/RKS was chosen
  ===> : WILL SWITCH to UHF/UKS


================================================================================
                                       INPUT FILE
================================================================================
NAME = /cluster/projects/nn14654k/ylvaos/basis_set_n_funcs/functionals/lda_x/PO2/inp/PO2_lda_x_def2svp.inp
|  1> ! dft def2-SVP TightSCF
|  2> %pal nprocs 8 end
|  3> 
|  4> %loc
|  5>   LocMet NewBoys
|  6>   Occ true
|  7> end
|  8> 
|  9> %method
| 10>   exchange lda_x
| 11>   correlation None
| 12> end
| 13> 
| 14> %elprop
| 15>   Dipole true
| 16>   Quadrupole true
| 17> end
| 18> 
| 19> * xyz 0 2
| 20> P    0.000000000000   0.000000000000   0.287900000000
| 21> O    0.000000000000   1.356300000000  -0.269900000000
| 22> O    0.000000000000  -1.356300000000  -0.269900000000
| 23> *
| 24> 
| 25> 
| 26>                          ****END OF INPUT****
================================================================================

                       ****************************
                       * Single Point Calculation *
                       ****************************

---------------------------------
CARTESIAN COORDINATES (ANGSTROEM)
---------------------------------
  P      0.000000    0.000000    0.287900
  O      0.000000    1.356300   -0.269900
  O      0.000000   -1.356300   -0.269900

----------------------------
CARTESIAN COORDINATES (A.U.)
----------------------------
  NO LB      ZA    FRAG     MASS         X           Y           Z
   0 P    15.0000    0    30.974    0.000000    0.000000    0.544052
   1 O     8.0000    0    15.999    0.000000    2.563036   -0.510037
   2 O     8.0000    0    15.999    0.000000   -2.563036   -0.510037

--------------------------------
INTERNAL COORDINATES (ANGSTROEM)
--------------------------------
 P      0   0   0     0.000000000000     0.00000000     0.00000000
 O      1   0   0     1.466523279733     0.00000000     0.00000000
 O      1   2   0     1.466523279733   135.28860674     0.00000000

---------------------------
INTERNAL COORDINATES (A.U.)
---------------------------
 P      0   0   0     0.000000000000     0.00000000     0.00000000
 O      1   0   0     2.771327367716     0.00000000     0.00000000
 O      1   2   0     2.771327367716   135.28860674     0.00000000

---------------------
BASIS SET INFORMATION
---------------------
There are 2 groups of distinct atoms

 Group   1 Type P   : 10s7p1d contracted to 4s3p1d pattern {5311/511/1}
 Group   2 Type O   : 7s4p1d contracted to 3s2p1d pattern {511/31/1}

Atom   0P    basis set group =>   1
Atom   1O    basis set group =>   2
Atom   2O    basis set group =>   2


           ************************************************************
           *        Program running with 8 parallel MPI-processes     *
           *              working on a common directory               *
           ************************************************************
------------------------------------------------------------------------------
                             ORCA STARTUP CALCULATIONS
------------------------------------------------------------------------------
------------------------------------------------------------------------------
                   ___                                                        
                  /   \      - P O W E R E D   B Y -                         
                 /     \                                                     
                 |  |  |   _    _      __       _____    __    __             
                 |  |  |  | |  | |    /  \     |  _  \  |  |  /  |          
                  \  \/   | |  | |   /    \    | | | |  |  | /  /          
                 / \  \   | |__| |  /  /\  \   | |_| |  |  |/  /          
                |  |  |   |  __  | /  /__\  \  |    /   |      \           
                |  |  |   | |  | | |   __   |  |    \   |  |\   \          
                \     /   | |  | | |  |  |  |  | |\  \  |  | \   \       
                 \___/    |_|  |_| |__|  |__|  |_| \__\ |__|  \__/        
                                                                              
                      - O R C A' S   B I G   F R I E N D -                    
                                      &                                       
                       - I N T E G R A L  F E E D E R -                       
                                                                              
 v1 FN, 2020, v2 2021, v3 2022-2024                                           
------------------------------------------------------------------------------


----------------------
SHARK INTEGRAL PACKAGE
----------------------

Number of atoms                             ...      3
Number of basis functions                   ...     46
Number of shells                            ...     20
Maximum angular momentum                    ...      2
Integral batch strategy                     ... SHARK/LIBINT Hybrid
RI-J (if used) integral strategy            ... SPLIT-RIJ (Revised 2003 algorithm where possible)
Printlevel                                  ...      1
Contraction scheme used                     ... SEGMENTED contraction
Prescreening option                         ... SCHWARTZ
   Thresh                                   ... 2.500e-11
   Tcut                                     ... 2.500e-12
   Tpresel                                  ... 2.500e-12 
Coulomb Range Separation                    ... NOT USED
Exchange Range Separation                   ... NOT USED
Multipole approximations                    ... NOT USED
Finite Nucleus Model                        ... NOT USED
CABS basis                                  ... NOT available
Auxiliary Coulomb fitting basis             ... NOT available
Auxiliary J/K fitting basis                 ... NOT available
Auxiliary Correlation fitting basis         ... NOT available
Auxiliary 'external' fitting basis          ... NOT available

Checking pre-screening integrals            ... done (  0.0 sec) Dimension = 20
   => SHARK Basis and OBASIS are compatible. Storing Pre-screening
Shell pair information
Shell pair cut-off parameter TPreSel        ...   2.5e-12
Total number of shell pairs                 ...       210
Shell pairs after pre-screening             ...       207
Total number of primitive shell pairs       ...       952
Primitive shell pairs kept                  ...       775
          la=0 lb=0:     52 shell pairs
          la=1 lb=0:     70 shell pairs
          la=1 lb=1:     28 shell pairs
          la=2 lb=0:     30 shell pairs
          la=2 lb=1:     21 shell pairs
          la=2 lb=2:      6 shell pairs

Checking whether 4 symmetric matrices of dimension 46 fit in memory
:Max Core in MB      =   4096.00
 MB in use           =      1.46
 MB left             =   4094.54
 MB needed           =      0.03
 Data fit in memory  = YES
Calculating Nuclear repulsion               ... done (  0.0 sec) ENN=     99.086296046297 Eh

Diagonalization of the overlap matrix:
Smallest eigenvalue                        ... 2.387e-02
Time for diagonalization                   ...    0.001 sec
Threshold for overlap eigenvalues          ... 1.000e-07
Number of eigenvalues below threshold      ... 0
Time for construction of square roots      ...    0.002 sec
Total time needed                          ...    0.005 sec

-------------------
DFT GRID GENERATION
-------------------

General Integration Accuracy     IntAcc      ... 4.388
Radial Grid Type                 RadialGrid  ... OptM3 with GC (2021)
Angular Grid (max. ang.)         AngularGrid ... 4 (Lebedev-302)
Angular grid pruning method      GridPruning ... 4 (adaptive)
Weight generation scheme         WeightScheme... mBecke (2022)
Basis function cutoff            BFCut       ... 1.0000e-11
Integration weight cutoff        WCut        ... 1.0000e-14
Partially contracted basis set               ... off
Rotationally invariant grid construction     ... off
Angular grids for H and He will be reduced by one unit

Total number of grid points                  ...    19622
Total number of batches                      ...      309
Average number of points per batch           ...       63
Average number of grid points per atom       ...     6541
Grids setup in   0.1 sec
Initializing property integral containers    ... done (  0.0 sec)

SHARK setup successfully completed in   0.1 seconds

Maximum memory used throughout the entire STARTUP-calculation: 6.8 MB


           ************************************************************
           *        Program running with 8 parallel MPI-processes     *
           *              working on a common directory               *
           ************************************************************
-------------------------------------------------------------------------------
                                 ORCA GUESS
                   Start orbitals & Density for SCF / CASSCF
-------------------------------------------------------------------------------

------------
SCF SETTINGS
------------
Hamiltonian:
 Density Functional     Method          .... DFT(GTOs)
  Functional kind                       .... Exchange
  Functional name                       .... Slater exchange
  Functional family                     .... LDA
  Functional refs                              
    [ 0] P. A. M. Dirac.,  Math. Proc. Cambridge Philos. Soc. 26, 376 (1930), doi: 10.1017/S0305004100016108
    [ 1] F. Bloch.,  Z. Phys. 57, 545 (1929), doi: 10.1007/BF01340281
  Functional external parameters        .... 0
 Correlation Functional Correlation     .... No Correlation
 Gradients option       PostSCFGGA      .... off


General Settings:
 Integral files         IntName         .... /cluster/projects/nn14654k/ylvaos/basis_set_n_funcs/functionals/lda_x/PO2/inp/PO2_lda_x_def2svp
 Hartree-Fock type      HFTyp           .... UHF
 Total Charge           Charge          ....    0
 Multiplicity           Mult            ....    2
 Number of Electrons    NEL             ....   31
 Basis Dimension        Dim             ....   46
 Nuclear Repulsion      ENuc            ....     99.0862960463 Eh

Convergence Acceleration:
 AO-DIIS                CNVDIIS         .... on
   Start iteration      DIISMaxIt       ....    12
   Startup error        DIISStart       ....  0.200000
   # of expansion vecs  DIISMaxEq       ....     5
   Bias factor          DIISBfac        ....   1.050
   Max. coefficient     DIISMaxC        ....  10.000
 MO-DIIS                CNVKDIIS        .... off
 Trust-Rad. Augm. Hess. CNVTRAH         .... auto
   Auto Start mean grad. ratio tolernc. ....  1.125000
   Auto Start start iteration           ....    50
   Auto Start num. interpolation iter.  ....    10
   Max. Number of Micro iterations      ....    24
   Max. Number of Macro iterations      .... Maxiter - #DIIS iter
   Number of Davidson start vectors     ....     2
   Converg. threshold    (grad. norm)   ....   1.000e-05
   Grad. Scal. Fac. for Micro threshold ....   0.100
   Minimum threshold for Micro iter.    ....   1.000e-02
   NR start threshold (gradient norm)   ....   1.000e-04
   Initial trust radius                 ....   0.400
   Minimum AH scaling param. (alpha)    ....   1.000
   Maximum AH scaling param. (alpha)    .... 1000.000
   Quad. conv. algorithm                .... NR
   White noise on init. David. guess    .... on
   Maximum white noise                  ....   0.010
   Pseudo random numbers                .... off
   Inactive MOs                         .... canonical
   Orbital update algorithm             .... Taylor
   Preconditioner                       .... Diag
   Full preconditioner red. dimension   ....   250
 SOSCF                 CNVSOSCF           .... on
   Start iteration     SOSCFMaxIt         ....   150
   Startup grad/error  SOSCFStart         ....  0.003300
   Hessian update      SOSCFHessUp        .... L-BFGS
   Autom. constraints  SOSCFAutoConstrain .... off
 Level Shifting         CNVShift        .... on
   Level shift para.    LevelShift      ....    0.2500
   Turn off err/grad.   ShiftErr        ....    0.0010
 Zerner damping         CNVZerner       .... off
 Static damping         CNVDamp         .... on
   Fraction old density DampFac         ....    0.7000
   Max. Damping (<1)    DampMax         ....    0.9800
   Min. Damping (>=0)   DampMin         ....    0.0000
   Turn off err/grad.   DampErr         ....    0.1000

SCF Procedure:
 Maximum # iterations   MaxIter         ....   125
 SCF integral mode      SCFMode         .... Direct
   Integral package                     .... SHARK and LIBINT hybrid scheme
 Reset frequency        DirectResetFreq ....    20
 Integral Threshold     Thresh          ....  2.500e-11 Eh
 Primitive CutOff       TCut            ....  2.500e-12 Eh

Convergence Tolerance:
 Convergence Check Mode ConvCheckMode   .... Total+1el-Energy
 Convergence forced     ConvForced      .... 0
 Energy Change          TolE            ....  1.000e-08 Eh
 1-El. energy change                    ....  1.000e-05 Eh
 Orbital Gradient       TolG            ....  1.000e-05
 Orbital Rotation angle TolX            ....  1.000e-05
 DIIS Error             TolErr          ....  5.000e-07

------------------------------
INITIAL GUESS: MODEL POTENTIAL
------------------------------
Loading Hartree-Fock densities                     ... done
Calculating cut-offs                               ... done
Initializing the effective Hamiltonian             ... done
Setting up the integral package (SHARK)            ... done
Starting the Coulomb interaction                   ... done (   0.0 sec)
Making the grid                                    ... done (   0.0 sec)
Mapping shells                                     ... done
Starting the XC term evaluation                    ... done (   0.0 sec)
  promolecular density results
     # of electrons  =     31.000340385
     EX              =    -35.634422866
     EC              =      0.000000000
     EX+EC           =    -35.634422866
Transforming the Hamiltonian                       ... done (   0.0 sec)
Diagonalizing the Hamiltonian                      ... done (   0.0 sec)
Back transforming the eigenvectors                 ... done (   0.0 sec)
Now organizing SCF variables                       ... done
                      ------------------
                      INITIAL GUESS DONE (   0.1 sec)
                      ------------------
             **** ENERGY FILE WAS UPDATED (/cluster/projects/nn14654k/ylvaos/basis_set_n_funcs/functionals/lda_x/PO2/inp/PO2_lda_x_def2svp.en.tmp) ****
Finished Guess after   0.1 sec
Maximum memory used throughout the entire GUESS-calculation: 3.7 MB


           ************************************************************
           *        Program running with 8 parallel MPI-processes     *
           *              working on a common directory               *
           ************************************************************

-------------------------------------------------------------------------------------------
                                      ORCA LEAN-SCF
                              memory conserving SCF solver
-------------------------------------------------------------------------------------------

----------------------------------------D-I-I-S--------------------------------------------
Iteration    Energy (Eh)           Delta-E    RMSDP     MaxDP     DIISErr   Damp  Time(sec)
-------------------------------------------------------------------------------------------
               ***  Starting incremental Fock matrix formation  ***
    1    -486.7608739748666835     0.00e+00  2.06e-02  1.15e-01  1.25e-01  0.700   0.1
Warning: op=1 Small HOMO/LUMO gap (   0.063) - skipping pre-diagonalization
         Will do a full diagonalization
    2    -486.8724383539175165    -1.12e-01  8.31e-03  3.92e-02  3.34e-02  0.700   0.1
                               ***Turning on AO-DIIS***
    3    -486.8943951493612872    -2.20e-02  2.99e-03  1.05e-02  1.42e-02  0.700   0.2
    4    -486.9100401574589227    -1.56e-02  5.07e-03  2.31e-02  1.89e-02  0.000   0.2
    5    -486.9551217596300035    -4.51e-02  2.08e-03  7.40e-03  1.56e-02  0.000   0.2
    6    -486.9573903208778916    -2.27e-03  8.72e-04  3.33e-03  6.44e-03  0.000   0.2
                              *** Initializing SOSCF ***
---------------------------------------S-O-S-C-F--------------------------------------
Iteration    Energy (Eh)           Delta-E    RMSDP     MaxDP     MaxGrad    Time(sec)
--------------------------------------------------------------------------------------
    7    -486.9577574281642569    -3.67e-04  3.78e-04  1.49e-03  2.61e-03     0.2
               *** Restarting incremental Fock matrix formation ***
    8    -486.9578198892581327    -6.25e-05  7.34e-04  2.78e-03  1.71e-03     0.1
    9    -486.9577649763212435     5.49e-05  5.04e-04  2.71e-03  3.57e-03     0.2
   10    -486.9578345665237862    -6.96e-05  7.78e-05  5.09e-04  1.37e-04     0.1
   11    -486.9578347547370072    -1.88e-07  2.73e-05  1.97e-04  7.29e-05     0.2
   12    -486.9578348290307872    -7.43e-08  5.49e-06  3.55e-05  9.82e-06     0.1
   13    -486.9578348302057407    -1.17e-09  1.26e-06  6.75e-06  4.99e-06     0.1
                 **** Energy Check signals convergence ****

               *****************************************************
               *                     SUCCESS                       *
               *           SCF CONVERGED AFTER  13 CYCLES          *
               *****************************************************

             **** ENERGY FILE WAS UPDATED (/cluster/projects/nn14654k/ylvaos/basis_set_n_funcs/functionals/lda_x/PO2/inp/PO2_lda_x_def2svp.en.tmp) ****

----------------
TOTAL SCF ENERGY
----------------

Total Energy       :       -486.95783483043266 Eh          -13250.79634 eV

Components:
Nuclear Repulsion  :         99.08629604629714 Eh            2696.27519 eV
Electronic Energy  :       -586.04413087672981 Eh          -15947.07153 eV
One Electron Energy:       -874.22100653350094 Eh          -23788.76299 eV
Two Electron Energy:        288.17687565677113 Eh            7841.69145 eV

Virial components:
Potential Energy   :       -975.70169272887324 Eh          -26550.19284 eV
Kinetic Energy     :        488.74385789844052 Eh           13299.39650 eV
Virial Ratio       :          1.99634568692958

DFT components:
N(Alpha)           :       15.999999158512 electrons
N(Beta)            :       15.000000154239 electrons
N(Total)           :       30.999999312751 electrons
E(X)               :      -35.742672197891 Eh       
E(C)               :        0.000000000000 Eh       
E(XC)              :      -35.742672197891 Eh       

---------------
SCF CONVERGENCE
---------------

  Last Energy change         ...    1.1750e-09  Tolerance :   1.0000e-08
  Last MAX-Density change    ...    6.7470e-06  Tolerance :   1.0000e-07
  Last RMS-Density change    ...    1.2551e-06  Tolerance :   5.0000e-09
  Last DIIS Error            ...    2.6117e-03  Tolerance :   5.0000e-07
  Last Orbital Gradient      ...    4.9923e-06  Tolerance :   1.0000e-05
  Last Orbital Rotation      ...    6.5360e-06  Tolerance :   1.0000e-05


----------------------
UHF SPIN CONTAMINATION
----------------------

Warning: in a DFT calculation there is little theoretical justification to 
         calculate <S**2> as in Hartree-Fock theory. We will do it anyways
         but you should keep in mind that the values have only limited relevance

Expectation value of <S**2>     :     0.751948
Ideal value S*(S+1) for S=0.5   :     0.750000
Deviation                       :     0.001948

----------------
ORBITAL ENERGIES
----------------
                 SPIN UP ORBITALS
  NO   OCC          E(Eh)            E(eV) 
   0   1.0000     -75.985486     -2067.6702 
   1   1.0000     -18.584079      -505.6985 
   2   1.0000     -18.584061      -505.6980 
   3   1.0000      -6.309502      -171.6903 
   4   1.0000      -4.562832      -124.1610 
   5   1.0000      -4.560947      -124.1097 
   6   1.0000      -4.560752      -124.1044 
   7   1.0000      -0.919207       -25.0129 
   8   1.0000      -0.869382       -23.6571 
   9   1.0000      -0.447666       -12.1816 
  10   1.0000      -0.357042        -9.7156 
  11   1.0000      -0.354260        -9.6399 
  12   1.0000      -0.351944        -9.5769 
  13   1.0000      -0.279277        -7.5995 
  14   1.0000      -0.269775        -7.3409 
  15   1.0000      -0.210895        -5.7387 
  16   0.0000      -0.068095        -1.8530 
  17   0.0000       0.044122         1.2006 
  18   0.0000       0.146869         3.9965 
  19   0.0000       0.244157         6.6438 
  20   0.0000       0.464600        12.6424 
  21   0.0000       0.475323        12.9342 
  22   0.0000       0.507097        13.7988 
  23   0.0000       0.511633        13.9222 
  24   0.0000       0.541039        14.7224 
  25   0.0000       0.585641        15.9361 
  26   0.0000       0.782746        21.2996 

                 SPIN DOWN ORBITALS
  NO   OCC          E(Eh)            E(eV) 
   0   1.0000     -75.983534     -2067.6171 
   1   1.0000     -18.576002      -505.4787 
   2   1.0000     -18.575983      -505.4782 
   3   1.0000      -6.306659      -171.6129 
   4   1.0000      -4.560001      -124.0839 
   5   1.0000      -4.558919      -124.0545 
   6   1.0000      -4.555877      -123.9717 
   7   1.0000      -0.902740       -24.5648 
   8   1.0000      -0.851994       -23.1839 
   9   1.0000      -0.423055       -11.5119 
  10   1.0000      -0.341917        -9.3040 
  11   1.0000      -0.335666        -9.1339 
  12   1.0000      -0.333205        -9.0670 
  13   1.0000      -0.270177        -7.3519 
  14   1.0000      -0.255971        -6.9653 
  15   0.0000      -0.163251        -4.4423 
  16   0.0000      -0.043687        -1.1888 
  17   0.0000       0.060313         1.6412 
  18   0.0000       0.172938         4.7059 
  19   0.0000       0.267027         7.2662 
  20   0.0000       0.480976        13.0880 
  21   0.0000       0.493174        13.4199 
  22   0.0000       0.544315        14.8116 
  23   0.0000       0.550199        14.9717 
  24   0.0000       0.562023        15.2934 
  25   0.0000       0.599312        16.3081 
*Only the first 10 virtual orbitals were printed.

                    ********************************
                    * MULLIKEN POPULATION ANALYSIS *
                    ********************************

--------------------------------------------
MULLIKEN ATOMIC CHARGES AND SPIN POPULATIONS
--------------------------------------------
   0 P :    0.549310    0.590434
   1 O :   -0.274655    0.204783
   2 O :   -0.274655    0.204783
Sum of atomic charges         :    0.0000000
Sum of atomic spin populations:    1.0000000

-----------------------------------------------------
MULLIKEN REDUCED ORBITAL CHARGES AND SPIN POPULATIONS
-----------------------------------------------------
CHARGE
  0 P s       :     5.585764  s :     5.585764
      pz      :     2.905579  p :     8.388564
      px      :     2.809055
      py      :     2.673931
      dz2     :     0.067920  d :     0.476362
      dxz     :     0.012017
      dyz     :     0.147325
      dx2y2   :     0.114507
      dxy     :     0.134593

  1 O s       :     3.816915  s :     3.816915
      pz      :     1.525551  p :     4.444332
      px      :     1.517902
      py      :     1.400879
      dz2     :     0.001945  d :     0.013408
      dxz     :     0.000586
      dyz     :     0.003811
      dx2y2   :     0.003386
      dxy     :     0.003680

  2 O s       :     3.816915  s :     3.816915
      pz      :     1.525551  p :     4.444332
      px      :     1.517902
      py      :     1.400879
      dz2     :     0.001945  d :     0.013408
      dxz     :     0.000586
      dyz     :     0.003811
      dx2y2   :     0.003386
      dxy     :     0.003680


SPIN
  0 P s       :     0.322747  s :     0.322747
      pz      :     0.166555  p :     0.185258
      px      :     0.027050
      py      :    -0.008348
      dz2     :     0.025808  d :     0.082430
      dxz     :    -0.002730
      dyz     :     0.000187
      dx2y2   :     0.058387
      dxy     :     0.000778

  1 O s       :    -0.008398  s :    -0.008398
      pz      :     0.181599  p :     0.212892
      px      :    -0.012609
      py      :     0.043902
      dz2     :     0.000034  d :     0.000288
      dxz     :     0.000031
      dyz     :     0.000087
      dx2y2   :     0.000107
      dxy     :     0.000029

  2 O s       :    -0.008398  s :    -0.008398
      pz      :     0.181599  p :     0.212892
      px      :    -0.012609
      py      :     0.043902
      dz2     :     0.000034  d :     0.000288
      dxz     :     0.000031
      dyz     :     0.000087
      dx2y2   :     0.000107
      dxy     :     0.000029



                     *******************************
                     * LOEWDIN POPULATION ANALYSIS *
                     *******************************

-------------------------------------------
LOEWDIN ATOMIC CHARGES AND SPIN POPULATIONS
-------------------------------------------
   0 P :    0.551650    0.584884
   1 O :   -0.275825    0.207558
   2 O :   -0.275825    0.207558

----------------------------------------------------
LOEWDIN REDUCED ORBITAL CHARGES AND SPIN POPULATIONS
----------------------------------------------------
CHARGE
  0 P s       :     5.263592  s :     5.263592
      pz      :     2.944828  p :     8.507517
      px      :     2.789395
      py      :     2.773294
      dz2     :     0.090498  d :     0.677242
      dxz     :     0.012900
      dyz     :     0.213240
      dx2y2   :     0.191529
      dxy     :     0.169074

  1 O s       :     3.656760  s :     3.656760
      pz      :     1.552982  p :     4.598311
      px      :     1.509695
      py      :     1.535634
      dz2     :     0.002456  d :     0.020754
      dxz     :     0.000620
      dyz     :     0.006906
      dx2y2   :     0.006772
      dxy     :     0.003999

  2 O s       :     3.656760  s :     3.656760
      pz      :     1.552982  p :     4.598311
      px      :     1.509695
      py      :     1.535634
      dz2     :     0.002456  d :     0.020754
      dxz     :     0.000620
      dyz     :     0.006906
      dx2y2   :     0.006772
      dxy     :     0.003999


SPIN
  0 P s       :     0.251219  s :     0.251219
      pz      :     0.184723  p :     0.200904
      px      :     0.023731
      py      :    -0.007550
      dz2     :     0.041186  d :     0.132762
      dxz     :    -0.002557
      dyz     :    -0.000242
      dx2y2   :     0.094008
      dxy     :     0.000367

  1 O s       :     0.007219  s :     0.007219
      pz      :     0.171650  p :     0.200220
      px      :    -0.010858
      py      :     0.039429
      dz2     :     0.000069  d :     0.000119
      dxz     :     0.000037
      dyz     :    -0.000025
      dx2y2   :    -0.000013
      dxy     :     0.000051

  2 O s       :     0.007219  s :     0.007219
      pz      :     0.171650  p :     0.200220
      px      :    -0.010858
      py      :     0.039429
      dz2     :     0.000069  d :     0.000119
      dxz     :     0.000037
      dyz     :    -0.000025
      dx2y2   :    -0.000013
      dxy     :     0.000051



                      *****************************
                      * MAYER POPULATION ANALYSIS *
                      *****************************

  NA   - Mulliken gross atomic population
  ZA   - Total nuclear charge
  QA   - Mulliken gross atomic charge
  VA   - Mayer's total valence
  BVA  - Mayer's bonded valence
  FA   - Mayer's free valence

  ATOM       NA         ZA         QA         VA         BVA        FA
  0 P     14.4507    15.0000     0.5493     4.3607     4.0170     0.3437
  1 O      8.2747     8.0000    -0.2747     2.2763     2.2268     0.0495
  2 O      8.2747     8.0000    -0.2747     2.2763     2.2268     0.0495

  Mayer bond orders larger than 0.100000
B(  0-P ,  1-O ) :   2.0085 B(  0-P ,  2-O ) :   2.0085 B(  1-O ,  2-O ) :   0.2183 


-------
TIMINGS
-------

Total SCF time: 0 days 0 hours 0 min 2 sec 

Total time                  ....       2.344 sec
Sum of individual times     ....       2.211 sec  ( 94.3%)

SCF preparation             ....       0.090 sec  (  3.9%)
Fock matrix formation       ....       1.174 sec  ( 50.1%)
  Startup                   ....       0.033 sec  (  2.8% of F)
  Coulomb formation         ....       0.103 sec  (  8.7% of F)
  XC integration            ....       0.493 sec  ( 42.0% of F)
    XC Preparation          ....       0.000 sec  (  0.0% of XC)
    Basis function eval.    ....       0.013 sec  (  2.6% of XC)
    Density eval.           ....       0.007 sec  (  1.5% of XC)
    XC-Functional eval.     ....       0.008 sec  (  1.7% of XC)
    XC-Potential eval.      ....       0.011 sec  (  2.3% of XC)
Diagonalization             ....       0.000 sec  (  0.0%)
Density matrix formation    ....       0.298 sec  ( 12.7%)
Total Energy calculation    ....       0.052 sec  (  2.2%)
Population analysis         ....       0.015 sec  (  0.6%)
Orbital Transformation      ....       0.041 sec  (  1.8%)
Orbital Orthonormalization  ....       0.000 sec  (  0.0%)
DIIS solution               ....       0.411 sec  ( 17.5%)
SOSCF solution              ....       0.129 sec  (  5.5%)
Finished LeanSCF after   2.5 sec

Maximum memory used throughout the entire LEANSCF-calculation: 6.3 MB


           ************************************************************
           *        Program running with 8 parallel MPI-processes     *
           *              working on a common directory               *
           ************************************************************

------------------------------------------------------------------------------
                         ORCA PROPERTY INTEGRAL CALCULATIONS
------------------------------------------------------------------------------

GBWName                                   ... /cluster/projects/nn14654k/ylvaos/basis_set_n_funcs/functionals/lda_x/PO2/inp/PO2_lda_x_def2svp.gbw
Number of atoms                           ...      3
Number of basis functions                 ...     46
Max core memory                           ...   4096 MB

Dipole integrals                          ... YES
Quadrupole integrals                      ... YES
Linear momentum integrals                 ...  NO
Angular momentum integrals                ...  NO
Higher moments length integrals           ...  NO
Higher moments velocity integrals         ...  NO
Kinetic energy integrals                  ...  NO
GIAO right hand sides                     ...  NO
GIAO dipole derivative integrals          ...  NO
SOC integrals                             ...  NO
EPR diamagnetic integrals (GIAO)          ...  NO
EPR gauge integrals                       ...  NO
Field gradient integrals                  ...  NO (   0 nuclei)
Spin-dipole/Fermi contact integrals       ...  NO (   0 nuclei)
Contact density integrals                 ...  NO (   0 nuclei)
Nucleus-orbit integrals                   ...  NO (   0 nuclei)
Geometric perturbations                   ...  NO (   3 nuclei)

Choice of electric origin   ... Center of mass
Position of electric origin ... (  0.0000,  0.0000,  0.0084) 
Choice of magnetic origin   ... GIAO
Position of magnetic origin ... (  0.0000,  0.0000,  0.0000) 

Calculating integrals                     ... Electric Dipole (Length)     done (  0.0 sec)
Calculating integrals                     ... Electric Quadrupole (Length) done (  0.0 sec)

Property integrals calculated in   0.0 sec

Maximum memory used throughout the entire PROPINT-calculation: 3.9 MB
------------------------------------------------------------------------------
                           ORCA ORBITAL LOCALIZATION
------------------------------------------------------------------------------

Input orbitals are from                  ... /cluster/projects/nn14654k/ylvaos/basis_set_n_funcs/functionals/lda_x/PO2/inp/PO2_lda_x_def2svp.gbw
Output orbitals are to                   ... /cluster/projects/nn14654k/ylvaos/basis_set_n_funcs/functionals/lda_x/PO2/inp/PO2_lda_x_def2svp.loc
Max. number of iterations                ... 128
Localizations seeded randomly            ... on
Convergence tolerance                    ... 1.000e-06
Threshold for strong local MOs           ... 9.500e-01
Threshold for bond MOs                   ... 8.500e-01
Operator                                 ... 0
Orbital range for localization           ... 4 to 15
Localization criterion                   ... NEW-BOYS
Doing the dipole integrals               ... o.k.
Initial value of the localization sum :    37.922800
ITERATION   0 : L=   47.2828066797 DL=  9.36e+00 (AVERGE_DL)=    0.3765876859 
ITERATION   1 : L=   49.6261186821 DL=  2.34e+00 (AVERGE_DL)=    0.1884269814 
ITERATION   2 : L=   49.7933298476 DL=  1.67e-01 (AVERGE_DL)=    0.0503339101 
ITERATION   3 : L=   49.8280375725 DL=  3.47e-02 (AVERGE_DL)=    0.0229319563 
ITERATION   4 : L=   49.8362234784 DL=  8.19e-03 (AVERGE_DL)=    0.0111368253 
ITERATION   5 : L=   49.8381324924 DL=  1.91e-03 (AVERGE_DL)=    0.0053781460 
ITERATION   6 : L=   49.8385614584 DL=  4.29e-04 (AVERGE_DL)=    0.0025494088 
ITERATION   7 : L=   49.8386549418 DL=  9.35e-05 (AVERGE_DL)=    0.0011901327 
ITERATION   8 : L=   49.8386749344 DL=  2.00e-05 (AVERGE_DL)=    0.0005503799 
ITERATION   9 : L=   49.8386791568 DL=  4.22e-06 (AVERGE_DL)=    0.0002529342 
ITERATION  10 : L=   49.8386800409 DL=  8.84e-07 (AVERGE_DL)=    0.0001157357 
LOCALIZATION SUM CONVERGED


--------------------------------------------------------------------------------
                    LOCALIZED MOLECULAR ORBITAL COMPOSITIONS
--------------------------------------------------------------------------------

The Mulliken populations for each LMO on each atom are computed
The LMO`s will be ordered according to atom index and type
  (A) Strongly localized MO`s have populations of >=0.950 on one atom
  (B) Two center bond orbitals have populations of >=0.850 on two atoms
  (C) Other MO`s are considered to be `delocalized`

FOUND  -   6 strongly local MO`s
       -   6 two center bond MO`s
       -   0 significantly delocalized MO`s

Rather strongly localized orbitals:
MO   9:   2O  -   0.966238
MO   8:   1O  -   0.966237
MO   7:   0P  -   1.034588
MO   6:   0P  -   1.000582
MO   5:   0P  -   1.003072
MO   4:   0P  -   1.000582
Bond-like localized orbitals:
MO  15:   2O  -   0.712940  and   0P  -   0.284512
MO  14:   2O  -   0.867566  and   0P  -   0.134291
MO  13:   2O  -   0.712945  and   0P  -   0.284506
MO  12:   1O  -   0.712937  and   0P  -   0.284515
MO  11:   1O  -   0.867571  and   0P  -   0.134287
MO  10:   1O  -   0.712944  and   0P  -   0.284507
Localized MO's were stored in: /cluster/projects/nn14654k/ylvaos/basis_set_n_funcs/functionals/lda_x/PO2/inp/PO2_lda_x_def2svp.loc
------------------------------------------------------------------------------
                           ORCA ORBITAL LOCALIZATION
------------------------------------------------------------------------------

Input orbitals are from                  ... /cluster/projects/nn14654k/ylvaos/basis_set_n_funcs/functionals/lda_x/PO2/inp/PO2_lda_x_def2svp.loc
Output orbitals are to                   ... /cluster/projects/nn14654k/ylvaos/basis_set_n_funcs/functionals/lda_x/PO2/inp/PO2_lda_x_def2svp.loc
Max. number of iterations                ... 128
Localizations seeded randomly            ... on
Convergence tolerance                    ... 1.000e-06
Threshold for strong local MOs           ... 9.500e-01
Threshold for bond MOs                   ... 8.500e-01
Operator                                 ... 1
Orbital range for localization           ... 4 to 14
Localization criterion                   ... NEW-BOYS
Doing the dipole integrals               ... o.k.
Initial value of the localization sum :    27.441757
ITERATION   0 : L=   38.2707230711 DL=  1.08e+01 (AVERGE_DL)=    0.4437232155 
ITERATION   1 : L=   42.1615050696 DL=  3.89e+00 (AVERGE_DL)=    0.2659727258 
ITERATION   2 : L=   42.5136817473 DL=  3.52e-01 (AVERGE_DL)=    0.0800200745 
ITERATION   3 : L=   42.5614831097 DL=  4.78e-02 (AVERGE_DL)=    0.0294807680 
ITERATION   4 : L=   42.5655367660 DL=  4.05e-03 (AVERGE_DL)=    0.0085850359 
ITERATION   5 : L=   42.5672913600 DL=  1.75e-03 (AVERGE_DL)=    0.0056481598 
ITERATION   6 : L=   42.5685261175 DL=  1.23e-03 (AVERGE_DL)=    0.0047381575 
ITERATION   7 : L=   42.5694411690 DL=  9.15e-04 (AVERGE_DL)=    0.0040788848 
ITERATION   8 : L=   42.5701216687 DL=  6.80e-04 (AVERGE_DL)=    0.0035174878 
ITERATION   9 : L=   42.5706249955 DL=  5.03e-04 (AVERGE_DL)=    0.0030251274 
ITERATION  10 : L=   42.5709956258 DL=  3.71e-04 (AVERGE_DL)=    0.0025959071 
ITERATION  11 : L=   42.5712677404 DL=  2.72e-04 (AVERGE_DL)=    0.0022243062 
ITERATION  12 : L=   42.5714671782 DL=  1.99e-04 (AVERGE_DL)=    0.0019042430 
ITERATION  13 : L=   42.5716132274 DL=  1.46e-04 (AVERGE_DL)=    0.0016295522 
ITERATION  14 : L=   42.5717201494 DL=  1.07e-04 (AVERGE_DL)=    0.0013942871 
ITERATION  15 : L=   42.5717984425 DL=  7.83e-05 (AVERGE_DL)=    0.0011931094 
ITERATION  16 : L=   42.5718557923 DL=  5.73e-05 (AVERGE_DL)=    0.0010211382 
ITERATION  17 : L=   42.5718978327 DL=  4.20e-05 (AVERGE_DL)=    0.0008742831 
ITERATION  18 : L=   42.5719286690 DL=  3.08e-05 (AVERGE_DL)=    0.0007487723 
ITERATION  19 : L=   42.5719513092 DL=  2.26e-05 (AVERGE_DL)=    0.0006415920 
ITERATION  20 : L=   42.5719679436 DL=  1.66e-05 (AVERGE_DL)=    0.0005499486 
ITERATION  21 : L=   42.5719801796 DL=  1.22e-05 (AVERGE_DL)=    0.0004716708 
ITERATION  22 : L=   42.5719891851 DL=  9.01e-06 (AVERGE_DL)=    0.0004046435 
ITERATION  23 : L=   42.5719958202 DL=  6.64e-06 (AVERGE_DL)=    0.0003473293 
ITERATION  24 : L=   42.5720007130 DL=  4.89e-06 (AVERGE_DL)=    0.0002982634 
ITERATION  25 : L=   42.5720043241 DL=  3.61e-06 (AVERGE_DL)=    0.0002562327 
ITERATION  26 : L=   42.5720069912 DL=  2.67e-06 (AVERGE_DL)=    0.0002202135 
ITERATION  27 : L=   42.5720089634 DL=  1.97e-06 (AVERGE_DL)=    0.0001893598 
ITERATION  28 : L=   42.5720104221 DL=  1.46e-06 (AVERGE_DL)=    0.0001628545 
ITERATION  29 : L=   42.5720115025 DL=  1.08e-06 (AVERGE_DL)=    0.0001401591 
ITERATION  30 : L=   42.5720123031 DL=  8.01e-07 (AVERGE_DL)=    0.0001206518 
LOCALIZATION SUM CONVERGED


--------------------------------------------------------------------------------
                    LOCALIZED MOLECULAR ORBITAL COMPOSITIONS
--------------------------------------------------------------------------------

The Mulliken populations for each LMO on each atom are computed
The LMO`s will be ordered according to atom index and type
  (A) Strongly localized MO`s have populations of >=0.950 on one atom
  (B) Two center bond orbitals have populations of >=0.850 on two atoms
  (C) Other MO`s are considered to be `delocalized`

FOUND  -   5 strongly local MO`s
       -   6 two center bond MO`s
       -   0 significantly delocalized MO`s

Rather strongly localized orbitals:
MO   8:   2O  -   0.959672
MO   7:   1O  -   0.959678
MO   6:   0P  -   1.002710
MO   5:   0P  -   1.000329
MO   4:   0P  -   1.000329
Bond-like localized orbitals:
MO  14:   2O  -   0.542886  and   0P  -   0.446017
MO  13:   2O  -   0.760294  and   0P  -   0.237352
MO  12:   2O  -   0.760047  and   0P  -   0.237607
MO  11:   1O  -   0.542878  and   0P  -   0.446026
MO  10:   1O  -   0.759875  and   0P  -   0.237771
MO   9:   1O  -   0.760469  and   0P  -   0.237182
Localized MO's were stored in: /cluster/projects/nn14654k/ylvaos/basis_set_n_funcs/functionals/lda_x/PO2/inp/PO2_lda_x_def2svp.loc

-------------------------   --------------------
FINAL SINGLE POINT ENERGY      -486.957834830433
-------------------------   --------------------



           ************************************************************
           *        Program running with 8 parallel MPI-processes     *
           *              working on a common directory               *
           ************************************************************

------------------------------------------------------------------------------
                              ORCA PROPERTY CALCULATIONS
------------------------------------------------------------------------------

GBWName                                 ... /cluster/projects/nn14654k/ylvaos/basis_set_n_funcs/functionals/lda_x/PO2/inp/PO2_lda_x_def2svp.gbw
Number of atoms                         ...      3
Number of basis functions               ...     46
Max core memory                         ...   4096 MB

Electric properties:
Dipole moment                           ... YES
Quadrupole moment                       ... YES
Static polarizability (Dipole/Dipole)   ...  NO
Static polarizability (Dipole/Quad.)    ...  NO
Static polarizability (Quad./Quad.)     ...  NO
Static polarizability (Velocity)        ...  NO
Static hyperpolarizability              ...  NO

Atomic electric properties:
Dipole moment                           ...  NO
Quadrupole moment                       ...  NO
Static polarizability                   ...  NO

Choice of electric origin               ... Center of mass
Position of electric origin             ...     0.000000     0.000000     0.008437

General magnetic properties:
Magnetizability                         ...  NO

EPR properties:
g-Tensor (aka g-matrix)                 ...  NO
Zero-Field splitting spin-orbit         ...  NO
Zero-field splitting spin-spin          ...  NO
Hyperfine couplings                     ...  NO (   0 nuclei)
Quadrupole couplings                    ...  NO (   0 nuclei)
Contact density                         ...  NO (   0 nuclei)

NMR properties:
Chemical shifts                         ...  NO (   0 nuclei)
Spin-rotation constants                 ...  NO (   0 nuclei)
Spin-spin couplings                     ...  NO (   0 nuclei,    0 pairs)

Choice of magnetic origin               ... GIAO
Position of magnetic origin             ...     0.000000     0.000000     0.000000

Properties with geometric perturbations:
SCF Hessian                             ...  NO
IR spectrum                             ...  NO
VCD spectrum                            ...  NO
X-ray spectroscopy properties:
SCF XES/XAS/RIXS spectra                ...  NO

SCF SOC stabilization energy            ...  NO
Diagonal Born-Oppenheimer correction    ...  NO

-------------
DIPOLE MOMENT
-------------

Method             : SCF
Type of density    : Electron Density
Multiplicity       :   2
Irrep              :   0
Energy             :  -486.9578348304326596 Eh
Basis              : AO
                                X                 Y                 Z
Electronic contribution:      0.000000001      -0.000000001       0.698573291
Nuclear contribution   :      0.000000000       0.000000000      -0.261362976
                        -----------------------------------------
Total Dipole Moment    :      0.000000001      -0.000000001       0.437210315
                        -----------------------------------------
Magnitude (a.u.)       :      0.437210315
Magnitude (Debye)      :      1.111300304



--------------------
Rotational spectrum 
--------------------
 
Rotational constants in cm-1:             3.442444             0.286393             0.264396 
Rotational constants in MHz :        103201.869580          8585.841533          7926.407020 

Dipole components along the rotational axes: 
x,y,z [a.u.] :    -0.000000     0.437210     0.000000 
x,y,z [Debye]:    -0.000000     1.111300     0.000000 

 

Dipole moment calculation done in   0.0 sec 

-----------------
QUADRUPOLE MOMENT
-----------------

Method             : SCF
Type of density    : Electron Density
Multiplicity       :   2
Irrep              :   0
Energy             :  -486.9578348304326596 Eh
Basis              : AO

                XX              YY              ZZ              XY              XZ              YZ
  NUC        0.000000000   105.106420135     8.604299986     0.000000000     0.000000000     0.000000000
  EL       -15.529994204  -125.704332341   -24.834211050     0.000000001     0.000000000     0.000000002
  TOT      -15.529994204   -20.597912206   -16.229911065     0.000000001     0.000000000     0.000000002 (a.u.)
           -20.888373331   -27.704896365   -21.829785445     0.000000001     0.000000000     0.000000002 (Buckingham)

diagonalized tensor:
           -20.597912206   -16.229911065   -15.529994204 (a.u.)
           -27.704896365   -21.829785445   -20.888373331 (Buckingham)
           -12.691633955     4.933698806     7.757935149 (traceless form in Buckingham)

            -0.000000000     0.000000000     1.000000000
             1.000000000    -0.000000000     0.000000000
            -0.000000000    -1.000000000     0.000000000
        
Isotropic quadrupole :   -17.452605825

Quadrupole moment calculation done in   0.0 sec (  0.0 sec for integrals)

Maximum memory used throughout the entire PROP-calculation: 1.6 MB

--------------------------------
SUGGESTED CITATIONS FOR THIS RUN
--------------------------------

Below you find a list of papers that are relevant to this ORCA run
We neither can nor want to force you to cite these papers, but we appreciate if you do
You receive ORCA, which is the product of decades of hard work by many enthusiastic individuals, for free
The only thing we kindly ask in return is that you cite our papers,
We deeply appreciate it, if you show your appreciation for ORCA by not just citing the generic ORCA reference.

Please note that relegating all ORCA citations to the supporting information does *not* help us.
SI sections are not indexed - citations you put there will not count into any citation statistics
But we need these citations in order to attract the funding resources that allow us to do what we are doing

Therefore, if you are a happy ORCA user, please consider citing a few of the papers listed below in the main body of your paper

In addition to the list printed below, the program has created the file /cluster/projects/nn14654k/ylvaos/basis_set_n_funcs/functionals/lda_x/PO2/inp/PO2_lda_x_def2svp.bibtex that contains the list in bibtex format
You can import this file easily into all common literature databanks and citation aid programs

It goes without saying that in many instances, there are alternative algorithms to achieve similar
results as the ones you have gotten from ORCA. It is, of course, also the case that in some instances
ORCA just re-implements algorithms worked out by others. We are fully aware of that and we are also
fully appreciative of our colleagues work. Hence this citation list should not be read as indicating
that the listed papers, which are focused on our own work, are the only ones worth citing. It simply
meant to make it easier for users to cite ORCA specific papers. It is not a substitute for doing your
own literature research and citing the relevant literature in a scientifically appropriate manner.

List of essential papers. We consider these as the minimum necessary citations

  1. Neese, F.
     Software update: the ORCA program system, version 6.0
     WIRES Comput. Molec. Sci. 2025 15(1), e70019
     doi.org/10.1002/wcms.70019

List of papers to cite with high priority. The work reported in these papers was absolutely
necessary for this run to complete.
Our perspective: the developers of density functionals and basis sets usually get cited in chemistry papers
Good! But without the algorithms to do something with them, the functionals or basis sets would not do anything.
Hence, in our opinion, the algorithm design and method developments papers are equally worthy of getting cited

  1. Lehtola, S.; Steigemann, C.; Oliveira, M.; Marques, M.
     Recent developments in Libxc - A comprehensive library of functionals for density functional theory
     Software X 2018 7 , 
     doi.org/10.1016/j.softx.2017.11.002
  2. Neese, F.
     The SHARK Integral Generation and Digestion System
     J. Comp. Chem. 2022 44(3), 381
     doi.org/10.1002/jcc.26942

List of suggested additional citations. These are papers that are important in the 'surrounding' of 
of this run, or papers that preceded the highly important papers. If you like your results we are grateful for a citation.

  1. Neese, F.
     The ORCA program system
     WIRES Comput. Molec. Sci. 2012 2(1), 73-78
     doi.org/10.1002/wcms.81
  2. Neese, F.
     Software update: the ORCA program system, version 4.0
     WIRES Comput. Molec. Sci. 2018 8(1), 1-6
     doi.org/10.1002/wcms.1327
  3. Neese, F.; Wennmohs, F.; Becker, U.; Riplinger, C.
     The ORCA quantum chemistry program package
     J. Chem. Phys. 2020 152(22), 224108
     doi.org/10.1063/5.0004608
  4. Neese, F.
     Software update: The ORCA program system—Version 5.0
     WIRES Comput. Molec. Sci. 2022 12(1), e1606
     doi.org/10.1002/wcms.1606

List of optional additional citations

  1. Neese, F.
     Approximate second-order SCF convergence for spin unrestricted wavefunctions
     Chem. Phys. Lett. 2000 325(1-3), 93-98
     doi.org/10.1016/s0009-2614(00)00662-x

Timings for individual modules:

Sum of individual times          ...        4.248 sec (=   0.071 min)
Startup calculation              ...        0.527 sec (=   0.009 min)  12.4 %
SCF iterations                   ...        3.148 sec (=   0.052 min)  74.1 %
Property integrals               ...        0.277 sec (=   0.005 min)   6.5 %
Property calculations            ...        0.290 sec (=   0.005 min)   6.8 %
Orbital localization             ...        0.007 sec (=   0.000 min)   0.2 %
                             ****ORCA TERMINATED NORMALLY****
TOTAL RUN TIME: 0 days 0 hours 0 minutes 6 seconds 588 msec
