
                                 *****************
                                 * O   R   C   A *
                                 *****************

                                            #,                                       
                                            ###                                      
                                            ####                                     
                                            #####                                    
                                            ######                                   
                                           ########,                                 
                                     ,,################,,,,,                         
                               ,,#################################,,                 
                          ,,##########################################,,             
                       ,#########################################, ''#####,          
                    ,#############################################,,   '####,        
                  ,##################################################,,,,####,       
                ,###########''''           ''''###############################       
              ,#####''   ,,,,##########,,,,          '''####'''          '####       
            ,##' ,,,,###########################,,,                        '##       
           ' ,,###''''                  '''############,,,                           
         ,,##''                                '''############,,,,        ,,,,,,###''
      ,#''                                            '''#######################'''  
     '                                                          ''''####''''         
             ,#######,   #######,   ,#######,      ##                                
            ,#'     '#,  ##    ##  ,#'     '#,    #''#        ,####,    ,#,          
            ##       ##  ##   ,#'  ##            #'  '#       #'       ,# #          
            ##       ##  #######   ##           ,######,      #####,      #          
            '#,     ,#'  ##    ##  '#,     ,#' ,#      #,     #,   #      #          
             '#######'   ##     ##  '#######'  #'      '#     '####' #    #          



                #########################################################
                #                        -***-                          #
                #          Department of theory and spectroscopy        #
                #                                                       #
                #                      Frank Neese                      #
                #                                                       #
                #     Directorship, Architecture, Infrastructure        #
                #                    SHARK, DRIVERS                     #
                #        Core code/Algorithms in most modules           #
                #                                                       #
                #        Max Planck Institute fuer Kohlenforschung      #
                #                Kaiser Wilhelm Platz 1                 #
                #                 D-45470 Muelheim/Ruhr                 #
                #                      Germany                          #
                #                                                       #
                #                  All rights reserved                  #
                #                        -***-                          #
                #########################################################


                         Program Version 6.1.1  -  RELEASE   -
                                (GIT: $487d211c$)
                          ($2025-11-21 10:33:24 +0100$)


 With contributions from (in alphabetic order):
[Max-Planck-Institut fuer Kohlenforschung]                               
  Daniel Aravena         : Magnetic Suceptibility                        
  Michael Atanasov       : Ab Initio Ligand Field Theory (pilot matlab implementation)
  Alexander A. Auer      : GIAO ZORA, VPT2 properties, NMR spectrum      
  Ute Becker             : All parallelization in ORCA, NUMFREQ, NUMCALC 
  Giovanni Bistoni       : ED, misc. LED, open-shell LED, HFLD           
  Dmytro Bykov           : pre 5.0 version of the SCF Hessian            
  Marcos Casanova-Páez   : Triplet and SCS-CIS(D). UHF-(DLPNO)-IP/EA/STEOM-CCSD. UHF-CVS-IP/STEOM-CCSD   
  Vijay G. Chilkuri      : MRCI spin determinant printing, contributions to CSF-ICE 
  Pauline Colinet        : FMM embedding                                 
  Dipayan Datta          : RHF DLPNO-CCSD density                        
  Achintya Kumar Dutta   : EOM-CC, STEOM-CC                              
  Nicolas Foglia         : Exact transition moments, OPA infrastructure, MCD improvements    
  Dmitry Ganyushin       : Spin-Orbit,Spin-Spin,Magnetic field MRCI      
  Miquel Garcia-Rates    : C-PCM and meta-GGA Hessian, CCSD/C-PCM, Gaussian charge scheme 
  Tiago L. C. Gouveia    : GS-ROHF, GS-ROCIS                             
  Yang Guo               : DLPNO-NEVPT2, F12-NEVPT2, CIM, IAO-localization        
  Andreas Hansen         : Spin unrestricted coupled pair/coupled cluster methods 
  Ingolf Harden          : AUTO-CI MPn and infrastructure                
  Benjamin Helmich-Paris : MC-RPA, TRAH-(SCF,CASSCF), AVAS, COSX integrals, SCF dyn. polar., MC-PDFT, srDFT 
  Lee Huntington         : MR-EOM, pCC                                   
  Robert Izsak           : Overlap fitted RIJCOSX, COSX-SCS-MP3, EOM     
  Riya Kayal             : Wick's Theorem for AUTO-CI, AUTO-CI UHF-CCSDT 
  Emily Kempfer          : AUTO-CI RHF CISDT and CCSDT, approximate NEVPT4
  Christian Kollmar      : KDIIS, OOCD, Brueckner-CCSD(T), CCSD density, CASPT2, CASPT2-K, improved NEVPT2 
  Axel Koslowski         : Symmetry handling                             
  Simone Kossmann        : meta-GGA functionals, TD-DFT gradient, OOMP2, (MP2 Hessian; deprecated post 5.0) 
  Lucas Lang             : DCDCAS, Hyperfine gauge corrections, ICE-SOC+SSC
  Marvin Lechner         : AUTO-CI (C++ implementation), FIC-MRCC        
  Spencer Leger          : CASSCF response                               
  Dagmar Lenk            : GEPOL surface, SMD, ORCA-2-JSON               
  Dimitrios Liakos       : Extrapolation schemes; Compound Job, Property file
  Dimitrios Manganas     : Further ROCIS development; embedding schemes. LFT, Crystal Embedding 
  Dimitrios Pantazis     : SARC Basis sets                               
  Anastasios Papadopoulos: AUTO-CI, single reference methods and gradients 
  Taras Petrenko         : pre 6.0 DFT Hessian and TD-DFT gradient,  ECA, NRVS 
  Petra Pikulova         : Analytic Raman intensities                    
  Peter Pinski           : DLPNO-MP2, DLPNO-MP2 Gradient                 
  Shashank Vittal Rao    : ES-AILFT, MagRelax                            
  Christoph Reimann      : Effective Core Potentials                     
  Marius Retegan         : Local ZFS, SOC                                
  Christoph Riplinger    : Optimizer, TS searches, QM/MM, DLPNO-CCSD(T), (RO)-DLPNO pert. Triples 
  Michael Roemelt        : Original ROCIS implementation, recursive CI coupling coefficients
  Masaaki Saitow         : Open-shell DLPNO-CCSD energy and density      
  Barbara Sandhoefer     : DKH picture change effects                    
  Yorick L. A. Schmerwitz: GMF and freeze-and-release deltaSCF, NEB S-IDPP initial path                    
  Kantharuban Sivalingam : CASSCF convergence/infrastructure, NEVPT2, NEVPT3, NEVPT4(SD), FIC-MRCI and CEPA variants
  Bernardo de Souza      : ESD, SOC TD-DFT                               
  Georgi L. Stoychev     : AutoAux, RI-MP2 NMR, DLPNO-MP2 response, X2C  
  Van Anh Tran           : RI-MP2 g-tensors                              
  Willem Van den Heuvel  : Paramagnetic NMR                              
  Zikuan Wang            : NOTCH, Electric field optimization            
  Frank Wennmohs         : Technical directorship and infrastructure     
  Hang Xu                : AUTO-CI-Response properties                   
                                                                         
[FACCTs GmbH]                                                            
  Markus Bursch, Nicolas Foglia, Miquel Garcia-Rates, Ingolf Harden, Hagen Neugebauer, Anastasios Papadopoulos, 
  Christoph Riplinger, Bernardo de Souza, Georgi L. Stoychev                                                    
                                                                 
  APM, various basis sets, CI-OPT, improved COSX, DLPNO-Multilevel,           
  DOCKER, DRACO, updates on ESD, Fragmentator, GOAT, IRC, LR-CPCM, L-BFGS, MBIS, meta-GGA TD-DFT gradient, ML-optimized integration grids, 
  MM, NACMEs, nearIR, NEB, NEB-TS, NL-DFT gradient (VV10), 2- and 3-layer-ONIOM, interface openCOSMO-RS, QMMM,   
  Crystal-QMMM, RESP, rigid body optimization, SF, symmetry and pop. for TD-DFT, various functionals, SOLVATOR                                   
                                                                         
[Other institutions]                                                     
  V. Asgeirsson          : NEB                                           
  Christoph Bannwarth    : sTDA-DFT, sTD-DFT, PBEh-3c, B97-3c, D3        
  Giovanni Bistoni       : ETS/NOCV, ADLD/ADEX, COVALED                  
  Martin Brehm           : Molecular dynamics                            
  Ronald Cardenas        : ETS/NOCV                                      
  Martina Colucci        : COVALED                                       
  Sebastian Ehlert       : rSCAN, r2SCAN, r2SCAN-3c, D4, dhf basis sets  
  Marvin Friede          : D4 for Fr, Ra, Ac-Lr                          
  Lars Goerigk           : TD-DFT with DH, B97 family of functionals     
  Stefan Grimme          : VdW corrections, initial TS optimization, DFT functionals, gCP, sTDA/sTD-DF 
  Waldemar Hujo          : DFT-NL                                        
  H. Jonsson             : NEB                                           
  Holger Kruse           : gCP                                           
  Marcel Mueller         : wB97X-3c, vDZP basis set                      
  Hagen Neugebauer       : wr2SCAN, Native XTB                           
  Gianluca Regni         : ADLD/ADEX                                     
  Tobias Risthaus        : pre 6.0 range-separated hybrid DFT and stability analysis
  Lukas Wittmann         : regularized MP2, r2SCAN double-hybrids, wr2SCAN        
                                                                         
We gratefully acknowledge several colleagues who have allowed us to      
interface, adapt or use parts of their codes:                            
  Ed Valeev, F. Pavosevic, A. Kumar             : LibInt (2-el integral package), F12 methods 
  Garnet Chan, S. Sharma, J. Yang, R. Olivares  : DMRG                   
  Ulf Ekstrom                                   : XCFun DFT Library      
  Mihaly Kallay                                 : mrcc  (arbitrary order and MRCC methods)
  Frank Weinhold                                : gennbo (NPA and NBO analysis)           
  Simon Mueller                                 : openCOSMO-RS                            
  Christopher J. Cramer and Donald G. Truhlar   : smd solvation model                     
  S Lehtola, MJT Oliveira, MAL Marques          : LibXC Library                           
  Liviu Ungur et al                             : ANISO software                          


 Your calculation uses the libint2 library for the computation of 2-el integrals
 For citations please refer to: http://libint.valeyev.net

 Your ORCA version has been built with support for libXC version: 7.0.0
 For citations please refer to: https://libxc.gitlab.io

 This ORCA versions uses:
   CBLAS   interface :  Fast vector & matrix operations
   LAPACKE interface :  Fast linear algebra routines
   SCALAPACK package :  Parallel linear algebra routines
   Shared memory     :  Shared parallel matrices
   BLAS/LAPACK       :  OpenBLAS 0.3.29  USE64BITINT DYNAMIC_ARCH NO_AFFINITY Cooperlake SINGLE_THREADED
        Core in use  :  Cooperlake
   Copyright (c) 2011-2014, The OpenBLAS Project


  ***********************************
  * Starting time: Wed May 20 12:39:34 2026
  * Host name:     c1-46
  * Process ID:    4000365
  * Working dir.:  /cluster/projects/nn14654k/ylvaos/basis_set_n_funcs/functionals/lda_x/PO2/out
  ***********************************

Using LibXC functional ID   1 : Slater exchange
[ 1]  P. A. M. Dirac.,  Math. Proc. Cambridge Philos. Soc. 26, 376 (1930)
[ 2]  F. Bloch.,  Z. Phys. 57, 545 (1929)
Using LibXC functional ID   1 : Slater exchange
[ 1]  P. A. M. Dirac.,  Math. Proc. Cambridge Philos. Soc. 26, 376 (1930)
[ 2]  F. Bloch.,  Z. Phys. 57, 545 (1929)
Your calculation utilizes LibXC
by S. Lehtola, C. Steigemann, M. J. T. Oliveira & M. A. L. Marques
Please cite in your paper:
Lehtola, S.; Steigemann, C.; Oliveira, M.J.T.; Marques, M. A. L. Software X, 7, (2018), 1.
   

================================================================================

----- Orbital basis set information -----
Your calculation utilizes the basis: pc-4
   H, C-F              : F. Jensen, J. Chem. Phys. 115, 9113 (2001).
                         F. Jensen, J. Chem. Phys. 116, 7372 (2002).
                         F. Jensen, J. Chem. Phys. 117, 9234 (2002).
   Si-Cl               : F. Jensen, T. Helgaker, J. Chem. Phys. 121, 3463 (2004).
   He-B, Ne-Mg, Al, Ar : F. Jensen, J. Phys. Chem. A 111, 11198 (2007).
   K, Ca, Ga-Kr        : F. Jensen, J. Chem. Phys. 136, 094110 (2012).
   Sc-Zn               : F. Jensen, J. Chem. Phys. 138, 014107 (2013).

================================================================================
                                        WARNINGS
                       Please study these warnings very carefully!
================================================================================


WARNING: The basis set has functions with high angular momentum (Lmax>4).
         We might need to increase small grids for safety reasons and
         in general, DEFGRID3 is recommend for such cases.
  ===> : GRIDX1, TD-DFT and the CP-SCF AngGrids will be increased to at least 2


WARNING: your system is open-shell and RHF/RKS was chosen
  ===> : WILL SWITCH to UHF/UKS


================================================================================
                                       INPUT FILE
================================================================================
NAME = /cluster/projects/nn14654k/ylvaos/basis_set_n_funcs/functionals/lda_x/PO2/inp/PO2_lda_x_pc4.inp
|  1> ! dft pc-4 TightSCF
|  2> %pal nprocs 8 end
|  3> 
|  4> %loc
|  5>   LocMet NewBoys
|  6>   Occ true
|  7> end
|  8> 
|  9> %method
| 10>   exchange lda_x
| 11>   correlation None
| 12> end
| 13> 
| 14> %elprop
| 15>   Dipole true
| 16>   Quadrupole true
| 17> end
| 18> 
| 19> * xyz 0 2
| 20> P    0.000000000000   0.000000000000   0.287900000000
| 21> O    0.000000000000   1.356300000000  -0.269900000000
| 22> O    0.000000000000  -1.356300000000  -0.269900000000
| 23> *
| 24> 
| 25> 
| 26>                          ****END OF INPUT****
================================================================================

                       ****************************
                       * Single Point Calculation *
                       ****************************

---------------------------------
CARTESIAN COORDINATES (ANGSTROEM)
---------------------------------
  P      0.000000    0.000000    0.287900
  O      0.000000    1.356300   -0.269900
  O      0.000000   -1.356300   -0.269900

----------------------------
CARTESIAN COORDINATES (A.U.)
----------------------------
  NO LB      ZA    FRAG     MASS         X           Y           Z
   0 P    15.0000    0    30.974    0.000000    0.000000    0.544052
   1 O     8.0000    0    15.999    0.000000    2.563036   -0.510037
   2 O     8.0000    0    15.999    0.000000   -2.563036   -0.510037

--------------------------------
INTERNAL COORDINATES (ANGSTROEM)
--------------------------------
 P      0   0   0     0.000000000000     0.00000000     0.00000000
 O      1   0   0     1.466523279733     0.00000000     0.00000000
 O      1   2   0     1.466523279733   135.28860674     0.00000000

---------------------------
INTERNAL COORDINATES (A.U.)
---------------------------
 P      0   0   0     0.000000000000     0.00000000     0.00000000
 O      1   0   0     2.771327367716     0.00000000     0.00000000
 O      1   2   0     2.771327367716   135.28860674     0.00000000

---------------------
BASIS SET INFORMATION
---------------------
There are 2 groups of distinct atoms

 Group   1 Type P   : 43s26p6d3f2g1h contracted to 7s6p6d3f2g1h pattern {1512121111/11111111/111111/111/11/1}
 Group   2 Type O   : 26s11p6d3f2g1h contracted to 8s7p6d3f2g1h pattern {119111111/5111111/111111/111/11/1}

Atom   0P    basis set group =>   1
Atom   1O    basis set group =>   2
Atom   2O    basis set group =>   2


           ************************************************************
           *        Program running with 8 parallel MPI-processes     *
           *              working on a common directory               *
           ************************************************************
------------------------------------------------------------------------------
                             ORCA STARTUP CALCULATIONS
------------------------------------------------------------------------------
------------------------------------------------------------------------------
                   ___                                                        
                  /   \      - P O W E R E D   B Y -                         
                 /     \                                                     
                 |  |  |   _    _      __       _____    __    __             
                 |  |  |  | |  | |    /  \     |  _  \  |  |  /  |          
                  \  \/   | |  | |   /    \    | | | |  |  | /  /          
                 / \  \   | |__| |  /  /\  \   | |_| |  |  |/  /          
                |  |  |   |  __  | /  /__\  \  |    /   |      \           
                |  |  |   | |  | | |   __   |  |    \   |  |\   \          
                \     /   | |  | | |  |  |  |  | |\  \  |  | \   \       
                 \___/    |_|  |_| |__|  |__|  |_| \__\ |__|  \__/        
                                                                              
                      - O R C A' S   B I G   F R I E N D -                    
                                      &                                       
                       - I N T E G R A L  F E E D E R -                       
                                                                              
 v1 FN, 2020, v2 2021, v3 2022-2024                                           
------------------------------------------------------------------------------


----------------------
SHARK INTEGRAL PACKAGE
----------------------

Number of atoms                             ...      3
Number of basis functions                   ...    323
Number of shells                            ...     79
Maximum angular momentum                    ...      5
Integral batch strategy                     ... SHARK/LIBINT Hybrid
RI-J (if used) integral strategy            ... SPLIT-RIJ (Revised 2003 algorithm where possible)
Printlevel                                  ...      1
Contraction scheme used                     ... SEGMENTED contraction
Prescreening option                         ... SCHWARTZ
   Thresh                                   ... 2.500e-11
   Tcut                                     ... 2.500e-12
   Tpresel                                  ... 2.500e-12 
Coulomb Range Separation                    ... NOT USED
Exchange Range Separation                   ... NOT USED
Multipole approximations                    ... NOT USED
Finite Nucleus Model                        ... NOT USED
CABS basis                                  ... NOT available
Auxiliary Coulomb fitting basis             ... NOT available
Auxiliary J/K fitting basis                 ... NOT available
Auxiliary Correlation fitting basis         ... NOT available
Auxiliary 'external' fitting basis          ... NOT available

Checking pre-screening integrals            ... done (  0.0 sec) Dimension = 79
   => SHARK Basis and OBASIS are compatible. Storing Pre-screening
Shell pair information
Shell pair cut-off parameter TPreSel        ...   2.5e-12
Total number of shell pairs                 ...      3160
Shell pairs after pre-screening             ...      2987
Total number of primitive shell pairs       ...     16659
Primitive shell pairs kept                  ...     12306
          la=0 lb=0:    250 shell pairs
          la=1 lb=0:    434 shell pairs
          la=1 lb=1:    202 shell pairs
          la=2 lb=0:    378 shell pairs
          la=2 lb=1:    342 shell pairs
          la=2 lb=2:    157 shell pairs
          la=3 lb=0:    199 shell pairs
          la=3 lb=1:    176 shell pairs
          la=3 lb=2:    158 shell pairs
          la=3 lb=3:     45 shell pairs
          la=4 lb=0:    130 shell pairs
          la=4 lb=1:    116 shell pairs
          la=4 lb=2:    104 shell pairs
          la=4 lb=3:     54 shell pairs
          la=4 lb=4:     20 shell pairs
          la=5 lb=0:     63 shell pairs
          la=5 lb=1:     58 shell pairs
          la=5 lb=2:     50 shell pairs
          la=5 lb=3:     27 shell pairs
          la=5 lb=4:     18 shell pairs
          la=5 lb=5:      6 shell pairs

Checking whether 4 symmetric matrices of dimension 323 fit in memory
:Max Core in MB      =   4096.00
 MB in use           =     11.15
 MB left             =   4084.85
 MB needed           =      1.60
 Data fit in memory  = YES
Calculating Nuclear repulsion               ... done (  0.0 sec) ENN=     99.086296046297 Eh

Diagonalization of the overlap matrix:
Smallest eigenvalue                        ... 1.430e-05
Time for diagonalization                   ...    0.006 sec
Threshold for overlap eigenvalues          ... 1.000e-07
Number of eigenvalues below threshold      ... 0
Time for construction of square roots      ...    0.007 sec
Total time needed                          ...    0.016 sec

-------------------
DFT GRID GENERATION
-------------------

General Integration Accuracy     IntAcc      ... 4.388
Radial Grid Type                 RadialGrid  ... OptM3 with GC (2021)
Angular Grid (max. ang.)         AngularGrid ... 4 (Lebedev-302)
Angular grid pruning method      GridPruning ... 4 (adaptive)
Weight generation scheme         WeightScheme... mBecke (2022)
Basis function cutoff            BFCut       ... 1.0000e-11
Integration weight cutoff        WCut        ... 1.0000e-14
Partially contracted basis set               ... off
Rotationally invariant grid construction     ... off
Angular grids for H and He will be reduced by one unit
Diffuse basis detected: some atoms will have their outermost
                        angular grid increased by 1.
Core-polarized basis detected: some atoms will have their core
                               angular grid increased.

Total number of grid points                  ...    26050
Total number of batches                      ...      408
Average number of points per batch           ...       63
Average number of grid points per atom       ...     8683
Grids setup in   0.1 sec
Initializing property integral containers    ... done (  0.0 sec)

SHARK setup successfully completed in   0.4 seconds

Maximum memory used throughout the entire STARTUP-calculation: 100.0 MB


           ************************************************************
           *        Program running with 8 parallel MPI-processes     *
           *              working on a common directory               *
           ************************************************************
-------------------------------------------------------------------------------
                                 ORCA GUESS
                   Start orbitals & Density for SCF / CASSCF
-------------------------------------------------------------------------------

------------
SCF SETTINGS
------------
Hamiltonian:
 Density Functional     Method          .... DFT(GTOs)
  Functional kind                       .... Exchange
  Functional name                       .... Slater exchange
  Functional family                     .... LDA
  Functional refs                              
    [ 0] P. A. M. Dirac.,  Math. Proc. Cambridge Philos. Soc. 26, 376 (1930), doi: 10.1017/S0305004100016108
    [ 1] F. Bloch.,  Z. Phys. 57, 545 (1929), doi: 10.1007/BF01340281
  Functional external parameters        .... 0
 Correlation Functional Correlation     .... No Correlation
 Gradients option       PostSCFGGA      .... off


General Settings:
 Integral files         IntName         .... /cluster/projects/nn14654k/ylvaos/basis_set_n_funcs/functionals/lda_x/PO2/inp/PO2_lda_x_pc4
 Hartree-Fock type      HFTyp           .... UHF
 Total Charge           Charge          ....    0
 Multiplicity           Mult            ....    2
 Number of Electrons    NEL             ....   31
 Basis Dimension        Dim             ....  323
 Nuclear Repulsion      ENuc            ....     99.0862960463 Eh

Convergence Acceleration:
 AO-DIIS                CNVDIIS         .... on
   Start iteration      DIISMaxIt       ....    12
   Startup error        DIISStart       ....  0.200000
   # of expansion vecs  DIISMaxEq       ....     5
   Bias factor          DIISBfac        ....   1.050
   Max. coefficient     DIISMaxC        ....  10.000
 MO-DIIS                CNVKDIIS        .... off
 Trust-Rad. Augm. Hess. CNVTRAH         .... auto
   Auto Start mean grad. ratio tolernc. ....  1.125000
   Auto Start start iteration           ....    50
   Auto Start num. interpolation iter.  ....    10
   Max. Number of Micro iterations      ....    24
   Max. Number of Macro iterations      .... Maxiter - #DIIS iter
   Number of Davidson start vectors     ....     2
   Converg. threshold    (grad. norm)   ....   1.000e-05
   Grad. Scal. Fac. for Micro threshold ....   0.100
   Minimum threshold for Micro iter.    ....   1.000e-02
   NR start threshold (gradient norm)   ....   1.000e-04
   Initial trust radius                 ....   0.400
   Minimum AH scaling param. (alpha)    ....   1.000
   Maximum AH scaling param. (alpha)    .... 1000.000
   Quad. conv. algorithm                .... NR
   White noise on init. David. guess    .... on
   Maximum white noise                  ....   0.010
   Pseudo random numbers                .... off
   Inactive MOs                         .... canonical
   Orbital update algorithm             .... Taylor
   Preconditioner                       .... Diag
   Full preconditioner red. dimension   ....   250
 SOSCF                 CNVSOSCF           .... on
   Start iteration     SOSCFMaxIt         ....   150
   Startup grad/error  SOSCFStart         ....  0.003300
   Hessian update      SOSCFHessUp        .... L-BFGS
   Autom. constraints  SOSCFAutoConstrain .... off
 Level Shifting         CNVShift        .... on
   Level shift para.    LevelShift      ....    0.2500
   Turn off err/grad.   ShiftErr        ....    0.0010
 Zerner damping         CNVZerner       .... off
 Static damping         CNVDamp         .... on
   Fraction old density DampFac         ....    0.7000
   Max. Damping (<1)    DampMax         ....    0.9800
   Min. Damping (>=0)   DampMin         ....    0.0000
   Turn off err/grad.   DampErr         ....    0.1000

SCF Procedure:
 Maximum # iterations   MaxIter         ....   125
 SCF integral mode      SCFMode         .... Direct
   Integral package                     .... SHARK and LIBINT hybrid scheme
 Reset frequency        DirectResetFreq ....    20
 Integral Threshold     Thresh          ....  2.500e-11 Eh
 Primitive CutOff       TCut            ....  2.500e-12 Eh

Convergence Tolerance:
 Convergence Check Mode ConvCheckMode   .... Total+1el-Energy
 Convergence forced     ConvForced      .... 0
 Energy Change          TolE            ....  1.000e-08 Eh
 1-El. energy change                    ....  1.000e-05 Eh
 Orbital Gradient       TolG            ....  1.000e-05
 Orbital Rotation angle TolX            ....  1.000e-05
 DIIS Error             TolErr          ....  5.000e-07

------------------------------
INITIAL GUESS: MODEL POTENTIAL
------------------------------
Loading Hartree-Fock densities                     ... done
Calculating cut-offs                               ... done
Initializing the effective Hamiltonian             ... done
Setting up the integral package (SHARK)            ... done
Starting the Coulomb interaction                   ... done (   0.0 sec)
Making the grid                                    ... done (   0.0 sec)
Mapping shells                                     ... done
Starting the XC term evaluation                    ... done (   0.0 sec)
  promolecular density results
     # of electrons  =     31.000270345
     EX              =    -35.634432614
     EC              =      0.000000000
     EX+EC           =    -35.634432614
Transforming the Hamiltonian                       ... done (   0.0 sec)
Diagonalizing the Hamiltonian                      ... done (   0.0 sec)
Back transforming the eigenvectors                 ... done (   0.0 sec)
Now organizing SCF variables                       ... done
                      ------------------
                      INITIAL GUESS DONE (   0.1 sec)
                      ------------------
             **** ENERGY FILE WAS UPDATED (/cluster/projects/nn14654k/ylvaos/basis_set_n_funcs/functionals/lda_x/PO2/inp/PO2_lda_x_pc4.en.tmp) ****
Finished Guess after   0.2 sec
Maximum memory used throughout the entire GUESS-calculation: 24.8 MB


           ************************************************************
           *        Program running with 8 parallel MPI-processes     *
           *              working on a common directory               *
           ************************************************************

-------------------------------------------------------------------------------------------
                                      ORCA LEAN-SCF
                              memory conserving SCF solver
-------------------------------------------------------------------------------------------

----------------------------------------D-I-I-S--------------------------------------------
Iteration    Energy (Eh)           Delta-E    RMSDP     MaxDP     DIISErr   Damp  Time(sec)
-------------------------------------------------------------------------------------------
               ***  Starting incremental Fock matrix formation  ***
    1    -487.1322724817317180     0.00e+00  1.90e-03  8.96e-02  1.36e-01  0.700   5.5
Warning: op=1 Small HOMO/LUMO gap (   0.063) - skipping pre-diagonalization
         Will do a full diagonalization
    2    -487.2426988924250395    -1.10e-01  8.43e-04  3.35e-02  2.91e-02  0.700   5.3
                               ***Turning on AO-DIIS***
    3    -487.2640396050864524    -2.13e-02  4.60e-04  1.77e-02  1.85e-02  0.700   5.2
    4    -487.2799018438377630    -1.59e-02  1.15e-03  4.93e-02  2.22e-02  0.000   5.1
    5    -487.3255359595378309    -4.56e-02  2.67e-04  8.86e-03  1.44e-02  0.000   5.2
    6    -487.3275273201161895    -1.99e-03  1.54e-04  6.03e-03  5.70e-03  0.000   5.1
                              *** Initializing SOSCF ***
---------------------------------------S-O-S-C-F--------------------------------------
Iteration    Energy (Eh)           Delta-E    RMSDP     MaxDP     MaxGrad    Time(sec)
--------------------------------------------------------------------------------------
    7    -487.3278354466477253    -3.08e-04  1.04e-04  4.87e-03  2.24e-03     5.0
               *** Restarting incremental Fock matrix formation ***
    8    -487.3278860270974633    -5.06e-05  1.34e-04  5.55e-03  1.44e-03     5.3
    9    -487.3278394927833119     4.65e-05  5.04e-05  2.08e-03  3.16e-03     4.8
   10    -487.3279002935523181    -6.08e-05  1.34e-05  5.07e-04  1.05e-04     4.7
   11    -487.3279005530937980    -2.60e-07  6.45e-06  2.88e-04  8.52e-05     4.5
   12    -487.3279006949847485    -1.42e-07  2.29e-06  1.22e-04  1.17e-05     4.3
   13    -487.3279006985214323    -3.54e-09  3.44e-07  1.06e-05  6.91e-06     3.9
                 **** Energy Check signals convergence ****

               *****************************************************
               *                     SUCCESS                       *
               *           SCF CONVERGED AFTER  13 CYCLES          *
               *****************************************************

             **** ENERGY FILE WAS UPDATED (/cluster/projects/nn14654k/ylvaos/basis_set_n_funcs/functionals/lda_x/PO2/inp/PO2_lda_x_pc4.en.tmp) ****

----------------
TOTAL SCF ENERGY
----------------

Total Energy       :       -487.32790069960976 Eh          -13260.86635 eV

Components:
Nuclear Repulsion  :         99.08629604629714 Eh            2696.27519 eV
Electronic Energy  :       -586.41419674590691 Eh          -15957.14154 eV
One Electron Energy:       -874.56432260251790 Eh          -23798.10509 eV
Two Electron Energy:        288.15012585661100 Eh            7840.96355 eV

Virial components:
Potential Energy   :       -976.01323595655253 Eh          -26558.67037 eV
Kinetic Energy     :        488.68533525694272 Eh           13297.80402 eV
Virial Ratio       :          1.99722227278087

DFT components:
N(Alpha)           :       16.000045798615 electrons
N(Beta)            :       15.000012094540 electrons
N(Total)           :       31.000057893154 electrons
E(X)               :      -35.706686228117 Eh       
E(C)               :        0.000000000000 Eh       
E(XC)              :      -35.706686228117 Eh       

---------------
SCF CONVERGENCE
---------------

  Last Energy change         ...    3.5367e-09  Tolerance :   1.0000e-08
  Last MAX-Density change    ...    1.0646e-05  Tolerance :   1.0000e-07
  Last RMS-Density change    ...    3.4395e-07  Tolerance :   5.0000e-09
  Last DIIS Error            ...    2.2372e-03  Tolerance :   5.0000e-07
  Last Orbital Gradient      ...    6.9063e-06  Tolerance :   1.0000e-05
  Last Orbital Rotation      ...    1.5361e-05  Tolerance :   1.0000e-05


----------------------
UHF SPIN CONTAMINATION
----------------------

Warning: in a DFT calculation there is little theoretical justification to 
         calculate <S**2> as in Hartree-Fock theory. We will do it anyways
         but you should keep in mind that the values have only limited relevance

Expectation value of <S**2>     :     0.752893
Ideal value S*(S+1) for S=0.5   :     0.750000
Deviation                       :     0.002893

----------------
ORBITAL ENERGIES
----------------
                 SPIN UP ORBITALS
  NO   OCC          E(Eh)            E(eV) 
   0   1.0000     -75.997497     -2067.9970 
   1   1.0000     -18.602947      -506.2119 
   2   1.0000     -18.602947      -506.2119 
   3   1.0000      -6.309206      -171.6822 
   4   1.0000      -4.558857      -124.0528 
   5   1.0000      -4.556258      -123.9821 
   6   1.0000      -4.553185      -123.8985 
   7   1.0000      -0.941937       -25.6314 
   8   1.0000      -0.895077       -24.3563 
   9   1.0000      -0.470919       -12.8144 
  10   1.0000      -0.377248       -10.2655 
  11   1.0000      -0.367755       -10.0071 
  12   1.0000      -0.366536        -9.9740 
  13   1.0000      -0.300372        -8.1735 
  14   1.0000      -0.290825        -7.9138 
  15   1.0000      -0.235172        -6.3994 
  16   0.0000      -0.090678        -2.4675 
  17   0.0000      -0.005190        -0.1412 
  18   0.0000       0.036823         1.0020 
  19   0.0000       0.040021         1.0890 
  20   0.0000       0.052347         1.4244 
  21   0.0000       0.083930         2.2838 
  22   0.0000       0.121615         3.3093 
  23   0.0000       0.129669         3.5285 
  24   0.0000       0.135723         3.6932 
  25   0.0000       0.139648         3.8000 
  26   0.0000       0.145500         3.9593 

                 SPIN DOWN ORBITALS
  NO   OCC          E(Eh)            E(eV) 
   0   1.0000     -75.995404     -2067.9401 
   1   1.0000     -18.595371      -506.0058 
   2   1.0000     -18.595371      -506.0058 
   3   1.0000      -6.305657      -171.5857 
   4   1.0000      -4.555584      -123.9637 
   5   1.0000      -4.550710      -123.8311 
   6   1.0000      -4.550383      -123.8222 
   7   1.0000      -0.926146       -25.2017 
   8   1.0000      -0.878844       -23.9145 
   9   1.0000      -0.446073       -12.1383 
  10   1.0000      -0.357007        -9.7147 
  11   1.0000      -0.356421        -9.6987 
  12   1.0000      -0.348461        -9.4821 
  13   1.0000      -0.292601        -7.9621 
  14   1.0000      -0.278842        -7.5877 
  15   0.0000      -0.186134        -5.0650 
  16   0.0000      -0.063017        -1.7148 
  17   0.0000       0.012512         0.3405 
  18   0.0000       0.047353         1.2885 
  19   0.0000       0.051559         1.4030 
  20   0.0000       0.059104         1.6083 
  21   0.0000       0.094393         2.5686 
  22   0.0000       0.129251         3.5171 
  23   0.0000       0.135681         3.6921 
  24   0.0000       0.139245         3.7891 
  25   0.0000       0.152107         4.1390 
*Only the first 10 virtual orbitals were printed.

                    ********************************
                    * MULLIKEN POPULATION ANALYSIS *
                    ********************************

--------------------------------------------
MULLIKEN ATOMIC CHARGES AND SPIN POPULATIONS
--------------------------------------------
   0 P :    0.283315    0.773539
   1 O :   -0.141644    0.113228
   2 O :   -0.141671    0.113232
Sum of atomic charges         :   -0.0000000
Sum of atomic spin populations:    1.0000000

-----------------------------------------------------
MULLIKEN REDUCED ORBITAL CHARGES AND SPIN POPULATIONS
-----------------------------------------------------
CHARGE
  0 P s       :     5.741223  s :     5.741223
      pz      :     2.823524  p :     8.254179
      px      :     2.713426
      py      :     2.717229
      dz2     :     0.089306  d :     0.637002
      dxz     :     0.014398
      dyz     :     0.195571
      dx2y2   :     0.141705
      dxy     :     0.196022
      f0      :     0.004317  f :     0.068687
      f+1     :     0.000165
      f-1     :     0.022790
      f+2     :     0.010604
      f-2     :     0.010388
      f+3     :     0.011006
      f-3     :     0.009417
      g0      :     0.001424  g :     0.013445
      g+1     :     0.000159
      g-1     :     0.001133
      g+2     :     0.002446
      g-2     :    -0.000000
      g+3     :     0.001727
      g-3     :     0.001840
      g+4     :     0.001327
      g-4     :     0.003389
      h0      :     0.000104  h :     0.002150
      h+1     :     0.000004
      h-1     :     0.000432
      h+2     :     0.000186
      h-2     :     0.000061
      h+3     :     0.000007
      h-3     :     0.000379
      h+4     :     0.000213
      h-4     :     0.000368
      h+5     :     0.000220
      h-5     :     0.000177

  1 O s       :     3.755403  s :     3.755403
      pz      :     1.508445  p :     4.354022
      px      :     1.509928
      py      :     1.335649
      dz2     :     0.005080  d :     0.029633
      dxz     :     0.001892
      dyz     :     0.006644
      dx2y2   :     0.004795
      dxy     :     0.011220
      f0      :     0.000086  f :     0.002426
      f+1     :     0.000011
      f-1     :     0.000814
      f+2     :     0.000283
      f-2     :     0.000408
      f+3     :     0.000789
      f-3     :     0.000036
      g0      :     0.000024  g :     0.000150
      g+1     :     0.000003
      g-1     :     0.000001
      g+2     :     0.000040
      g-2     :     0.000000
      g+3     :     0.000033
      g-3     :     0.000004
      g+4     :     0.000004
      g-4     :     0.000041
      h0      :     0.000001  h :     0.000011
      h+1     :     0.000000
      h-1     :     0.000002
      h+2     :     0.000001
      h-2     :     0.000000
      h+3     :     0.000000
      h-3     :     0.000002
      h+4     :     0.000001
      h-4     :     0.000002
      h+5     :     0.000002
      h-5     :     0.000001

  2 O s       :     3.755412  s :     3.755412
      pz      :     1.508447  p :     4.354038
      px      :     1.509928
      py      :     1.335663
      dz2     :     0.005081  d :     0.029634
      dxz     :     0.001892
      dyz     :     0.006645
      dx2y2   :     0.004796
      dxy     :     0.011220
      f0      :     0.000086  f :     0.002426
      f+1     :     0.000011
      f-1     :     0.000814
      f+2     :     0.000283
      f-2     :     0.000408
      f+3     :     0.000789
      f-3     :     0.000036
      g0      :     0.000024  g :     0.000150
      g+1     :     0.000003
      g-1     :     0.000001
      g+2     :     0.000040
      g-2     :     0.000000
      g+3     :     0.000033
      g-3     :     0.000004
      g+4     :     0.000004
      g-4     :     0.000041
      h0      :     0.000001  h :     0.000011
      h+1     :     0.000000
      h-1     :     0.000002
      h+2     :     0.000001
      h-2     :     0.000000
      h+3     :     0.000000
      h-3     :     0.000002
      h+4     :     0.000001
      h-4     :     0.000002
      h+5     :     0.000002
      h-5     :     0.000001


SPIN
  0 P s       :     0.465982  s :     0.465982
      pz      :     0.173540  p :     0.204987
      px      :     0.032341
      py      :    -0.000894
      dz2     :     0.033777  d :     0.105669
      dxz     :    -0.004424
      dyz     :     0.004189
      dx2y2   :     0.067973
      dxy     :     0.004154
      f0      :    -0.000039  f :    -0.004451
      f+1     :    -0.000086
      f-1     :    -0.001953
      f+2     :     0.000074
      f-2     :    -0.000565
      f+3     :    -0.001695
      f-3     :    -0.000187
      g0      :     0.000232  g :     0.001060
      g+1     :     0.000006
      g-1     :     0.000080
      g+2     :     0.000487
      g-2     :     0.000000
      g+3     :     0.000123
      g-3     :    -0.000004
      g+4     :     0.000385
      g-4     :    -0.000249
      h0      :     0.000051  h :     0.000293
      h+1     :     0.000000
      h-1     :     0.000019
      h+2     :     0.000091
      h-2     :     0.000004
      h+3     :    -0.000000
      h-3     :     0.000015
      h+4     :     0.000057
      h-4     :     0.000022
      h+5     :     0.000018
      h-5     :     0.000016

  1 O s       :    -0.049278  s :    -0.049278
      pz      :     0.151832  p :     0.166294
      px      :    -0.014555
      py      :     0.029017
      dz2     :     0.000058  d :    -0.003993
      dxz     :    -0.000161
      dyz     :    -0.002873
      dx2y2   :    -0.000842
      dxy     :    -0.000176
      f0      :    -0.000005  f :     0.000182
      f+1     :    -0.000008
      f-1     :     0.000051
      f+2     :     0.000024
      f-2     :     0.000054
      f+3     :     0.000017
      f-3     :     0.000049
      g0      :     0.000001  g :     0.000021
      g+1     :     0.000000
      g-1     :     0.000004
      g+2     :     0.000001
      g-2     :    -0.000000
      g+3     :     0.000002
      g-3     :     0.000007
      g+4     :     0.000004
      g-4     :     0.000001
      h0      :     0.000000  h :     0.000002
      h+1     :     0.000000
      h-1     :     0.000000
      h+2     :     0.000000
      h-2     :     0.000000
      h+3     :     0.000000
      h-3     :     0.000000
      h+4     :     0.000001
      h-4     :     0.000000
      h+5     :     0.000000
      h-5     :     0.000000

  2 O s       :    -0.049275  s :    -0.049275
      pz      :     0.151832  p :     0.166295
      px      :    -0.014555
      py      :     0.029019
      dz2     :     0.000058  d :    -0.003993
      dxz     :    -0.000161
      dyz     :    -0.002872
      dx2y2   :    -0.000842
      dxy     :    -0.000176
      f0      :    -0.000005  f :     0.000182
      f+1     :    -0.000008
      f-1     :     0.000051
      f+2     :     0.000024
      f-2     :     0.000054
      f+3     :     0.000017
      f-3     :     0.000049
      g0      :     0.000001  g :     0.000021
      g+1     :     0.000000
      g-1     :     0.000004
      g+2     :     0.000001
      g-2     :    -0.000000
      g+3     :     0.000002
      g-3     :     0.000007
      g+4     :     0.000004
      g-4     :     0.000001
      h0      :     0.000000  h :     0.000002
      h+1     :     0.000000
      h-1     :     0.000000
      h+2     :     0.000000
      h-2     :     0.000000
      h+3     :     0.000000
      h-3     :     0.000000
      h+4     :     0.000001
      h-4     :     0.000000
      h+5     :     0.000000
      h-5     :     0.000000



                     *******************************
                     * LOEWDIN POPULATION ANALYSIS *
                     *******************************

-------------------------------------------
LOEWDIN ATOMIC CHARGES AND SPIN POPULATIONS
-------------------------------------------
   0 P :    0.306636    0.538253
   1 O :   -0.153318    0.230874
   2 O :   -0.153318    0.230874

----------------------------------------------------
LOEWDIN REDUCED ORBITAL CHARGES AND SPIN POPULATIONS
----------------------------------------------------
CHARGE
  0 P s       :     4.798490  s :     4.798490
      pz      :     2.753814  p :     8.122911
      px      :     2.595929
      py      :     2.773169
      dz2     :     0.163103  d :     1.268829
      dxz     :     0.016316
      dyz     :     0.403286
      dx2y2   :     0.359712
      dxy     :     0.326412
      f0      :     0.030192  f :     0.351968
      f+1     :     0.000397
      f-1     :     0.101071
      f+2     :     0.068770
      f-2     :     0.044207
      f+3     :     0.040577
      f-3     :     0.066754
      g0      :     0.011426  g :     0.120905
      g+1     :     0.001081
      g-1     :     0.011533
      g+2     :     0.020607
      g-2     :     0.000012
      g+3     :     0.012347
      g-3     :     0.019173
      g+4     :     0.015478
      g-4     :     0.029248
      h0      :     0.001417  h :     0.030261
      h+1     :     0.000038
      h-1     :     0.005689
      h+2     :     0.002478
      h-2     :     0.000870
      h+3     :     0.000074
      h-3     :     0.005468
      h+4     :     0.002723
      h-4     :     0.006085
      h+5     :     0.003135
      h-5     :     0.002283

  1 O s       :     3.444762  s :     3.444762
      pz      :     1.476676  p :     4.485958
      px      :     1.413044
      py      :     1.596239
      dz2     :     0.019026  d :     0.169445
      dxz     :     0.004596
      dyz     :     0.065445
      dx2y2   :     0.046374
      dxy     :     0.034004
      f0      :     0.006109  f :     0.050190
      f+1     :     0.000121
      f-1     :     0.007995
      f+2     :     0.013784
      f-2     :     0.002775
      f+3     :     0.006792
      f-3     :     0.012615
      g0      :     0.000111  g :     0.002758
      g+1     :     0.000011
      g-1     :     0.000656
      g+2     :     0.000174
      g-2     :     0.000004
      g+3     :     0.000114
      g-3     :     0.000867
      g+4     :     0.000660
      g-4     :     0.000161
      h0      :     0.000016  h :     0.000204
      h+1     :     0.000000
      h-1     :     0.000018
      h+2     :     0.000040
      h-2     :     0.000002
      h+3     :     0.000001
      h-3     :     0.000009
      h+4     :     0.000066
      h-4     :     0.000006
      h+5     :     0.000006
      h-5     :     0.000040

  2 O s       :     3.444762  s :     3.444762
      pz      :     1.476676  p :     4.485958
      px      :     1.413044
      py      :     1.596239
      dz2     :     0.019026  d :     0.169445
      dxz     :     0.004596
      dyz     :     0.065445
      dx2y2   :     0.046374
      dxy     :     0.034004
      f0      :     0.006109  f :     0.050190
      f+1     :     0.000121
      f-1     :     0.007995
      f+2     :     0.013784
      f-2     :     0.002775
      f+3     :     0.006792
      f-3     :     0.012615
      g0      :     0.000111  g :     0.002758
      g+1     :     0.000011
      g-1     :     0.000656
      g+2     :     0.000174
      g-2     :     0.000004
      g+3     :     0.000114
      g-3     :     0.000867
      g+4     :     0.000660
      g-4     :     0.000161
      h0      :     0.000016  h :     0.000204
      h+1     :     0.000000
      h-1     :     0.000018
      h+2     :     0.000040
      h-2     :     0.000002
      h+3     :     0.000001
      h-3     :     0.000009
      h+4     :     0.000066
      h-4     :     0.000006
      h+5     :     0.000006
      h-5     :     0.000040


SPIN
  0 P s       :     0.178304  s :     0.178304
      pz      :     0.159118  p :     0.173035
      px      :     0.020402
      py      :    -0.006485
      dz2     :     0.072411  d :     0.179042
      dxz     :    -0.003928
      dyz     :    -0.000647
      dx2y2   :     0.111337
      dxy     :    -0.000131
      f0      :     0.000188  f :    -0.003290
      f+1     :    -0.000100
      f-1     :    -0.001621
      f+2     :     0.001132
      f-2     :    -0.000702
      f+3     :    -0.002636
      f-3     :     0.000449
      g0      :     0.001981  g :     0.009161
      g+1     :    -0.000014
      g-1     :     0.000238
      g+2     :     0.004172
      g-2     :     0.000003
      g+3     :    -0.000068
      g-3     :     0.000138
      g+4     :     0.002775
      g-4     :    -0.000064
      h0      :     0.000495  h :     0.002002
      h+1     :    -0.000000
      h-1     :     0.000074
      h+2     :     0.000829
      h-2     :     0.000012
      h+3     :    -0.000001
      h-3     :     0.000083
      h+4     :     0.000348
      h-4     :     0.000073
      h+5     :    -0.000016
      h-5     :     0.000105

  1 O s       :     0.031085  s :     0.031085
      pz      :     0.135430  p :     0.180388
      px      :    -0.008337
      py      :     0.053296
      dz2     :     0.001851  d :     0.017313
      dxz     :     0.000347
      dyz     :     0.013572
      dx2y2   :     0.000356
      dxy     :     0.001187
      f0      :     0.000005  f :     0.002034
      f+1     :    -0.000013
      f-1     :     0.001243
      f+2     :     0.000306
      f-2     :     0.000221
      f+3     :     0.000172
      f-3     :     0.000100
      g0      :     0.000012  g :     0.000050
      g+1     :     0.000000
      g-1     :     0.000001
      g+2     :     0.000018
      g-2     :    -0.000000
      g+3     :     0.000006
      g-3     :     0.000001
      g+4     :     0.000009
      g-4     :     0.000002
      h0      :     0.000000  h :     0.000002
      h+1     :     0.000000
      h-1     :     0.000000
      h+2     :     0.000000
      h-2     :     0.000000
      h+3     :    -0.000000
      h-3     :     0.000000
      h+4     :     0.000000
      h-4     :     0.000000
      h+5     :     0.000000
      h-5     :     0.000001

  2 O s       :     0.031086  s :     0.031086
      pz      :     0.135430  p :     0.180388
      px      :    -0.008337
      py      :     0.053296
      dz2     :     0.001851  d :     0.017313
      dxz     :     0.000347
      dyz     :     0.013572
      dx2y2   :     0.000356
      dxy     :     0.001187
      f0      :     0.000005  f :     0.002034
      f+1     :    -0.000013
      f-1     :     0.001243
      f+2     :     0.000306
      f-2     :     0.000221
      f+3     :     0.000172
      f-3     :     0.000100
      g0      :     0.000012  g :     0.000050
      g+1     :     0.000000
      g-1     :     0.000001
      g+2     :     0.000018
      g-2     :    -0.000000
      g+3     :     0.000006
      g-3     :     0.000001
      g+4     :     0.000009
      g-4     :     0.000002
      h0      :     0.000000  h :     0.000002
      h+1     :     0.000000
      h-1     :     0.000000
      h+2     :     0.000000
      h-2     :     0.000000
      h+3     :    -0.000000
      h-3     :     0.000000
      h+4     :     0.000000
      h-4     :     0.000000
      h+5     :     0.000000
      h-5     :     0.000001



                      *****************************
                      * MAYER POPULATION ANALYSIS *
                      *****************************

  NA   - Mulliken gross atomic population
  ZA   - Total nuclear charge
  QA   - Mulliken gross atomic charge
  VA   - Mayer's total valence
  BVA  - Mayer's bonded valence
  FA   - Mayer's free valence

  ATOM       NA         ZA         QA         VA         BVA        FA
  0 P     14.7167    15.0000     0.2833     4.5585     3.9948     0.5637
  1 O      8.1416     8.0000    -0.1416     2.1516     2.1319     0.0197
  2 O      8.1417     8.0000    -0.1417     2.1516     2.1319     0.0197

  Mayer bond orders larger than 0.100000
B(  0-P ,  1-O ) :   1.9974 B(  0-P ,  2-O ) :   1.9974 B(  1-O ,  2-O ) :   0.1345 


-------
TIMINGS
-------

Total SCF time: 0 days 0 hours 1 min 7 sec 

Total time                  ....      67.641 sec
Sum of individual times     ....      64.166 sec  ( 94.9%)

SCF preparation             ....       0.158 sec  (  0.2%)
Fock matrix formation       ....      62.929 sec  ( 93.0%)
  Startup                   ....       0.032 sec  (  0.1% of F)
  Coulomb formation         ....      65.018 sec  (103.3% of F)
  XC integration            ....       0.866 sec  (  1.4% of F)
    Basis function eval.    ....       0.051 sec  (  5.9% of XC)
    Density eval.           ....       0.212 sec  ( 24.5% of XC)
    XC-Functional eval.     ....       0.007 sec  (  0.8% of XC)
    XC-Potential eval.      ....       0.358 sec  ( 41.3% of XC)
Diagonalization             ....       0.000 sec  (  0.0%)
Density matrix formation    ....       0.253 sec  (  0.4%)
Total Energy calculation    ....       0.039 sec  (  0.1%)
Population analysis         ....       0.028 sec  (  0.0%)
Orbital Transformation      ....       0.090 sec  (  0.1%)
Orbital Orthonormalization  ....       0.000 sec  (  0.0%)
DIIS solution               ....       0.462 sec  (  0.7%)
SOSCF solution              ....       0.205 sec  (  0.3%)
Finished LeanSCF after  67.7 sec

Maximum memory used throughout the entire LEANSCF-calculation: 107.6 MB


           ************************************************************
           *        Program running with 8 parallel MPI-processes     *
           *              working on a common directory               *
           ************************************************************

------------------------------------------------------------------------------
                         ORCA PROPERTY INTEGRAL CALCULATIONS
------------------------------------------------------------------------------

GBWName                                   ... /cluster/projects/nn14654k/ylvaos/basis_set_n_funcs/functionals/lda_x/PO2/inp/PO2_lda_x_pc4.gbw
Number of atoms                           ...      3
Number of basis functions                 ...    323
Max core memory                           ...   4096 MB

Dipole integrals                          ... YES
Quadrupole integrals                      ... YES
Linear momentum integrals                 ...  NO
Angular momentum integrals                ...  NO
Higher moments length integrals           ...  NO
Higher moments velocity integrals         ...  NO
Kinetic energy integrals                  ...  NO
GIAO right hand sides                     ...  NO
GIAO dipole derivative integrals          ...  NO
SOC integrals                             ...  NO
EPR diamagnetic integrals (GIAO)          ...  NO
EPR gauge integrals                       ...  NO
Field gradient integrals                  ...  NO (   0 nuclei)
Spin-dipole/Fermi contact integrals       ...  NO (   0 nuclei)
Contact density integrals                 ...  NO (   0 nuclei)
Nucleus-orbit integrals                   ...  NO (   0 nuclei)
Geometric perturbations                   ...  NO (   3 nuclei)

Choice of electric origin   ... Center of mass
Position of electric origin ... (  0.0000,  0.0000,  0.0084) 
Choice of magnetic origin   ... GIAO
Position of magnetic origin ... (  0.0000,  0.0000,  0.0000) 

Calculating integrals                     ... Electric Dipole (Length)     done (  0.0 sec)
Calculating integrals                     ... Electric Quadrupole (Length) done (  0.0 sec)

Property integrals calculated in   0.0 sec

Maximum memory used throughout the entire PROPINT-calculation: 27.6 MB
------------------------------------------------------------------------------
                           ORCA ORBITAL LOCALIZATION
------------------------------------------------------------------------------

Input orbitals are from                  ... /cluster/projects/nn14654k/ylvaos/basis_set_n_funcs/functionals/lda_x/PO2/inp/PO2_lda_x_pc4.gbw
Output orbitals are to                   ... /cluster/projects/nn14654k/ylvaos/basis_set_n_funcs/functionals/lda_x/PO2/inp/PO2_lda_x_pc4.loc
Max. number of iterations                ... 128
Localizations seeded randomly            ... on
Convergence tolerance                    ... 1.000e-06
Threshold for strong local MOs           ... 9.500e-01
Threshold for bond MOs                   ... 8.500e-01
Operator                                 ... 0
Orbital range for localization           ... 4 to 15
Localization criterion                   ... NEW-BOYS
Doing the dipole integrals               ... o.k.
Initial value of the localization sum :    29.247984
ITERATION   0 : L=   45.9284740501 DL=  1.67e+01 (AVERGE_DL)=    0.5027272652 
ITERATION   1 : L=   49.9328449780 DL=  4.00e+00 (AVERGE_DL)=    0.2463174512 
ITERATION   2 : L=   50.1523333528 DL=  2.19e-01 (AVERGE_DL)=    0.0576678545 
ITERATION   3 : L=   50.1569352835 DL=  4.60e-03 (AVERGE_DL)=    0.0083502229 
ITERATION   4 : L=   50.1578345790 DL=  8.99e-04 (AVERGE_DL)=    0.0036912992 
ITERATION   5 : L=   50.1580985736 DL=  2.64e-04 (AVERGE_DL)=    0.0019999795 
ITERATION   6 : L=   50.1581817271 DL=  8.32e-05 (AVERGE_DL)=    0.0011224530 
ITERATION   7 : L=   50.1582074741 DL=  2.57e-05 (AVERGE_DL)=    0.0006245852 
ITERATION   8 : L=   50.1582154569 DL=  7.98e-06 (AVERGE_DL)=    0.0003477818 
ITERATION   9 : L=   50.1582179433 DL=  2.49e-06 (AVERGE_DL)=    0.0001940912 
ITERATION  10 : L=   50.1582187205 DL=  7.77e-07 (AVERGE_DL)=    0.0001085219 
LOCALIZATION SUM CONVERGED


--------------------------------------------------------------------------------
                    LOCALIZED MOLECULAR ORBITAL COMPOSITIONS
--------------------------------------------------------------------------------

The Mulliken populations for each LMO on each atom are computed
The LMO`s will be ordered according to atom index and type
  (A) Strongly localized MO`s have populations of >=0.950 on one atom
  (B) Two center bond orbitals have populations of >=0.850 on two atoms
  (C) Other MO`s are considered to be `delocalized`

FOUND  -   6 strongly local MO`s
       -   6 two center bond MO`s
       -   0 significantly delocalized MO`s

Rather strongly localized orbitals:
MO   9:   2O  -   0.971234
MO   8:   1O  -   0.971248
MO   7:   0P  -   1.180921
MO   6:   0P  -   1.000427
MO   5:   0P  -   0.998097
MO   4:   0P  -   1.000427
Bond-like localized orbitals:
MO  15:   2O  -   0.867187  and   0P  -   0.136534
MO  14:   2O  -   0.687568  and   0P  -   0.309638
MO  13:   2O  -   0.687580  and   0P  -   0.309626
MO  12:   1O  -   0.687575  and   0P  -   0.309644
MO  11:   1O  -   0.867164  and   0P  -   0.136559
MO  10:   1O  -   0.687577  and   0P  -   0.309618
Localized MO's were stored in: /cluster/projects/nn14654k/ylvaos/basis_set_n_funcs/functionals/lda_x/PO2/inp/PO2_lda_x_pc4.loc
------------------------------------------------------------------------------
                           ORCA ORBITAL LOCALIZATION
------------------------------------------------------------------------------

Input orbitals are from                  ... /cluster/projects/nn14654k/ylvaos/basis_set_n_funcs/functionals/lda_x/PO2/inp/PO2_lda_x_pc4.loc
Output orbitals are to                   ... /cluster/projects/nn14654k/ylvaos/basis_set_n_funcs/functionals/lda_x/PO2/inp/PO2_lda_x_pc4.loc
Max. number of iterations                ... 128
Localizations seeded randomly            ... on
Convergence tolerance                    ... 1.000e-06
Threshold for strong local MOs           ... 9.500e-01
Threshold for bond MOs                   ... 8.500e-01
Operator                                 ... 1
Orbital range for localization           ... 4 to 14
Localization criterion                   ... NEW-BOYS
Doing the dipole integrals               ... o.k.
Initial value of the localization sum :    32.678590
ITERATION   0 : L=   39.2200457464 DL=  6.54e+00 (AVERGE_DL)=    0.3448703595 
ITERATION   1 : L=   42.8959991178 DL=  3.68e+00 (AVERGE_DL)=    0.2585256580 
ITERATION   2 : L=   43.1320783548 DL=  2.36e-01 (AVERGE_DL)=    0.0655160268 
ITERATION   3 : L=   43.1579204797 DL=  2.58e-02 (AVERGE_DL)=    0.0216761809 
ITERATION   4 : L=   43.1616652778 DL=  3.74e-03 (AVERGE_DL)=    0.0082514990 
ITERATION   5 : L=   43.1641747294 DL=  2.51e-03 (AVERGE_DL)=    0.0067547313 
ITERATION   6 : L=   43.1663744172 DL=  2.20e-03 (AVERGE_DL)=    0.0063241065 
ITERATION   7 : L=   43.1682962303 DL=  1.92e-03 (AVERGE_DL)=    0.0059111806 
ITERATION   8 : L=   43.1699430861 DL=  1.65e-03 (AVERGE_DL)=    0.0054720044 
ITERATION   9 : L=   43.1713348961 DL=  1.39e-03 (AVERGE_DL)=    0.0050304709 
ITERATION  10 : L=   43.1724981001 DL=  1.16e-03 (AVERGE_DL)=    0.0045988218 
ITERATION  11 : L=   43.1734614480 DL=  9.63e-04 (AVERGE_DL)=    0.0041851424 
ITERATION  12 : L=   43.1742534299 DL=  7.92e-04 (AVERGE_DL)=    0.0037946898 
ITERATION  13 : L=   43.1749007459 DL=  6.47e-04 (AVERGE_DL)=    0.0034306531 
ITERATION  14 : L=   43.1754274207 DL=  5.27e-04 (AVERGE_DL)=    0.0030944960 
ITERATION  15 : L=   43.1758544450 DL=  4.27e-04 (AVERGE_DL)=    0.0027864096 
ITERATION  16 : L=   43.1761997572 DL=  3.45e-04 (AVERGE_DL)=    0.0025056743 
ITERATION  17 : L=   43.1764784448 DL=  2.79e-04 (AVERGE_DL)=    0.0022510105 
ITERATION  18 : L=   43.1767030378 DL=  2.25e-04 (AVERGE_DL)=    0.0020207692 
ITERATION  19 : L=   43.1768838536 DL=  1.81e-04 (AVERGE_DL)=    0.0018131630 
ITERATION  20 : L=   43.1770293182 DL=  1.45e-04 (AVERGE_DL)=    0.0016262875 
ITERATION  21 : L=   43.1771462918 DL=  1.17e-04 (AVERGE_DL)=    0.0014583528 
ITERATION  22 : L=   43.1772403328 DL=  9.40e-05 (AVERGE_DL)=    0.0013076067 
ITERATION  23 : L=   43.1773159222 DL=  7.56e-05 (AVERGE_DL)=    0.0011723283 
ITERATION  24 : L=   43.1773766817 DL=  6.08e-05 (AVERGE_DL)=    0.0010510553 
ITERATION  25 : L=   43.1774255210 DL=  4.88e-05 (AVERGE_DL)=    0.0009423308 
ITERATION  26 : L=   43.1774647836 DL=  3.93e-05 (AVERGE_DL)=    0.0008449061 
ITERATION  27 : L=   43.1774963538 DL=  3.16e-05 (AVERGE_DL)=    0.0007576298 
ITERATION  28 : L=   43.1775217425 DL=  2.54e-05 (AVERGE_DL)=    0.0006794208 
ITERATION  29 : L=   43.1775421622 DL=  2.04e-05 (AVERGE_DL)=    0.0006093174 
ITERATION  30 : L=   43.1775585896 DL=  1.64e-05 (AVERGE_DL)=    0.0005465171 
ITERATION  31 : L=   43.1775718090 DL=  1.32e-05 (AVERGE_DL)=    0.0004902568 
ITERATION  32 : L=   43.1775824469 DL=  1.06e-05 (AVERGE_DL)=    0.0004397911 
ITERATION  33 : L=   43.1775910103 DL=  8.56e-06 (AVERGE_DL)=    0.0003945860 
ITERATION  34 : L=   43.1775979054 DL=  6.90e-06 (AVERGE_DL)=    0.0003540712 
ITERATION  35 : L=   43.1776034586 DL=  5.55e-06 (AVERGE_DL)=    0.0003177523 
ITERATION  36 : L=   43.1776079311 DL=  4.47e-06 (AVERGE_DL)=    0.0002851647 
ITERATION  37 : L=   43.1776115339 DL=  3.60e-06 (AVERGE_DL)=    0.0002559396 
ITERATION  38 : L=   43.1776144365 DL=  2.90e-06 (AVERGE_DL)=    0.0002297252 
ITERATION  39 : L=   43.1776167765 DL=  2.34e-06 (AVERGE_DL)=    0.0002062671 
ITERATION  40 : L=   43.1776186626 DL=  1.89e-06 (AVERGE_DL)=    0.0001851850 
ITERATION  41 : L=   43.1776201824 DL=  1.52e-06 (AVERGE_DL)=    0.0001662275 
ITERATION  42 : L=   43.1776214081 DL=  1.23e-06 (AVERGE_DL)=    0.0001492853 
ITERATION  43 : L=   43.1776223963 DL=  9.88e-07 (AVERGE_DL)=    0.0001340433 
LOCALIZATION SUM CONVERGED


--------------------------------------------------------------------------------
                    LOCALIZED MOLECULAR ORBITAL COMPOSITIONS
--------------------------------------------------------------------------------

The Mulliken populations for each LMO on each atom are computed
The LMO`s will be ordered according to atom index and type
  (A) Strongly localized MO`s have populations of >=0.950 on one atom
  (B) Two center bond orbitals have populations of >=0.850 on two atoms
  (C) Other MO`s are considered to be `delocalized`

FOUND  -   5 strongly local MO`s
       -   6 two center bond MO`s
       -   0 significantly delocalized MO`s

Rather strongly localized orbitals:
MO   8:   2O  -   0.977095
MO   7:   1O  -   0.977097
MO   6:   0P  -   0.999155
MO   5:   0P  -   0.999887
MO   4:   0P  -   0.999155
Bond-like localized orbitals:
MO  14:   2O  -   0.746170  and   0P  -   0.254059
MO  13:   2O  -   0.524608  and   0P  -   0.464453
MO  12:   2O  -   0.745291  and   0P  -   0.254909
MO  11:   1O  -   0.746073  and   0P  -   0.254148
MO  10:   1O  -   0.745435  and   0P  -   0.254773
MO   9:   1O  -   0.524550  and   0P  -   0.464508
Localized MO's were stored in: /cluster/projects/nn14654k/ylvaos/basis_set_n_funcs/functionals/lda_x/PO2/inp/PO2_lda_x_pc4.loc

-------------------------   --------------------
FINAL SINGLE POINT ENERGY      -487.327900699610
-------------------------   --------------------



           ************************************************************
           *        Program running with 8 parallel MPI-processes     *
           *              working on a common directory               *
           ************************************************************

------------------------------------------------------------------------------
                              ORCA PROPERTY CALCULATIONS
------------------------------------------------------------------------------

GBWName                                 ... /cluster/projects/nn14654k/ylvaos/basis_set_n_funcs/functionals/lda_x/PO2/inp/PO2_lda_x_pc4.gbw
Number of atoms                         ...      3
Number of basis functions               ...    323
Max core memory                         ...   4096 MB

Electric properties:
Dipole moment                           ... YES
Quadrupole moment                       ... YES
Static polarizability (Dipole/Dipole)   ...  NO
Static polarizability (Dipole/Quad.)    ...  NO
Static polarizability (Quad./Quad.)     ...  NO
Static polarizability (Velocity)        ...  NO
Static hyperpolarizability              ...  NO

Atomic electric properties:
Dipole moment                           ...  NO
Quadrupole moment                       ...  NO
Static polarizability                   ...  NO

Choice of electric origin               ... Center of mass
Position of electric origin             ...     0.000000     0.000000     0.008437

General magnetic properties:
Magnetizability                         ...  NO

EPR properties:
g-Tensor (aka g-matrix)                 ...  NO
Zero-Field splitting spin-orbit         ...  NO
Zero-field splitting spin-spin          ...  NO
Hyperfine couplings                     ...  NO (   0 nuclei)
Quadrupole couplings                    ...  NO (   0 nuclei)
Contact density                         ...  NO (   0 nuclei)

NMR properties:
Chemical shifts                         ...  NO (   0 nuclei)
Spin-rotation constants                 ...  NO (   0 nuclei)
Spin-spin couplings                     ...  NO (   0 nuclei,    0 pairs)

Choice of magnetic origin               ... GIAO
Position of magnetic origin             ...     0.000000     0.000000     0.000000

Properties with geometric perturbations:
SCF Hessian                             ...  NO
IR spectrum                             ...  NO
VCD spectrum                            ...  NO
X-ray spectroscopy properties:
SCF XES/XAS/RIXS spectra                ...  NO

SCF SOC stabilization energy            ...  NO
Diagonal Born-Oppenheimer correction    ...  NO

-------------
DIPOLE MOMENT
-------------

Method             : SCF
Type of density    : Electron Density
Multiplicity       :   2
Irrep              :   0
Energy             :  -487.3279006996097564 Eh
Basis              : AO
                                X                 Y                 Z
Electronic contribution:     -0.000000007      -0.000000013       0.758606976
Nuclear contribution   :      0.000000000       0.000000000      -0.261362976
                        -----------------------------------------
Total Dipole Moment    :     -0.000000007      -0.000000013       0.497244000
                        -----------------------------------------
Magnitude (a.u.)       :      0.497244000
Magnitude (Debye)      :      1.263893804



--------------------
Rotational spectrum 
--------------------
 
Rotational constants in cm-1:             3.442444             0.286393             0.264396 
Rotational constants in MHz :        103201.869580          8585.841533          7926.407020 

Dipole components along the rotational axes: 
x,y,z [a.u.] :    -0.000000     0.497244    -0.000000 
x,y,z [Debye]:    -0.000000     1.263894    -0.000000 

 

Dipole moment calculation done in   0.0 sec 

-----------------
QUADRUPOLE MOMENT
-----------------

Method             : SCF
Type of density    : Electron Density
Multiplicity       :   2
Irrep              :   0
Energy             :  -487.3279006996097564 Eh
Basis              : AO

                XX              YY              ZZ              XY              XZ              YZ
  NUC        0.000000000   105.106420135     8.604299986     0.000000000     0.000000000     0.000000000
  EL       -16.062219880  -126.348200159   -25.357877603     0.000000009     0.000000006     0.000000015
  TOT      -16.062219880   -21.241780024   -16.753577617     0.000000009     0.000000006     0.000000015 (a.u.)
           -21.604235067   -28.570920601   -22.534134867     0.000000013     0.000000009     0.000000020 (Buckingham)

diagonalized tensor:
           -21.241780024   -16.753577617   -16.062219880 (a.u.)
           -28.570920601   -22.534134867   -21.604235067 (Buckingham)
           -13.003471268     5.106885934     7.896585334 (traceless form in Buckingham)

            -0.000000002    -0.000000009     1.000000000
             1.000000000     0.000000003     0.000000002
            -0.000000003     1.000000000     0.000000009
        
Isotropic quadrupole :   -18.019192507

Quadrupole moment calculation done in   0.0 sec (  0.0 sec for integrals)

Maximum memory used throughout the entire PROP-calculation: 21.0 MB

--------------------------------
SUGGESTED CITATIONS FOR THIS RUN
--------------------------------

Below you find a list of papers that are relevant to this ORCA run
We neither can nor want to force you to cite these papers, but we appreciate if you do
You receive ORCA, which is the product of decades of hard work by many enthusiastic individuals, for free
The only thing we kindly ask in return is that you cite our papers,
We deeply appreciate it, if you show your appreciation for ORCA by not just citing the generic ORCA reference.

Please note that relegating all ORCA citations to the supporting information does *not* help us.
SI sections are not indexed - citations you put there will not count into any citation statistics
But we need these citations in order to attract the funding resources that allow us to do what we are doing

Therefore, if you are a happy ORCA user, please consider citing a few of the papers listed below in the main body of your paper

In addition to the list printed below, the program has created the file /cluster/projects/nn14654k/ylvaos/basis_set_n_funcs/functionals/lda_x/PO2/inp/PO2_lda_x_pc4.bibtex that contains the list in bibtex format
You can import this file easily into all common literature databanks and citation aid programs

It goes without saying that in many instances, there are alternative algorithms to achieve similar
results as the ones you have gotten from ORCA. It is, of course, also the case that in some instances
ORCA just re-implements algorithms worked out by others. We are fully aware of that and we are also
fully appreciative of our colleagues work. Hence this citation list should not be read as indicating
that the listed papers, which are focused on our own work, are the only ones worth citing. It simply
meant to make it easier for users to cite ORCA specific papers. It is not a substitute for doing your
own literature research and citing the relevant literature in a scientifically appropriate manner.

List of essential papers. We consider these as the minimum necessary citations

  1. Neese, F.
     Software update: the ORCA program system, version 6.0
     WIRES Comput. Molec. Sci. 2025 15(1), e70019
     doi.org/10.1002/wcms.70019

List of papers to cite with high priority. The work reported in these papers was absolutely
necessary for this run to complete.
Our perspective: the developers of density functionals and basis sets usually get cited in chemistry papers
Good! But without the algorithms to do something with them, the functionals or basis sets would not do anything.
Hence, in our opinion, the algorithm design and method developments papers are equally worthy of getting cited

  1. Lehtola, S.; Steigemann, C.; Oliveira, M.; Marques, M.
     Recent developments in Libxc - A comprehensive library of functionals for density functional theory
     Software X 2018 7 , 
     doi.org/10.1016/j.softx.2017.11.002
  2. Neese, F.
     The SHARK Integral Generation and Digestion System
     J. Comp. Chem. 2022 44(3), 381
     doi.org/10.1002/jcc.26942

List of suggested additional citations. These are papers that are important in the 'surrounding' of 
of this run, or papers that preceded the highly important papers. If you like your results we are grateful for a citation.

  1. Neese, F.
     The ORCA program system
     WIRES Comput. Molec. Sci. 2012 2(1), 73-78
     doi.org/10.1002/wcms.81
  2. Neese, F.
     Software update: the ORCA program system, version 4.0
     WIRES Comput. Molec. Sci. 2018 8(1), 1-6
     doi.org/10.1002/wcms.1327
  3. Neese, F.; Wennmohs, F.; Becker, U.; Riplinger, C.
     The ORCA quantum chemistry program package
     J. Chem. Phys. 2020 152(22), 224108
     doi.org/10.1063/5.0004608
  4. Neese, F.
     Software update: The ORCA program system—Version 5.0
     WIRES Comput. Molec. Sci. 2022 12(1), e1606
     doi.org/10.1002/wcms.1606

List of optional additional citations

  1. Neese, F.
     Approximate second-order SCF convergence for spin unrestricted wavefunctions
     Chem. Phys. Lett. 2000 325(1-3), 93-98
     doi.org/10.1016/s0009-2614(00)00662-x

Timings for individual modules:

Sum of individual times          ...       69.607 sec (=   1.160 min)
Startup calculation              ...        0.693 sec (=   0.012 min)   1.0 %
SCF iterations                   ...       68.352 sec (=   1.139 min)  98.2 %
Property integrals               ...        0.276 sec (=   0.005 min)   0.4 %
Property calculations            ...        0.267 sec (=   0.004 min)   0.4 %
Orbital localization             ...        0.021 sec (=   0.000 min)   0.0 %
                             ****ORCA TERMINATED NORMALLY****
TOTAL RUN TIME: 0 days 0 hours 1 minutes 10 seconds 386 msec
