
                                 *****************
                                 * O   R   C   A *
                                 *****************

                                            #,                                       
                                            ###                                      
                                            ####                                     
                                            #####                                    
                                            ######                                   
                                           ########,                                 
                                     ,,################,,,,,                         
                               ,,#################################,,                 
                          ,,##########################################,,             
                       ,#########################################, ''#####,          
                    ,#############################################,,   '####,        
                  ,##################################################,,,,####,       
                ,###########''''           ''''###############################       
              ,#####''   ,,,,##########,,,,          '''####'''          '####       
            ,##' ,,,,###########################,,,                        '##       
           ' ,,###''''                  '''############,,,                           
         ,,##''                                '''############,,,,        ,,,,,,###''
      ,#''                                            '''#######################'''  
     '                                                          ''''####''''         
             ,#######,   #######,   ,#######,      ##                                
            ,#'     '#,  ##    ##  ,#'     '#,    #''#        ,####,    ,#,          
            ##       ##  ##   ,#'  ##            #'  '#       #'       ,# #          
            ##       ##  #######   ##           ,######,      #####,      #          
            '#,     ,#'  ##    ##  '#,     ,#' ,#      #,     #,   #      #          
             '#######'   ##     ##  '#######'  #'      '#     '####' #    #          



                #########################################################
                #                        -***-                          #
                #          Department of theory and spectroscopy        #
                #                                                       #
                #                      Frank Neese                      #
                #                                                       #
                #     Directorship, Architecture, Infrastructure        #
                #                    SHARK, DRIVERS                     #
                #        Core code/Algorithms in most modules           #
                #                                                       #
                #        Max Planck Institute fuer Kohlenforschung      #
                #                Kaiser Wilhelm Platz 1                 #
                #                 D-45470 Muelheim/Ruhr                 #
                #                      Germany                          #
                #                                                       #
                #                  All rights reserved                  #
                #                        -***-                          #
                #########################################################


                         Program Version 6.1.1  -  RELEASE   -
                                (GIT: $487d211c$)
                          ($2025-11-21 10:33:24 +0100$)


 With contributions from (in alphabetic order):
[Max-Planck-Institut fuer Kohlenforschung]                               
  Daniel Aravena         : Magnetic Suceptibility                        
  Michael Atanasov       : Ab Initio Ligand Field Theory (pilot matlab implementation)
  Alexander A. Auer      : GIAO ZORA, VPT2 properties, NMR spectrum      
  Ute Becker             : All parallelization in ORCA, NUMFREQ, NUMCALC 
  Giovanni Bistoni       : ED, misc. LED, open-shell LED, HFLD           
  Dmytro Bykov           : pre 5.0 version of the SCF Hessian            
  Marcos Casanova-Páez   : Triplet and SCS-CIS(D). UHF-(DLPNO)-IP/EA/STEOM-CCSD. UHF-CVS-IP/STEOM-CCSD   
  Vijay G. Chilkuri      : MRCI spin determinant printing, contributions to CSF-ICE 
  Pauline Colinet        : FMM embedding                                 
  Dipayan Datta          : RHF DLPNO-CCSD density                        
  Achintya Kumar Dutta   : EOM-CC, STEOM-CC                              
  Nicolas Foglia         : Exact transition moments, OPA infrastructure, MCD improvements    
  Dmitry Ganyushin       : Spin-Orbit,Spin-Spin,Magnetic field MRCI      
  Miquel Garcia-Rates    : C-PCM and meta-GGA Hessian, CCSD/C-PCM, Gaussian charge scheme 
  Tiago L. C. Gouveia    : GS-ROHF, GS-ROCIS                             
  Yang Guo               : DLPNO-NEVPT2, F12-NEVPT2, CIM, IAO-localization        
  Andreas Hansen         : Spin unrestricted coupled pair/coupled cluster methods 
  Ingolf Harden          : AUTO-CI MPn and infrastructure                
  Benjamin Helmich-Paris : MC-RPA, TRAH-(SCF,CASSCF), AVAS, COSX integrals, SCF dyn. polar., MC-PDFT, srDFT 
  Lee Huntington         : MR-EOM, pCC                                   
  Robert Izsak           : Overlap fitted RIJCOSX, COSX-SCS-MP3, EOM     
  Riya Kayal             : Wick's Theorem for AUTO-CI, AUTO-CI UHF-CCSDT 
  Emily Kempfer          : AUTO-CI RHF CISDT and CCSDT, approximate NEVPT4
  Christian Kollmar      : KDIIS, OOCD, Brueckner-CCSD(T), CCSD density, CASPT2, CASPT2-K, improved NEVPT2 
  Axel Koslowski         : Symmetry handling                             
  Simone Kossmann        : meta-GGA functionals, TD-DFT gradient, OOMP2, (MP2 Hessian; deprecated post 5.0) 
  Lucas Lang             : DCDCAS, Hyperfine gauge corrections, ICE-SOC+SSC
  Marvin Lechner         : AUTO-CI (C++ implementation), FIC-MRCC        
  Spencer Leger          : CASSCF response                               
  Dagmar Lenk            : GEPOL surface, SMD, ORCA-2-JSON               
  Dimitrios Liakos       : Extrapolation schemes; Compound Job, Property file
  Dimitrios Manganas     : Further ROCIS development; embedding schemes. LFT, Crystal Embedding 
  Dimitrios Pantazis     : SARC Basis sets                               
  Anastasios Papadopoulos: AUTO-CI, single reference methods and gradients 
  Taras Petrenko         : pre 6.0 DFT Hessian and TD-DFT gradient,  ECA, NRVS 
  Petra Pikulova         : Analytic Raman intensities                    
  Peter Pinski           : DLPNO-MP2, DLPNO-MP2 Gradient                 
  Shashank Vittal Rao    : ES-AILFT, MagRelax                            
  Christoph Reimann      : Effective Core Potentials                     
  Marius Retegan         : Local ZFS, SOC                                
  Christoph Riplinger    : Optimizer, TS searches, QM/MM, DLPNO-CCSD(T), (RO)-DLPNO pert. Triples 
  Michael Roemelt        : Original ROCIS implementation, recursive CI coupling coefficients
  Masaaki Saitow         : Open-shell DLPNO-CCSD energy and density      
  Barbara Sandhoefer     : DKH picture change effects                    
  Yorick L. A. Schmerwitz: GMF and freeze-and-release deltaSCF, NEB S-IDPP initial path                    
  Kantharuban Sivalingam : CASSCF convergence/infrastructure, NEVPT2, NEVPT3, NEVPT4(SD), FIC-MRCI and CEPA variants
  Bernardo de Souza      : ESD, SOC TD-DFT                               
  Georgi L. Stoychev     : AutoAux, RI-MP2 NMR, DLPNO-MP2 response, X2C  
  Van Anh Tran           : RI-MP2 g-tensors                              
  Willem Van den Heuvel  : Paramagnetic NMR                              
  Zikuan Wang            : NOTCH, Electric field optimization            
  Frank Wennmohs         : Technical directorship and infrastructure     
  Hang Xu                : AUTO-CI-Response properties                   
                                                                         
[FACCTs GmbH]                                                            
  Markus Bursch, Nicolas Foglia, Miquel Garcia-Rates, Ingolf Harden, Hagen Neugebauer, Anastasios Papadopoulos, 
  Christoph Riplinger, Bernardo de Souza, Georgi L. Stoychev                                                    
                                                                 
  APM, various basis sets, CI-OPT, improved COSX, DLPNO-Multilevel,           
  DOCKER, DRACO, updates on ESD, Fragmentator, GOAT, IRC, LR-CPCM, L-BFGS, MBIS, meta-GGA TD-DFT gradient, ML-optimized integration grids, 
  MM, NACMEs, nearIR, NEB, NEB-TS, NL-DFT gradient (VV10), 2- and 3-layer-ONIOM, interface openCOSMO-RS, QMMM,   
  Crystal-QMMM, RESP, rigid body optimization, SF, symmetry and pop. for TD-DFT, various functionals, SOLVATOR                                   
                                                                         
[Other institutions]                                                     
  V. Asgeirsson          : NEB                                           
  Christoph Bannwarth    : sTDA-DFT, sTD-DFT, PBEh-3c, B97-3c, D3        
  Giovanni Bistoni       : ETS/NOCV, ADLD/ADEX, COVALED                  
  Martin Brehm           : Molecular dynamics                            
  Ronald Cardenas        : ETS/NOCV                                      
  Martina Colucci        : COVALED                                       
  Sebastian Ehlert       : rSCAN, r2SCAN, r2SCAN-3c, D4, dhf basis sets  
  Marvin Friede          : D4 for Fr, Ra, Ac-Lr                          
  Lars Goerigk           : TD-DFT with DH, B97 family of functionals     
  Stefan Grimme          : VdW corrections, initial TS optimization, DFT functionals, gCP, sTDA/sTD-DF 
  Waldemar Hujo          : DFT-NL                                        
  H. Jonsson             : NEB                                           
  Holger Kruse           : gCP                                           
  Marcel Mueller         : wB97X-3c, vDZP basis set                      
  Hagen Neugebauer       : wr2SCAN, Native XTB                           
  Gianluca Regni         : ADLD/ADEX                                     
  Tobias Risthaus        : pre 6.0 range-separated hybrid DFT and stability analysis
  Lukas Wittmann         : regularized MP2, r2SCAN double-hybrids, wr2SCAN        
                                                                         
We gratefully acknowledge several colleagues who have allowed us to      
interface, adapt or use parts of their codes:                            
  Ed Valeev, F. Pavosevic, A. Kumar             : LibInt (2-el integral package), F12 methods 
  Garnet Chan, S. Sharma, J. Yang, R. Olivares  : DMRG                   
  Ulf Ekstrom                                   : XCFun DFT Library      
  Mihaly Kallay                                 : mrcc  (arbitrary order and MRCC methods)
  Frank Weinhold                                : gennbo (NPA and NBO analysis)           
  Simon Mueller                                 : openCOSMO-RS                            
  Christopher J. Cramer and Donald G. Truhlar   : smd solvation model                     
  S Lehtola, MJT Oliveira, MAL Marques          : LibXC Library                           
  Liviu Ungur et al                             : ANISO software                          


 Your calculation uses the libint2 library for the computation of 2-el integrals
 For citations please refer to: http://libint.valeyev.net

 Your ORCA version has been built with support for libXC version: 7.0.0
 For citations please refer to: https://libxc.gitlab.io

 This ORCA versions uses:
   CBLAS   interface :  Fast vector & matrix operations
   LAPACKE interface :  Fast linear algebra routines
   SCALAPACK package :  Parallel linear algebra routines
   Shared memory     :  Shared parallel matrices
   BLAS/LAPACK       :  OpenBLAS 0.3.29  USE64BITINT DYNAMIC_ARCH NO_AFFINITY Cooperlake SINGLE_THREADED
        Core in use  :  Cooperlake
   Copyright (c) 2011-2014, The OpenBLAS Project


  ***********************************
  * Starting time: Wed May 20 12:33:31 2026
  * Host name:     c1-37
  * Process ID:    557770
  * Working dir.:  /cluster/projects/nn14654k/ylvaos/basis_set_n_funcs/functionals/gga_x_pw91/CH3COOH/out
  ***********************************

Using LibXC functional ID 109 : Perdew & Wang 91
[ 1]  J. P. Perdew. In P. Ziesche and H. Eschrig, editors, Proceedings of the 75. WE-Heraeus-Seminar and 21st Annual International Symposium on Electronic Structure of Solids, 11. Berlin, 1991. Akademie Verlag.
[ 2]  J. P. Perdew, J. A. Chevary, S. H. Vosko, K. A. Jackson, M. R. Pederson, D. J. Singh, and C. Fiolhais.,  Phys. Rev. B 46, 6671 (1992)
[ 3]  J. P. Perdew, J. A. Chevary, S. H. Vosko, K. A. Jackson, M. R. Pederson, D. J. Singh, and C. Fiolhais.,  Phys. Rev. B 48, 4978 (1993)
Using LibXC functional ID 109 : Perdew & Wang 91
[ 1]  J. P. Perdew. In P. Ziesche and H. Eschrig, editors, Proceedings of the 75. WE-Heraeus-Seminar and 21st Annual International Symposium on Electronic Structure of Solids, 11. Berlin, 1991. Akademie Verlag.
[ 2]  J. P. Perdew, J. A. Chevary, S. H. Vosko, K. A. Jackson, M. R. Pederson, D. J. Singh, and C. Fiolhais.,  Phys. Rev. B 46, 6671 (1992)
[ 3]  J. P. Perdew, J. A. Chevary, S. H. Vosko, K. A. Jackson, M. R. Pederson, D. J. Singh, and C. Fiolhais.,  Phys. Rev. B 48, 4978 (1993)
Your calculation utilizes LibXC
by S. Lehtola, C. Steigemann, M. J. T. Oliveira & M. A. L. Marques
Please cite in your paper:
Lehtola, S.; Steigemann, C.; Oliveira, M.J.T.; Marques, M. A. L. Software X, 7, (2018), 1.
   

================================================================================

----- Orbital basis set information -----
Your calculation utilizes the basis: cc-pVTZ 
       H, B-Ne : Obtained from the ccRepo (grant-hill.group.shef.ac.uk/ccrepo) Feb. 2017
                 T. H. Dunning, Jr., J. Chem. Phys. 90, 1007 (1989)
            He : Obtained from the ccRepo (grant-hill.group.shef.ac.uk/ccrepo) Feb. 2017
                 D. E. Woon, T. H. Dunning, Jr., J. Chem. Phys. 100, 2975 (1994)
  Li-Be, Na-Mg : Obtained from the ccRepo (grant-hill.group.shef.ac.uk/ccrepo) Feb. 2017
                 B. P. Prascher, D. E. Woon, K. A. Peterson, T. H. Dunning, Jr., A. K. Wilson, Theor. Chem. Acc. 128, 69 (2011)
         Al-Ar : Obtained from the ccRepo (grant-hill.group.shef.ac.uk/ccrepo) Feb. 2017
                 D. E. Woon, T. H. Dunning, Jr., J. Chem. Phys. 98, 1358 (1993)
            Ca : Obtained from the Peterson Research Group Website (tyr0.chem.wsu.edu/~kipeters) Feb. 2017
                 J. Koput, K. A. Peterson, J. Phys. Chem. 106, 9595 (2002)
         Sc-Zn : Obtained from the ccRepo (grant-hill.group.shef.ac.uk/ccrepo) Feb. 2017
                 N. B. Balabanov, K. A. Peterson, J. Chem. Phys. 123, 064107 (2005)
                 N. B. Balabanov, K. A. Peterson, J. Chem. Phys. 125, 074110 (2006)
         Ga-Kr : Obtained from the ccRepo (grant-hill.group.shef.ac.uk/ccrepo) Feb. 2017
                 A. K. Wilson, D. E. Woon, K. A. Peterson, T. H. Dunning, Jr., J. Chem. Phys. 110, 7667 (1999)
             Y : Obtained from the ccRepo (grant-hill.group.shef.ac.uk/ccrepo) Feb. 2017
                 K. A. Peterson, D. Figgen, M. Dolg, H. Stoll, J. Chem. Phys. 126, 124101 (2007)
        Ag, Au : Obtained from the Peterson Research Group Website (tyr0.chem.wsu.edu/~kipeters) Feb. 2017
                 K. A. Peterson, C. Puzzarini, Theor. Chem. Acc. 114, 283 (2005)

================================================================================
                                        WARNINGS
                       Please study these warnings very carefully!
================================================================================


================================================================================
                                       INPUT FILE
================================================================================
NAME = /cluster/projects/nn14654k/ylvaos/basis_set_n_funcs/functionals/gga_x_pw91/CH3COOH/inp/CH3COOH_gga_x_pw91_ccpvtz.inp
|  1> ! dft cc-pVTZ TightSCF
|  2> %pal nprocs 8 end
|  3> 
|  4> %loc
|  5>   LocMet NewBoys
|  6>   Occ true
|  7> end
|  8> 
|  9> %method
| 10>   exchange gga_x_pw91
| 11>   correlation None
| 12> end
| 13> 
| 14> %elprop
| 15>   Dipole true
| 16>   Quadrupole true
| 17> end
| 18> 
| 19> * xyz 0 1
| 20> C    0.000000000000   0.154560000000   0.000000000000
| 21> C    1.073776000000  -0.892748000000   0.000000000000
| 22> O    0.166384000000   1.360084000000   0.000000000000
| 23> O   -1.236449000000  -0.415036000000   0.000000000000
| 24> H   -1.867646000000   0.333582000000   0.000000000000
| 25> H    2.048189000000  -0.408135000000   0.000000000000
| 26> H    0.968661000000  -1.528353000000   0.881747000000
| 27> H    0.968661000000  -1.528353000000  -0.881747000000
| 28> *
| 29> 
| 30> 
| 31>                          ****END OF INPUT****
================================================================================

                       ****************************
                       * Single Point Calculation *
                       ****************************

---------------------------------
CARTESIAN COORDINATES (ANGSTROEM)
---------------------------------
  C      0.000000    0.154560    0.000000
  C      1.073776   -0.892748    0.000000
  O      0.166384    1.360084    0.000000
  O     -1.236449   -0.415036    0.000000
  H     -1.867646    0.333582    0.000000
  H      2.048189   -0.408135    0.000000
  H      0.968661   -1.528353    0.881747
  H      0.968661   -1.528353   -0.881747

----------------------------
CARTESIAN COORDINATES (A.U.)
----------------------------
  NO LB      ZA    FRAG     MASS         X           Y           Z
   0 C     6.0000    0    12.011    0.000000    0.292076    0.000000
   1 C     6.0000    0    12.011    2.029143   -1.687049    0.000000
   2 O     8.0000    0    15.999    0.314420    2.570186    0.000000
   3 O     8.0000    0    15.999   -2.336550   -0.784304    0.000000
   4 H     1.0000    0     1.008   -3.529339    0.630379    0.000000
   5 H     1.0000    0     1.008    3.870516   -0.771263    0.000000
   6 H     1.0000    0     1.008    1.830504   -2.888169    1.666260
   7 H     1.0000    0     1.008    1.830504   -2.888169   -1.666260

--------------------------------
INTERNAL COORDINATES (ANGSTROEM)
--------------------------------
 C      0   0   0     0.000000000000     0.00000000     0.00000000
 C      1   0   0     1.499949647502     0.00000000     0.00000000
 O      1   2   0     1.216951827326   126.42686784     0.00000000
 O      1   2   3     1.361339683113   110.98078396   180.00000000
 H      4   1   2     0.979203024267   105.40175469   180.00000085
 H      2   1   3     1.088269476893   109.27200725     0.00000000
 H      2   1   3     1.092025938913   109.72406365   120.93315147
 H      2   1   3     1.092025938913   109.72406365   239.06684853

---------------------------
INTERNAL COORDINATES (A.U.)
---------------------------
 C      0   0   0     0.000000000000     0.00000000     0.00000000
 C      1   0   0     2.834494048450     0.00000000     0.00000000
 O      1   2   0     2.299705671821   126.42686784     0.00000000
 O      1   2   3     2.572559176322   110.98078396   180.00000000
 H      4   1   2     1.850425545371   105.40175469   180.00000085
 H      2   1   3     2.056531271234   109.27200725     0.00000000
 H      2   1   3     2.063629955684   109.72406365   120.93315147
 H      2   1   3     2.063629955684   109.72406365   239.06684853

---------------------
BASIS SET INFORMATION
---------------------
There are 3 groups of distinct atoms

 Group   1 Type C   : 18s5p2d1f contracted to 4s3p2d1f pattern {8811/311/11/1}
 Group   2 Type O   : 18s5p2d1f contracted to 4s3p2d1f pattern {8811/311/11/1}
 Group   3 Type H   : 5s2p1d contracted to 3s2p1d pattern {311/11/1}

Atom   0C    basis set group =>   1
Atom   1C    basis set group =>   1
Atom   2O    basis set group =>   2
Atom   3O    basis set group =>   2
Atom   4H    basis set group =>   3
Atom   5H    basis set group =>   3
Atom   6H    basis set group =>   3
Atom   7H    basis set group =>   3


           ************************************************************
           *        Program running with 8 parallel MPI-processes     *
           *              working on a common directory               *
           ************************************************************
------------------------------------------------------------------------------
                             ORCA STARTUP CALCULATIONS
------------------------------------------------------------------------------
------------------------------------------------------------------------------
                   ___                                                        
                  /   \      - P O W E R E D   B Y -                         
                 /     \                                                     
                 |  |  |   _    _      __       _____    __    __             
                 |  |  |  | |  | |    /  \     |  _  \  |  |  /  |          
                  \  \/   | |  | |   /    \    | | | |  |  | /  /          
                 / \  \   | |__| |  /  /\  \   | |_| |  |  |/  /          
                |  |  |   |  __  | /  /__\  \  |    /   |      \           
                |  |  |   | |  | | |   __   |  |    \   |  |\   \          
                \     /   | |  | | |  |  |  |  | |\  \  |  | \   \       
                 \___/    |_|  |_| |__|  |__|  |_| \__\ |__|  \__/        
                                                                              
                      - O R C A' S   B I G   F R I E N D -                    
                                      &                                       
                       - I N T E G R A L  F E E D E R -                       
                                                                              
 v1 FN, 2020, v2 2021, v3 2022-2024                                           
------------------------------------------------------------------------------


----------------------
SHARK INTEGRAL PACKAGE
----------------------

Number of atoms                             ...      8
Number of basis functions                   ...    200
Number of shells                            ...     88
Maximum angular momentum                    ...      3
Integral batch strategy                     ... SHARK/LIBINT Hybrid
RI-J (if used) integral strategy            ... SPLIT-RIJ (Revised 2003 algorithm where possible)
Printlevel                                  ...      1
Contraction scheme used                     ... PARTIAL GENERAL contraction
Prescreening option                         ... SCHWARTZ
   Thresh                                   ... 2.500e-11
   Tcut                                     ... 2.500e-12
   Tpresel                                  ... 2.500e-12 
Coulomb Range Separation                    ... NOT USED
Exchange Range Separation                   ... NOT USED
Multipole approximations                    ... NOT USED
Finite Nucleus Model                        ... NOT USED
CABS basis                                  ... NOT available
Auxiliary Coulomb fitting basis             ... NOT available
Auxiliary J/K fitting basis                 ... NOT available
Auxiliary Correlation fitting basis         ... NOT available
Auxiliary 'external' fitting basis          ... NOT available

Checking pre-screening integrals            ... done (  0.0 sec) Dimension = 88
Save PGC pre-screening integrals            ... done (  0.0 sec) Dimension = 88
Calculate PGC overlap integrals             ... done (  0.0 sec) Dimension = 64
Calculating pre-screening integrals (ORCA)  ... done (  0.0 sec) Dimension = 64
Shell pair information
Shell pair cut-off parameter TPreSel        ...   2.5e-12
Total number of shell pairs                 ...      3916
Shell pairs after pre-screening             ...      3432
Total number of primitive shell pairs       ...      5484
Primitive shell pairs kept                  ...      4462
          la=0 lb=0:   1037 shell pairs
          la=1 lb=0:    962 shell pairs
          la=1 lb=1:    206 shell pairs
          la=2 lb=0:    568 shell pairs
          la=2 lb=1:    237 shell pairs
          la=2 lb=2:     78 shell pairs
          la=3 lb=0:    206 shell pairs
          la=3 lb=1:     80 shell pairs
          la=3 lb=2:     48 shell pairs
          la=3 lb=3:     10 shell pairs

Checking whether 4 symmetric matrices of dimension 200 fit in memory
:Max Core in MB      =   4096.00
 MB in use           =      5.78
 MB left             =   4090.22
 MB needed           =      0.61
 Data fit in memory  = YES
Calculating Nuclear repulsion               ... done (  0.0 sec) ENN=    120.693288504615 Eh

Diagonalization of the overlap matrix:
Smallest eigenvalue                        ... 8.493e-04
Time for diagonalization                   ...    0.002 sec
Threshold for overlap eigenvalues          ... 1.000e-07
Number of eigenvalues below threshold      ... 0
Time for construction of square roots      ...    0.002 sec
Total time needed                          ...    0.006 sec

-------------------
DFT GRID GENERATION
-------------------

General Integration Accuracy     IntAcc      ... 4.388
Radial Grid Type                 RadialGrid  ... OptM3 with GC (2021)
Angular Grid (max. ang.)         AngularGrid ... 4 (Lebedev-302)
Angular grid pruning method      GridPruning ... 4 (adaptive)
Weight generation scheme         WeightScheme... mBecke (2022)
Basis function cutoff            BFCut       ... 1.0000e-11
Integration weight cutoff        WCut        ... 1.0000e-14
Partially contracted basis set               ... off
Rotationally invariant grid construction     ... off
Angular grids for H and He will be reduced by one unit

Total number of grid points                  ...    37392
Total number of batches                      ...      588
Average number of points per batch           ...       63
Average number of grid points per atom       ...     4674

---------------------
SHARK GRID GENERATION
---------------------

General Integration Accuracy     IntAcc      ... 4.388
Radial Grid Type                 RadialGrid  ... OptM3 with GC (2021)
Angular Grid (max. ang.)         AngularGrid ... 4 (Lebedev-302)
Angular grid pruning method      GridPruning ... 4 (adaptive)
Weight generation scheme         WeightScheme... mBecke (2022)
Basis function cutoff            BFCut       ... 1.0000e-11
Integration weight cutoff        WCut        ... 1.0000e-14
Partially contracted basis set               ... off
Rotationally invariant grid construction     ... off
Angular grids for H and He will be reduced by one unit
Steep s-basis detected: some atoms will have their radial
                        grid points doubled.

Total number of grid points                  ...    62114
Total number of batches                      ...      975
Average number of points per batch           ...       63
Average number of grid points per atom       ...     7764
Grids setup in   0.4 sec
Initializing property integral containers    ... done (  0.0 sec)

SHARK setup successfully completed in   0.5 seconds

Maximum memory used throughout the entire STARTUP-calculation: 20.0 MB


           ************************************************************
           *        Program running with 8 parallel MPI-processes     *
           *              working on a common directory               *
           ************************************************************
-------------------------------------------------------------------------------
                                 ORCA GUESS
                   Start orbitals & Density for SCF / CASSCF
-------------------------------------------------------------------------------

------------
SCF SETTINGS
------------
Hamiltonian:
 Density Functional     Method          .... DFT(GTOs)
  Functional kind                       .... Exchange
  Functional name                       .... Perdew & Wang 91
  Functional family                     .... GGA
  Functional refs                              
    [ 0] J. P. Perdew. In P. Ziesche and H. Eschrig, editors, Proceedings of the 75. WE-Heraeus-Seminar and 21st Annual International Symposium on Electronic Structure of Solids, 11. Berlin, 1991. Akademie Verlag.
    [ 1] J. P. Perdew, J. A. Chevary, S. H. Vosko, K. A. Jackson, M. R. Pederson, D. J. Singh, and C. Fiolhais.,  Phys. Rev. B 46, 6671 (1992), doi: 10.1103/PhysRevB.46.6671
    [ 2] J. P. Perdew, J. A. Chevary, S. H. Vosko, K. A. Jackson, M. R. Pederson, D. J. Singh, and C. Fiolhais.,  Phys. Rev. B 48, 4978 (1993), doi: 10.1103/PhysRevB.48.4978.2
  Functional external parameters        .... 7
    Parameter  0 _a         =  1.964500e-01 : a parameter         
    Parameter  1 _b         =  7.795600e+00 : b parameter         
    Parameter  2 _c         =  2.743000e-01 : c parameter         
    Parameter  3 _d         = -1.508000e-01 : d parameter         
    Parameter  4 _f         =  4.000000e-03 : f parameter         
    Parameter  5 _alpha     =  1.000000e+02 : alpha parameter     
    Parameter  6 _expo      =  4.000000e+00 : exponent            
 Correlation Functional Correlation     .... No Correlation
 Gradients option       PostSCFGGA      .... off


General Settings:
 Integral files         IntName         .... /cluster/projects/nn14654k/ylvaos/basis_set_n_funcs/functionals/gga_x_pw91/CH3COOH/inp/CH3COOH_gga_x_pw91_ccpvtz
 Hartree-Fock type      HFTyp           .... RHF
 Total Charge           Charge          ....    0
 Multiplicity           Mult            ....    1
 Number of Electrons    NEL             ....   32
 Basis Dimension        Dim             ....  176
 Nuclear Repulsion      ENuc            ....    120.6932885046 Eh

Convergence Acceleration:
 AO-DIIS                CNVDIIS         .... on
   Start iteration      DIISMaxIt       ....    12
   Startup error        DIISStart       ....  0.200000
   # of expansion vecs  DIISMaxEq       ....     5
   Bias factor          DIISBfac        ....   1.050
   Max. coefficient     DIISMaxC        ....  10.000
 MO-DIIS                CNVKDIIS        .... off
 Trust-Rad. Augm. Hess. CNVTRAH         .... auto
   Auto Start mean grad. ratio tolernc. ....  1.125000
   Auto Start start iteration           ....    50
   Auto Start num. interpolation iter.  ....    10
   Max. Number of Micro iterations      ....    24
   Max. Number of Macro iterations      .... Maxiter - #DIIS iter
   Number of Davidson start vectors     ....     2
   Converg. threshold    (grad. norm)   ....   1.000e-05
   Grad. Scal. Fac. for Micro threshold ....   0.100
   Minimum threshold for Micro iter.    ....   1.000e-02
   NR start threshold (gradient norm)   ....   1.000e-04
   Initial trust radius                 ....   0.400
   Minimum AH scaling param. (alpha)    ....   1.000
   Maximum AH scaling param. (alpha)    .... 1000.000
   Quad. conv. algorithm                .... NR
   White noise on init. David. guess    .... on
   Maximum white noise                  ....   0.010
   Pseudo random numbers                .... off
   Inactive MOs                         .... canonical
   Orbital update algorithm             .... Taylor
   Preconditioner                       .... Diag
   Full preconditioner red. dimension   ....   250
 SOSCF                 CNVSOSCF           .... on
   Start iteration     SOSCFMaxIt         ....   150
   Startup grad/error  SOSCFStart         ....  0.003300
   Hessian update      SOSCFHessUp        .... L-BFGS
   Autom. constraints  SOSCFAutoConstrain .... off
 Level Shifting         CNVShift        .... on
   Level shift para.    LevelShift      ....    0.2500
   Turn off err/grad.   ShiftErr        ....    0.0010
 Zerner damping         CNVZerner       .... off
 Static damping         CNVDamp         .... on
   Fraction old density DampFac         ....    0.7000
   Max. Damping (<1)    DampMax         ....    0.9800
   Min. Damping (>=0)   DampMin         ....    0.0000
   Turn off err/grad.   DampErr         ....    0.1000

SCF Procedure:
 Maximum # iterations   MaxIter         ....   125
 SCF integral mode      SCFMode         .... Direct
   Integral package                     .... SHARK and LIBINT hybrid scheme
 Reset frequency        DirectResetFreq ....    20
 Integral Threshold     Thresh          ....  2.500e-11 Eh
 Primitive CutOff       TCut            ....  2.500e-12 Eh

Convergence Tolerance:
 Convergence Check Mode ConvCheckMode   .... Total+1el-Energy
 Convergence forced     ConvForced      .... 0
 Energy Change          TolE            ....  1.000e-08 Eh
 1-El. energy change                    ....  1.000e-05 Eh
 Orbital Gradient       TolG            ....  1.000e-05
 Orbital Rotation angle TolX            ....  1.000e-05
 DIIS Error             TolErr          ....  5.000e-07

------------------------------
INITIAL GUESS: MODEL POTENTIAL
------------------------------
Loading Hartree-Fock densities                     ... done
Calculating cut-offs                               ... done
Initializing the effective Hamiltonian             ... done
Setting up the integral package (SHARK)            ... done
Starting the Coulomb interaction                   ... done (   0.0 sec)
Making the grid                                    ... done (   0.0 sec)
Mapping shells                                     ... done
Starting the XC term evaluation                    ... done (   0.0 sec)
  promolecular density results
     # of electrons  =     31.997224895
     EX              =    -27.798996029
     EC              =      0.000000000
     EX+EC           =    -27.798996029
Transforming the Hamiltonian                       ... done (   0.0 sec)
Diagonalizing the Hamiltonian                      ... done (   0.0 sec)
Back transforming the eigenvectors                 ... done (   0.0 sec)
Now organizing SCF variables                       ... done
                      ------------------
                      INITIAL GUESS DONE (   0.1 sec)
                      ------------------
             **** ENERGY FILE WAS UPDATED (/cluster/projects/nn14654k/ylvaos/basis_set_n_funcs/functionals/gga_x_pw91/CH3COOH/inp/CH3COOH_gga_x_pw91_ccpvtz.en.tmp) ****
Finished Guess after   0.1 sec
Maximum memory used throughout the entire GUESS-calculation: 10.1 MB


           ************************************************************
           *        Program running with 8 parallel MPI-processes     *
           *              working on a common directory               *
           ************************************************************

-------------------------------------------------------------------------------------------
                                      ORCA LEAN-SCF
                              memory conserving SCF solver
-------------------------------------------------------------------------------------------

----------------------------------------D-I-I-S--------------------------------------------
Iteration    Energy (Eh)           Delta-E    RMSDP     MaxDP     DIISErr   Damp  Time(sec)
-------------------------------------------------------------------------------------------
               ***  Starting incremental Fock matrix formation  ***
    1    -227.7793989283185283     0.00e+00  7.23e-03  7.97e-02  3.04e-01  0.700   0.3
    2    -227.8754869379338857    -9.61e-02  4.61e-03  5.23e-02  9.01e-02  0.700   0.3
                               ***Turning on AO-DIIS***
    3    -227.9002250257192941    -2.47e-02  1.55e-03  1.25e-02  3.08e-02  0.700   0.3
    4    -227.9184064521362529    -1.82e-02  1.96e-03  1.50e-02  2.38e-02  0.000   0.3
    5    -227.9622484437849153    -4.38e-02  9.82e-04  1.07e-02  1.54e-02  0.000   0.3
    6    -227.9628803904921597    -6.32e-04  3.38e-04  2.42e-03  4.31e-03  0.000   0.3
                              *** Initializing SOSCF ***
---------------------------------------S-O-S-C-F--------------------------------------
Iteration    Energy (Eh)           Delta-E    RMSDP     MaxDP     MaxGrad    Time(sec)
--------------------------------------------------------------------------------------
    7    -227.9629297966832269    -4.94e-05  1.44e-04  1.24e-03  1.65e-03     0.3
               *** Restarting incremental Fock matrix formation ***
    8    -227.9629395944919565    -9.80e-06  1.03e-04  1.13e-03  1.78e-04     0.3
    9    -227.9629373979277602     2.20e-06  5.23e-05  4.42e-04  7.56e-04     0.3
   10    -227.9629406308367834    -3.23e-06  4.60e-05  5.38e-04  1.13e-04     0.3
   11    -227.9629406228536368     7.98e-09  1.32e-05  1.09e-04  1.08e-04     0.3
                 **** Energy Check signals convergence ****

               *****************************************************
               *                     SUCCESS                       *
               *           SCF CONVERGED AFTER  11 CYCLES          *
               *****************************************************

             **** ENERGY FILE WAS UPDATED (/cluster/projects/nn14654k/ylvaos/basis_set_n_funcs/functionals/gga_x_pw91/CH3COOH/inp/CH3COOH_gga_x_pw91_ccpvtz.en.tmp) ****

----------------
TOTAL SCF ENERGY
----------------

Total Energy       :       -227.96294076998652 Eh           -6203.18698 eV

Components:
Nuclear Repulsion  :        120.69328850461517 Eh            3284.23135 eV
Electronic Energy  :       -348.65622927460174 Eh           -9487.41833 eV
One Electron Energy:       -551.00110067924629 Eh          -14993.50220 eV
Two Electron Energy:        202.34487140464458 Eh            5506.08387 eV

Virial components:
Potential Energy   :       -455.62948217050837 Eh          -12398.30853 eV
Kinetic Energy     :        227.66654140052185 Eh            6195.12155 eV
Virial Ratio       :          2.00130190131427

DFT components:
N(Alpha)           :       15.999986841920 electrons
N(Beta)            :       15.999986841920 electrons
N(Total)           :       31.999973683841 electrons
E(X)               :      -28.268899969674 Eh       
E(C)               :        0.000000000000 Eh       
E(XC)              :      -28.268899969674 Eh       

---------------
SCF CONVERGENCE
---------------

  Last Energy change         ...   -7.9831e-09  Tolerance :   1.0000e-08
  Last MAX-Density change    ...    1.0869e-04  Tolerance :   1.0000e-07
  Last RMS-Density change    ...    1.3208e-05  Tolerance :   5.0000e-09
  Last DIIS Error            ...    1.6483e-03  Tolerance :   5.0000e-07
  Last Orbital Gradient      ...    1.0787e-04  Tolerance :   1.0000e-05
  Last Orbital Rotation      ...    1.2513e-04  Tolerance :   1.0000e-05


----------------
ORBITAL ENERGIES
----------------

  NO   OCC          E(Eh)            E(eV) 
   0   2.0000     -18.787341      -511.2295 
   1   2.0000     -18.729523      -509.6562 
   2   2.0000     -10.001697      -272.1600 
   3   2.0000      -9.889878      -269.1173 
   4   2.0000      -0.974830       -26.5265 
   5   2.0000      -0.888880       -24.1876 
   6   2.0000      -0.656368       -17.8607 
   7   2.0000      -0.517151       -14.0724 
   8   2.0000      -0.403403       -10.9772 
   9   2.0000      -0.388557       -10.5732 
  10   2.0000      -0.387802       -10.5526 
  11   2.0000      -0.336471        -9.1558 
  12   2.0000      -0.316212        -8.6046 
  13   2.0000      -0.313846        -8.5402 
  14   2.0000      -0.246683        -6.7126 
  15   2.0000      -0.199976        -5.4416 
  16   0.0000      -0.002779        -0.0756 
  17   0.0000       0.018432         0.5016 
  18   0.0000       0.046762         1.2725 
  19   0.0000       0.094865         2.5814 
  20   0.0000       0.100887         2.7453 
  21   0.0000       0.158132         4.3030 
  22   0.0000       0.190614         5.1869 
  23   0.0000       0.232992         6.3400 
  24   0.0000       0.250658         6.8208 
  25   0.0000       0.267502         7.2791 
  26   0.0000       0.306957         8.3527 
*Only the first 10 virtual orbitals were printed.

                    ********************************
                    * MULLIKEN POPULATION ANALYSIS *
                    ********************************

-----------------------
MULLIKEN ATOMIC CHARGES
-----------------------
   0 C :    0.265294
   1 C :   -0.225084
   2 O :   -0.276126
   3 O :   -0.231281
   4 H :    0.190677
   5 H :    0.093278
   6 H :    0.091621
   7 H :    0.091621
Sum of atomic charges:    0.0000000

--------------------------------
MULLIKEN REDUCED ORBITAL CHARGES
--------------------------------
  0 C s       :     3.082714  s :     3.082714
      pz      :     0.799457  p :     2.418774
      px      :     0.790823
      py      :     0.828494
      dz2     :     0.013403  d :     0.212668
      dxz     :     0.027557
      dyz     :     0.047319
      dx2y2   :     0.047651
      dxy     :     0.076739
      f0      :     0.002572  f :     0.020550
      f+1     :     0.001046
      f-1     :     0.001101
      f+2     :     0.002529
      f-2     :     0.001370
      f+3     :     0.007260
      f-3     :     0.004672

  1 C s       :     3.226197  s :     3.226197
      pz      :     1.010895  p :     2.958396
      px      :     0.966781
      py      :     0.980719
      dz2     :     0.006352  d :     0.036884
      dxz     :     0.002896
      dyz     :     0.011605
      dx2y2   :     0.005088
      dxy     :     0.010942
      f0      :     0.000194  f :     0.003607
      f+1     :     0.000390
      f-1     :     0.000814
      f+2     :     0.000036
      f-2     :     0.000301
      f+3     :     0.000742
      f-3     :     0.001130

  2 O s       :     3.702546  s :     3.702546
      pz      :     1.384456  p :     4.538577
      px      :     1.760256
      py      :     1.393865
      dz2     :     0.003329  d :     0.032777
      dxz     :     0.000330
      dyz     :     0.010267
      dx2y2   :     0.010486
      dxy     :     0.008364
      f0      :     0.000208  f :     0.002226
      f+1     :     0.000035
      f-1     :     0.000291
      f+2     :     0.000432
      f-2     :     0.000043
      f+3     :     0.000607
      f-3     :     0.000610

  3 O s       :     3.705795  s :     3.705795
      pz      :     1.730232  p :     4.497577
      px      :     1.221803
      py      :     1.545541
      dz2     :     0.003920  d :     0.026451
      dxz     :     0.003149
      dyz     :     0.002707
      dx2y2   :     0.005939
      dxy     :     0.010736
      f0      :     0.000203  f :     0.001458
      f+1     :     0.000345
      f-1     :     0.000169
      f+2     :     0.000069
      f-2     :     0.000083
      f+3     :     0.000277
      f-3     :     0.000312

  4 H s       :     0.730847  s :     0.730847
      pz      :     0.028309  p :     0.071546
      px      :     0.018795
      py      :     0.024443
      dz2     :     0.000609  d :     0.006930
      dxz     :     0.001044
      dyz     :     0.001555
      dx2y2   :     0.001716
      dxy     :     0.002006

  5 H s       :     0.876883  s :     0.876883
      pz      :     0.010399  p :     0.027299
      px      :     0.007562
      py      :     0.009339
      dz2     :     0.000114  d :     0.002539
      dxz     :     0.000698
      dyz     :     0.000224
      dx2y2   :     0.000832
      dxy     :     0.000672

  6 H s       :     0.873766  s :     0.873766
      pz      :     0.009521  p :     0.032053
      px      :     0.011086
      py      :     0.011446
      dz2     :     0.000767  d :     0.002560
      dxz     :     0.000600
      dyz     :     0.000492
      dx2y2   :     0.000280
      dxy     :     0.000421

  7 H s       :     0.873766  s :     0.873766
      pz      :     0.009521  p :     0.032053
      px      :     0.011086
      py      :     0.011446
      dz2     :     0.000767  d :     0.002560
      dxz     :     0.000600
      dyz     :     0.000492
      dx2y2   :     0.000280
      dxy     :     0.000421



                     *******************************
                     * LOEWDIN POPULATION ANALYSIS *
                     *******************************

----------------------
LOEWDIN ATOMIC CHARGES
----------------------
   0 C :   -0.508284
   1 C :    0.108454
   2 O :    0.176682
   3 O :    0.436883
   4 H :   -0.162202
   5 H :   -0.019453
   6 H :   -0.016040
   7 H :   -0.016040

-------------------------------
LOEWDIN REDUCED ORBITAL CHARGES
-------------------------------
  0 C s       :     2.766371  s :     2.766371
      pz      :     0.757968  p :     2.669526
      px      :     0.887976
      py      :     1.023581
      dz2     :     0.062347  d :     0.925290
      dxz     :     0.104696
      dyz     :     0.159099
      dx2y2   :     0.248578
      dxy     :     0.350570
      f0      :     0.007741  f :     0.147097
      f+1     :     0.007193
      f-1     :     0.011486
      f+2     :     0.023227
      f-2     :     0.010585
      f+3     :     0.054648
      f-3     :     0.032218

  1 C s       :     2.669775  s :     2.669775
      pz      :     0.989407  p :     2.931384
      px      :     0.969282
      py      :     0.972695
      dz2     :     0.046961  d :     0.260567
      dxz     :     0.015937
      dyz     :     0.070756
      dx2y2   :     0.052487
      dxy     :     0.074427
      f0      :     0.001530  f :     0.029821
      f+1     :     0.004608
      f-1     :     0.005689
      f+2     :     0.003779
      f-2     :     0.002564
      f+3     :     0.004855
      f-3     :     0.006795

  2 O s       :     3.381229  s :     3.381229
      pz      :     1.296950  p :     4.371642
      px      :     1.599700
      py      :     1.474991
      dz2     :     0.008142  d :     0.065038
      dxz     :     0.000469
      dyz     :     0.013071
      dx2y2   :     0.024856
      dxy     :     0.018500
      f0      :     0.000416  f :     0.005409
      f+1     :     0.000130
      f-1     :     0.000772
      f+2     :     0.000672
      f-2     :     0.000114
      f+3     :     0.001707
      f-3     :     0.001598

  3 O s       :     3.203999  s :     3.203999
      pz      :     1.552218  p :     4.283724
      px      :     1.232323
      py      :     1.499183
      dz2     :     0.009331  d :     0.070229
      dxz     :     0.008252
      dyz     :     0.002542
      dx2y2   :     0.018186
      dxy     :     0.031918
      f0      :     0.000352  f :     0.005166
      f+1     :     0.000586
      f-1     :     0.000255
      f+2     :     0.000153
      f-2     :     0.000486
      f+3     :     0.001660
      f-3     :     0.001673

  4 H s       :     0.733483  s :     0.733483
      pz      :     0.092715  p :     0.334840
      px      :     0.095807
      py      :     0.146319
      dz2     :     0.008334  d :     0.093879
      dxz     :     0.013178
      dyz     :     0.017856
      dx2y2   :     0.028591
      dxy     :     0.025919

  5 H s       :     0.838482  s :     0.838482
      pz      :     0.040993  p :     0.151468
      px      :     0.066062
      py      :     0.044414
      dz2     :     0.002601  d :     0.029502
      dxz     :     0.007202
      dyz     :     0.002244
      dx2y2   :     0.009066
      dxy     :     0.008389

  6 H s       :     0.831204  s :     0.831204
      pz      :     0.060935  p :     0.155558
      px      :     0.040671
      py      :     0.053952
      dz2     :     0.009046  d :     0.029277
      dxz     :     0.005566
      dyz     :     0.008065
      dx2y2   :     0.002950
      dxy     :     0.003650

  7 H s       :     0.831204  s :     0.831204
      pz      :     0.060935  p :     0.155558
      px      :     0.040671
      py      :     0.053952
      dz2     :     0.009046  d :     0.029277
      dxz     :     0.005566
      dyz     :     0.008065
      dx2y2   :     0.002950
      dxy     :     0.003650



                      *****************************
                      * MAYER POPULATION ANALYSIS *
                      *****************************

  NA   - Mulliken gross atomic population
  ZA   - Total nuclear charge
  QA   - Mulliken gross atomic charge
  VA   - Mayer's total valence
  BVA  - Mayer's bonded valence
  FA   - Mayer's free valence

  ATOM       NA         ZA         QA         VA         BVA        FA
  0 C      5.7347     6.0000     0.2653     4.3814     4.3814     0.0000
  1 C      6.2251     6.0000    -0.2251     3.8007     3.8007     0.0000
  2 O      8.2761     8.0000    -0.2761     2.3220     2.3220    -0.0000
  3 O      8.2313     8.0000    -0.2313     2.2721     2.2721    -0.0000
  4 H      0.8093     1.0000     0.1907     1.0681     1.0681    -0.0000
  5 H      0.9067     1.0000     0.0933     1.0029     1.0029     0.0000
  6 H      0.9084     1.0000     0.0916     1.0009     1.0009     0.0000
  7 H      0.9084     1.0000     0.0916     1.0009     1.0009    -0.0000

  Mayer bond orders larger than 0.100000
B(  0-C ,  1-C ) :   0.9363 B(  0-C ,  2-O ) :   2.1578 B(  0-C ,  3-O ) :   1.2438 
B(  1-C ,  5-H ) :   0.9677 B(  1-C ,  6-H ) :   0.9514 B(  1-C ,  7-H ) :   0.9514 
B(  3-O ,  4-H ) :   0.9630 

-------
TIMINGS
-------

Total SCF time: 0 days 0 hours 0 min 3 sec 

Total time                  ....       3.646 sec
Sum of individual times     ....       3.382 sec  ( 92.7%)

SCF preparation             ....       0.064 sec  (  1.8%)
Fock matrix formation       ....       3.108 sec  ( 85.2%)
  Startup                   ....       0.008 sec  (  0.2% of F)
  Coulomb formation         ....       2.671 sec  ( 85.9% of F)
  XC integration            ....       0.523 sec  ( 16.8% of F)
    XC Preparation          ....       0.000 sec  (  0.0% of XC)
    Basis function eval.    ....       0.092 sec  ( 17.6% of XC)
    Density eval.           ....       0.059 sec  ( 11.4% of XC)
    XC-Functional eval.     ....       0.022 sec  (  4.3% of XC)
    XC-Potential eval.      ....       0.126 sec  ( 24.2% of XC)
Diagonalization             ....       0.000 sec  (  0.0%)
Density matrix formation    ....       0.045 sec  (  1.2%)
Total Energy calculation    ....       0.013 sec  (  0.3%)
Population analysis         ....       0.011 sec  (  0.3%)
Orbital Transformation      ....       0.015 sec  (  0.4%)
Orbital Orthonormalization  ....       0.000 sec  (  0.0%)
DIIS solution               ....       0.078 sec  (  2.1%)
SOSCF solution              ....       0.048 sec  (  1.3%)
Finished LeanSCF after   3.7 sec

Maximum memory used throughout the entire LEANSCF-calculation: 14.3 MB


           ************************************************************
           *        Program running with 8 parallel MPI-processes     *
           *              working on a common directory               *
           ************************************************************

------------------------------------------------------------------------------
                         ORCA PROPERTY INTEGRAL CALCULATIONS
------------------------------------------------------------------------------

GBWName                                   ... /cluster/projects/nn14654k/ylvaos/basis_set_n_funcs/functionals/gga_x_pw91/CH3COOH/inp/CH3COOH_gga_x_pw91_ccpvtz.gbw
Number of atoms                           ...      8
Number of basis functions                 ...    200
Max core memory                           ...   4096 MB

Dipole integrals                          ... YES
Quadrupole integrals                      ... YES
Linear momentum integrals                 ...  NO
Angular momentum integrals                ...  NO
Higher moments length integrals           ...  NO
Higher moments velocity integrals         ...  NO
Kinetic energy integrals                  ...  NO
GIAO right hand sides                     ...  NO
GIAO dipole derivative integrals          ...  NO
SOC integrals                             ...  NO
EPR diamagnetic integrals (GIAO)          ...  NO
EPR gauge integrals                       ...  NO
Field gradient integrals                  ...  NO (   0 nuclei)
Spin-dipole/Fermi contact integrals       ...  NO (   0 nuclei)
Contact density integrals                 ...  NO (   0 nuclei)
Nucleus-orbit integrals                   ...  NO (   0 nuclei)
Geometric perturbations                   ...  NO (   8 nuclei)

Choice of electric origin   ... Center of mass
Position of electric origin ... ( -0.0657,  0.0975,  0.0000) 
Choice of magnetic origin   ... GIAO
Position of magnetic origin ... (  0.0000,  0.0000,  0.0000) 

Calculating integrals                     ... Electric Dipole (Length)     done (  0.0 sec)
Calculating integrals                     ... Electric Quadrupole (Length) done (  0.0 sec)

Property integrals calculated in   0.0 sec

Maximum memory used throughout the entire PROPINT-calculation: 10.8 MB
------------------------------------------------------------------------------
                           ORCA ORBITAL LOCALIZATION
------------------------------------------------------------------------------

Input orbitals are from                  ... /cluster/projects/nn14654k/ylvaos/basis_set_n_funcs/functionals/gga_x_pw91/CH3COOH/inp/CH3COOH_gga_x_pw91_ccpvtz.gbw
Output orbitals are to                   ... /cluster/projects/nn14654k/ylvaos/basis_set_n_funcs/functionals/gga_x_pw91/CH3COOH/inp/CH3COOH_gga_x_pw91_ccpvtz.loc
Max. number of iterations                ... 128
Localizations seeded randomly            ... on
Convergence tolerance                    ... 1.000e-06
Threshold for strong local MOs           ... 9.500e-01
Threshold for bond MOs                   ... 8.500e-01
Operator                                 ... 0
Orbital range for localization           ... 4 to 15
Localization criterion                   ... NEW-BOYS
Doing the dipole integrals               ... o.k.
Initial value of the localization sum :    58.803196
ITERATION   0 : L=   78.6630892546 DL=  1.99e+01 (AVERGE_DL)=    0.5485503319 
ITERATION   1 : L=   81.1165318220 DL=  2.45e+00 (AVERGE_DL)=    0.1928039736 
ITERATION   2 : L=   81.2803119566 DL=  1.64e-01 (AVERGE_DL)=    0.0498148290 
ITERATION   3 : L=   81.2983124376 DL=  1.80e-02 (AVERGE_DL)=    0.0165146771 
ITERATION   4 : L=   81.3039615976 DL=  5.65e-03 (AVERGE_DL)=    0.0092516665 
ITERATION   5 : L=   81.3063945419 DL=  2.43e-03 (AVERGE_DL)=    0.0060714736 
ITERATION   6 : L=   81.3078598675 DL=  1.47e-03 (AVERGE_DL)=    0.0047118896 
ITERATION   7 : L=   81.3088313594 DL=  9.71e-04 (AVERGE_DL)=    0.0038366098 
ITERATION   8 : L=   81.3094765254 DL=  6.45e-04 (AVERGE_DL)=    0.0031265384 
ITERATION   9 : L=   81.3098979978 DL=  4.21e-04 (AVERGE_DL)=    0.0025270426 
ITERATION  10 : L=   81.3101697047 DL=  2.72e-04 (AVERGE_DL)=    0.0020289831 
ITERATION  11 : L=   81.3103434681 DL=  1.74e-04 (AVERGE_DL)=    0.0016225840 
ITERATION  12 : L=   81.3104541495 DL=  1.11e-04 (AVERGE_DL)=    0.0012949867 
ITERATION  13 : L=   81.3105245439 DL=  7.04e-05 (AVERGE_DL)=    0.0010327542 
ITERATION  14 : L=   81.3105693107 DL=  4.48e-05 (AVERGE_DL)=    0.0008235806 
ITERATION  15 : L=   81.3105977985 DL=  2.85e-05 (AVERGE_DL)=    0.0006569887 
ITERATION  16 : L=   81.3106159447 DL=  1.81e-05 (AVERGE_DL)=    0.0005243486 
ITERATION  17 : L=   81.3106275175 DL=  1.16e-05 (AVERGE_DL)=    0.0004187425 
ITERATION  18 : L=   81.3106349043 DL=  7.39e-06 (AVERGE_DL)=    0.0003345482 
ITERATION  19 : L=   81.3106396247 DL=  4.72e-06 (AVERGE_DL)=    0.0002674329 
ITERATION  20 : L=   81.3106426435 DL=  3.02e-06 (AVERGE_DL)=    0.0002138682 
ITERATION  21 : L=   81.3106445752 DL=  1.93e-06 (AVERGE_DL)=    0.0001710793 
ITERATION  22 : L=   81.3106458125 DL=  1.24e-06 (AVERGE_DL)=    0.0001369208 
ITERATION  23 : L=   81.3106466055 DL=  7.93e-07 (AVERGE_DL)=    0.0001096100 
LOCALIZATION SUM CONVERGED


--------------------------------------------------------------------------------
                    LOCALIZED MOLECULAR ORBITAL COMPOSITIONS
--------------------------------------------------------------------------------

The Mulliken populations for each LMO on each atom are computed
The LMO`s will be ordered according to atom index and type
  (A) Strongly localized MO`s have populations of >=0.950 on one atom
  (B) Two center bond orbitals have populations of >=0.850 on two atoms
  (C) Other MO`s are considered to be `delocalized`

FOUND  -   1 strongly local MO`s
       -  11 two center bond MO`s
       -   0 significantly delocalized MO`s

Rather strongly localized orbitals:
MO   4:   3O  -   0.953680
Bond-like localized orbitals:
MO  15:   7H  -   0.468293  and   1C  -   0.532469
MO  14:   6H  -   0.468307  and   1C  -   0.532458
MO  13:   5H  -   0.466287  and   1C  -   0.555168
MO  12:   4H  -   0.382225  and   3O  -   0.629301
MO  11:   3O  -   0.703876  and   0C  -   0.323360
MO  10:   3O  -   0.861838  and   0C  -   0.132997
MO   9:   2O  -   0.662507  and   0C  -   0.351089
MO   8:   2O  -   0.912660  and   0C  -   0.079127
MO   7:   2O  -   0.662856  and   0C  -   0.350502
MO   6:   2O  -   0.918020  and   0C  -   0.087110
MO   5:   1C  -   0.525836  and   0C  -   0.503154
Localized MO's were stored in: /cluster/projects/nn14654k/ylvaos/basis_set_n_funcs/functionals/gga_x_pw91/CH3COOH/inp/CH3COOH_gga_x_pw91_ccpvtz.loc

-------------------------   --------------------
FINAL SINGLE POINT ENERGY      -227.962940769987
-------------------------   --------------------



           ************************************************************
           *        Program running with 8 parallel MPI-processes     *
           *              working on a common directory               *
           ************************************************************

------------------------------------------------------------------------------
                              ORCA PROPERTY CALCULATIONS
------------------------------------------------------------------------------

GBWName                                 ... /cluster/projects/nn14654k/ylvaos/basis_set_n_funcs/functionals/gga_x_pw91/CH3COOH/inp/CH3COOH_gga_x_pw91_ccpvtz.gbw
Number of atoms                         ...      8
Number of basis functions               ...    200
Max core memory                         ...   4096 MB

Electric properties:
Dipole moment                           ... YES
Quadrupole moment                       ... YES
Static polarizability (Dipole/Dipole)   ...  NO
Static polarizability (Dipole/Quad.)    ...  NO
Static polarizability (Quad./Quad.)     ...  NO
Static polarizability (Velocity)        ...  NO
Static hyperpolarizability              ...  NO

Atomic electric properties:
Dipole moment                           ...  NO
Quadrupole moment                       ...  NO
Static polarizability                   ...  NO

Choice of electric origin               ... Center of mass
Position of electric origin             ...    -0.065707     0.097461     0.000000

General magnetic properties:
Magnetizability                         ...  NO

EPR properties:
g-Tensor (aka g-matrix)                 ...  NO
Zero-Field splitting spin-orbit         ...  NO
Zero-field splitting spin-spin          ...  NO
Hyperfine couplings                     ...  NO (   0 nuclei)
Quadrupole couplings                    ...  NO (   0 nuclei)
Contact density                         ...  NO (   0 nuclei)

NMR properties:
Chemical shifts                         ...  NO (   0 nuclei)
Spin-rotation constants                 ...  NO (   0 nuclei)
Spin-spin couplings                     ...  NO (   0 nuclei,    0 pairs)

Choice of magnetic origin               ... GIAO
Position of magnetic origin             ...     0.000000     0.000000     0.000000

Properties with geometric perturbations:
SCF Hessian                             ...  NO
IR spectrum                             ...  NO
VCD spectrum                            ...  NO
X-ray spectroscopy properties:
SCF XES/XAS/RIXS spectra                ...  NO

SCF SOC stabilization energy            ...  NO
Diagonal Born-Oppenheimer correction    ...  NO

-------------
DIPOLE MOMENT
-------------

Method             : SCF
Type of density    : Electron Density
Multiplicity       :   1
Irrep              :   0
Energy             :  -227.9629407699865169 Eh
Basis              : AO
                                X                 Y                 Z
Electronic contribution:     -2.241320845       2.493430949       0.000000001
Nuclear contribution   :      2.102617427      -3.118765285       0.000000000
                        -----------------------------------------
Total Dipole Moment    :     -0.138703418      -0.625334336       0.000000001
                        -----------------------------------------
Magnitude (a.u.)       :      0.640532333
Magnitude (Debye)      :      1.628103802



--------------------
Rotational spectrum 
--------------------
 
Rotational constants in cm-1:             0.373252             0.316126             0.176788 
Rotational constants in MHz :         11189.819630          9477.229268          5299.974115 

Dipole components along the rotational axes: 
x,y,z [a.u.] :    -0.300742    -0.565540     0.000000 
x,y,z [Debye]:    -0.764427    -1.437489     0.000000 

 

Dipole moment calculation done in   0.0 sec 

-----------------
QUADRUPOLE MOMENT
-----------------

Method             : SCF
Type of density    : Electron Density
Multiplicity       :   1
Irrep              :   0
Energy             :  -227.9629407699865169 Eh
Basis              : AO

                XX              YY              ZZ              XY              XZ              YZ
  NUC      103.447904006    93.335807526     5.552847104   -15.402641721     0.000000000     0.000000000
  EL      -119.059109954  -113.916566229   -23.101742272    12.954987912     0.000000001    -0.000000005
  TOT      -15.611205948   -20.580758703   -17.548895168    -2.447653809     0.000000001    -0.000000005 (a.u.)
           -20.997605903   -27.681824318   -23.603864173    -3.292178082     0.000000001    -0.000000006 (Buckingham)

diagonalized tensor:
           -21.583835937   -17.548895168   -14.608128714 (a.u.)
           -29.030997502   -23.603864173   -19.648432719 (Buckingham)
           -14.809698113     1.471701876    13.337996238 (traceless form in Buckingham)

             0.379204135     0.000000001     0.925313041
             0.925313041     0.000000001    -0.379204135
             0.000000001    -1.000000000     0.000000001
        
Isotropic quadrupole :   -17.913619940

Quadrupole moment calculation done in   0.0 sec (  0.0 sec for integrals)

Maximum memory used throughout the entire PROP-calculation: 7.4 MB

--------------------------------
SUGGESTED CITATIONS FOR THIS RUN
--------------------------------

Below you find a list of papers that are relevant to this ORCA run
We neither can nor want to force you to cite these papers, but we appreciate if you do
You receive ORCA, which is the product of decades of hard work by many enthusiastic individuals, for free
The only thing we kindly ask in return is that you cite our papers,
We deeply appreciate it, if you show your appreciation for ORCA by not just citing the generic ORCA reference.

Please note that relegating all ORCA citations to the supporting information does *not* help us.
SI sections are not indexed - citations you put there will not count into any citation statistics
But we need these citations in order to attract the funding resources that allow us to do what we are doing

Therefore, if you are a happy ORCA user, please consider citing a few of the papers listed below in the main body of your paper

In addition to the list printed below, the program has created the file /cluster/projects/nn14654k/ylvaos/basis_set_n_funcs/functionals/gga_x_pw91/CH3COOH/inp/CH3COOH_gga_x_pw91_ccpvtz.bibtex that contains the list in bibtex format
You can import this file easily into all common literature databanks and citation aid programs

It goes without saying that in many instances, there are alternative algorithms to achieve similar
results as the ones you have gotten from ORCA. It is, of course, also the case that in some instances
ORCA just re-implements algorithms worked out by others. We are fully aware of that and we are also
fully appreciative of our colleagues work. Hence this citation list should not be read as indicating
that the listed papers, which are focused on our own work, are the only ones worth citing. It simply
meant to make it easier for users to cite ORCA specific papers. It is not a substitute for doing your
own literature research and citing the relevant literature in a scientifically appropriate manner.

List of essential papers. We consider these as the minimum necessary citations

  1. Neese, F.
     Software update: the ORCA program system, version 6.0
     WIRES Comput. Molec. Sci. 2025 15(1), e70019
     doi.org/10.1002/wcms.70019

List of papers to cite with high priority. The work reported in these papers was absolutely
necessary for this run to complete.
Our perspective: the developers of density functionals and basis sets usually get cited in chemistry papers
Good! But without the algorithms to do something with them, the functionals or basis sets would not do anything.
Hence, in our opinion, the algorithm design and method developments papers are equally worthy of getting cited

  1. Lehtola, S.; Steigemann, C.; Oliveira, M.; Marques, M.
     Recent developments in Libxc - A comprehensive library of functionals for density functional theory
     Software X 2018 7 , 
     doi.org/10.1016/j.softx.2017.11.002
  2. Neese, F.
     The SHARK Integral Generation and Digestion System
     J. Comp. Chem. 2022 44(3), 381
     doi.org/10.1002/jcc.26942

List of suggested additional citations. These are papers that are important in the 'surrounding' of 
of this run, or papers that preceded the highly important papers. If you like your results we are grateful for a citation.

  1. Neese, F.
     The ORCA program system
     WIRES Comput. Molec. Sci. 2012 2(1), 73-78
     doi.org/10.1002/wcms.81
  2. Neese, F.
     Software update: the ORCA program system, version 4.0
     WIRES Comput. Molec. Sci. 2018 8(1), 1-6
     doi.org/10.1002/wcms.1327
  3. Neese, F.; Wennmohs, F.; Becker, U.; Riplinger, C.
     The ORCA quantum chemistry program package
     J. Chem. Phys. 2020 152(22), 224108
     doi.org/10.1063/5.0004608
  4. Neese, F.
     Software update: The ORCA program system—Version 5.0
     WIRES Comput. Molec. Sci. 2022 12(1), e1606
     doi.org/10.1002/wcms.1606

List of optional additional citations

  1. Neese, F.
     Approximate second-order SCF convergence for spin unrestricted wavefunctions
     Chem. Phys. Lett. 2000 325(1-3), 93-98
     doi.org/10.1016/s0009-2614(00)00662-x

Timings for individual modules:

Sum of individual times          ...        5.621 sec (=   0.094 min)
Startup calculation              ...        0.901 sec (=   0.015 min)  16.0 %
SCF iterations                   ...        4.173 sec (=   0.070 min)  74.2 %
Property integrals               ...        0.280 sec (=   0.005 min)   5.0 %
Property calculations            ...        0.262 sec (=   0.004 min)   4.7 %
Orbital localization             ...        0.006 sec (=   0.000 min)   0.1 %
                             ****ORCA TERMINATED NORMALLY****
TOTAL RUN TIME: 0 days 0 hours 0 minutes 6 seconds 448 msec
