
                                 *****************
                                 * O   R   C   A *
                                 *****************

                                            #,                                       
                                            ###                                      
                                            ####                                     
                                            #####                                    
                                            ######                                   
                                           ########,                                 
                                     ,,################,,,,,                         
                               ,,#################################,,                 
                          ,,##########################################,,             
                       ,#########################################, ''#####,          
                    ,#############################################,,   '####,        
                  ,##################################################,,,,####,       
                ,###########''''           ''''###############################       
              ,#####''   ,,,,##########,,,,          '''####'''          '####       
            ,##' ,,,,###########################,,,                        '##       
           ' ,,###''''                  '''############,,,                           
         ,,##''                                '''############,,,,        ,,,,,,###''
      ,#''                                            '''#######################'''  
     '                                                          ''''####''''         
             ,#######,   #######,   ,#######,      ##                                
            ,#'     '#,  ##    ##  ,#'     '#,    #''#        ,####,    ,#,          
            ##       ##  ##   ,#'  ##            #'  '#       #'       ,# #          
            ##       ##  #######   ##           ,######,      #####,      #          
            '#,     ,#'  ##    ##  '#,     ,#' ,#      #,     #,   #      #          
             '#######'   ##     ##  '#######'  #'      '#     '####' #    #          



                #########################################################
                #                        -***-                          #
                #          Department of theory and spectroscopy        #
                #                                                       #
                #                      Frank Neese                      #
                #                                                       #
                #     Directorship, Architecture, Infrastructure        #
                #                    SHARK, DRIVERS                     #
                #        Core code/Algorithms in most modules           #
                #                                                       #
                #        Max Planck Institute fuer Kohlenforschung      #
                #                Kaiser Wilhelm Platz 1                 #
                #                 D-45470 Muelheim/Ruhr                 #
                #                      Germany                          #
                #                                                       #
                #                  All rights reserved                  #
                #                        -***-                          #
                #########################################################


                         Program Version 6.1.1  -  RELEASE   -
                                (GIT: $487d211c$)
                          ($2025-11-21 10:33:24 +0100$)


 With contributions from (in alphabetic order):
[Max-Planck-Institut fuer Kohlenforschung]                               
  Daniel Aravena         : Magnetic Suceptibility                        
  Michael Atanasov       : Ab Initio Ligand Field Theory (pilot matlab implementation)
  Alexander A. Auer      : GIAO ZORA, VPT2 properties, NMR spectrum      
  Ute Becker             : All parallelization in ORCA, NUMFREQ, NUMCALC 
  Giovanni Bistoni       : ED, misc. LED, open-shell LED, HFLD           
  Dmytro Bykov           : pre 5.0 version of the SCF Hessian            
  Marcos Casanova-Páez   : Triplet and SCS-CIS(D). UHF-(DLPNO)-IP/EA/STEOM-CCSD. UHF-CVS-IP/STEOM-CCSD   
  Vijay G. Chilkuri      : MRCI spin determinant printing, contributions to CSF-ICE 
  Pauline Colinet        : FMM embedding                                 
  Dipayan Datta          : RHF DLPNO-CCSD density                        
  Achintya Kumar Dutta   : EOM-CC, STEOM-CC                              
  Nicolas Foglia         : Exact transition moments, OPA infrastructure, MCD improvements    
  Dmitry Ganyushin       : Spin-Orbit,Spin-Spin,Magnetic field MRCI      
  Miquel Garcia-Rates    : C-PCM and meta-GGA Hessian, CCSD/C-PCM, Gaussian charge scheme 
  Tiago L. C. Gouveia    : GS-ROHF, GS-ROCIS                             
  Yang Guo               : DLPNO-NEVPT2, F12-NEVPT2, CIM, IAO-localization        
  Andreas Hansen         : Spin unrestricted coupled pair/coupled cluster methods 
  Ingolf Harden          : AUTO-CI MPn and infrastructure                
  Benjamin Helmich-Paris : MC-RPA, TRAH-(SCF,CASSCF), AVAS, COSX integrals, SCF dyn. polar., MC-PDFT, srDFT 
  Lee Huntington         : MR-EOM, pCC                                   
  Robert Izsak           : Overlap fitted RIJCOSX, COSX-SCS-MP3, EOM     
  Riya Kayal             : Wick's Theorem for AUTO-CI, AUTO-CI UHF-CCSDT 
  Emily Kempfer          : AUTO-CI RHF CISDT and CCSDT, approximate NEVPT4
  Christian Kollmar      : KDIIS, OOCD, Brueckner-CCSD(T), CCSD density, CASPT2, CASPT2-K, improved NEVPT2 
  Axel Koslowski         : Symmetry handling                             
  Simone Kossmann        : meta-GGA functionals, TD-DFT gradient, OOMP2, (MP2 Hessian; deprecated post 5.0) 
  Lucas Lang             : DCDCAS, Hyperfine gauge corrections, ICE-SOC+SSC
  Marvin Lechner         : AUTO-CI (C++ implementation), FIC-MRCC        
  Spencer Leger          : CASSCF response                               
  Dagmar Lenk            : GEPOL surface, SMD, ORCA-2-JSON               
  Dimitrios Liakos       : Extrapolation schemes; Compound Job, Property file
  Dimitrios Manganas     : Further ROCIS development; embedding schemes. LFT, Crystal Embedding 
  Dimitrios Pantazis     : SARC Basis sets                               
  Anastasios Papadopoulos: AUTO-CI, single reference methods and gradients 
  Taras Petrenko         : pre 6.0 DFT Hessian and TD-DFT gradient,  ECA, NRVS 
  Petra Pikulova         : Analytic Raman intensities                    
  Peter Pinski           : DLPNO-MP2, DLPNO-MP2 Gradient                 
  Shashank Vittal Rao    : ES-AILFT, MagRelax                            
  Christoph Reimann      : Effective Core Potentials                     
  Marius Retegan         : Local ZFS, SOC                                
  Christoph Riplinger    : Optimizer, TS searches, QM/MM, DLPNO-CCSD(T), (RO)-DLPNO pert. Triples 
  Michael Roemelt        : Original ROCIS implementation, recursive CI coupling coefficients
  Masaaki Saitow         : Open-shell DLPNO-CCSD energy and density      
  Barbara Sandhoefer     : DKH picture change effects                    
  Yorick L. A. Schmerwitz: GMF and freeze-and-release deltaSCF, NEB S-IDPP initial path                    
  Kantharuban Sivalingam : CASSCF convergence/infrastructure, NEVPT2, NEVPT3, NEVPT4(SD), FIC-MRCI and CEPA variants
  Bernardo de Souza      : ESD, SOC TD-DFT                               
  Georgi L. Stoychev     : AutoAux, RI-MP2 NMR, DLPNO-MP2 response, X2C  
  Van Anh Tran           : RI-MP2 g-tensors                              
  Willem Van den Heuvel  : Paramagnetic NMR                              
  Zikuan Wang            : NOTCH, Electric field optimization            
  Frank Wennmohs         : Technical directorship and infrastructure     
  Hang Xu                : AUTO-CI-Response properties                   
                                                                         
[FACCTs GmbH]                                                            
  Markus Bursch, Nicolas Foglia, Miquel Garcia-Rates, Ingolf Harden, Hagen Neugebauer, Anastasios Papadopoulos, 
  Christoph Riplinger, Bernardo de Souza, Georgi L. Stoychev                                                    
                                                                 
  APM, various basis sets, CI-OPT, improved COSX, DLPNO-Multilevel,           
  DOCKER, DRACO, updates on ESD, Fragmentator, GOAT, IRC, LR-CPCM, L-BFGS, MBIS, meta-GGA TD-DFT gradient, ML-optimized integration grids, 
  MM, NACMEs, nearIR, NEB, NEB-TS, NL-DFT gradient (VV10), 2- and 3-layer-ONIOM, interface openCOSMO-RS, QMMM,   
  Crystal-QMMM, RESP, rigid body optimization, SF, symmetry and pop. for TD-DFT, various functionals, SOLVATOR                                   
                                                                         
[Other institutions]                                                     
  V. Asgeirsson          : NEB                                           
  Christoph Bannwarth    : sTDA-DFT, sTD-DFT, PBEh-3c, B97-3c, D3        
  Giovanni Bistoni       : ETS/NOCV, ADLD/ADEX, COVALED                  
  Martin Brehm           : Molecular dynamics                            
  Ronald Cardenas        : ETS/NOCV                                      
  Martina Colucci        : COVALED                                       
  Sebastian Ehlert       : rSCAN, r2SCAN, r2SCAN-3c, D4, dhf basis sets  
  Marvin Friede          : D4 for Fr, Ra, Ac-Lr                          
  Lars Goerigk           : TD-DFT with DH, B97 family of functionals     
  Stefan Grimme          : VdW corrections, initial TS optimization, DFT functionals, gCP, sTDA/sTD-DF 
  Waldemar Hujo          : DFT-NL                                        
  H. Jonsson             : NEB                                           
  Holger Kruse           : gCP                                           
  Marcel Mueller         : wB97X-3c, vDZP basis set                      
  Hagen Neugebauer       : wr2SCAN, Native XTB                           
  Gianluca Regni         : ADLD/ADEX                                     
  Tobias Risthaus        : pre 6.0 range-separated hybrid DFT and stability analysis
  Lukas Wittmann         : regularized MP2, r2SCAN double-hybrids, wr2SCAN        
                                                                         
We gratefully acknowledge several colleagues who have allowed us to      
interface, adapt or use parts of their codes:                            
  Ed Valeev, F. Pavosevic, A. Kumar             : LibInt (2-el integral package), F12 methods 
  Garnet Chan, S. Sharma, J. Yang, R. Olivares  : DMRG                   
  Ulf Ekstrom                                   : XCFun DFT Library      
  Mihaly Kallay                                 : mrcc  (arbitrary order and MRCC methods)
  Frank Weinhold                                : gennbo (NPA and NBO analysis)           
  Simon Mueller                                 : openCOSMO-RS                            
  Christopher J. Cramer and Donald G. Truhlar   : smd solvation model                     
  S Lehtola, MJT Oliveira, MAL Marques          : LibXC Library                           
  Liviu Ungur et al                             : ANISO software                          


 Your calculation uses the libint2 library for the computation of 2-el integrals
 For citations please refer to: http://libint.valeyev.net

 Your ORCA version has been built with support for libXC version: 7.0.0
 For citations please refer to: https://libxc.gitlab.io

 This ORCA versions uses:
   CBLAS   interface :  Fast vector & matrix operations
   LAPACKE interface :  Fast linear algebra routines
   SCALAPACK package :  Parallel linear algebra routines
   Shared memory     :  Shared parallel matrices
   BLAS/LAPACK       :  OpenBLAS 0.3.29  USE64BITINT DYNAMIC_ARCH NO_AFFINITY Cooperlake SINGLE_THREADED
        Core in use  :  Cooperlake
   Copyright (c) 2011-2014, The OpenBLAS Project


  ***********************************
  * Starting time: Wed May 20 12:33:32 2026
  * Host name:     c1-44
  * Process ID:    2312443
  * Working dir.:  /cluster/projects/nn14654k/ylvaos/basis_set_n_funcs/functionals/gga_x_pw91/CH3COOH/out
  ***********************************

Using LibXC functional ID 109 : Perdew & Wang 91
[ 1]  J. P. Perdew. In P. Ziesche and H. Eschrig, editors, Proceedings of the 75. WE-Heraeus-Seminar and 21st Annual International Symposium on Electronic Structure of Solids, 11. Berlin, 1991. Akademie Verlag.
[ 2]  J. P. Perdew, J. A. Chevary, S. H. Vosko, K. A. Jackson, M. R. Pederson, D. J. Singh, and C. Fiolhais.,  Phys. Rev. B 46, 6671 (1992)
[ 3]  J. P. Perdew, J. A. Chevary, S. H. Vosko, K. A. Jackson, M. R. Pederson, D. J. Singh, and C. Fiolhais.,  Phys. Rev. B 48, 4978 (1993)
Using LibXC functional ID 109 : Perdew & Wang 91
[ 1]  J. P. Perdew. In P. Ziesche and H. Eschrig, editors, Proceedings of the 75. WE-Heraeus-Seminar and 21st Annual International Symposium on Electronic Structure of Solids, 11. Berlin, 1991. Akademie Verlag.
[ 2]  J. P. Perdew, J. A. Chevary, S. H. Vosko, K. A. Jackson, M. R. Pederson, D. J. Singh, and C. Fiolhais.,  Phys. Rev. B 46, 6671 (1992)
[ 3]  J. P. Perdew, J. A. Chevary, S. H. Vosko, K. A. Jackson, M. R. Pederson, D. J. Singh, and C. Fiolhais.,  Phys. Rev. B 48, 4978 (1993)
Your calculation utilizes LibXC
by S. Lehtola, C. Steigemann, M. J. T. Oliveira & M. A. L. Marques
Please cite in your paper:
Lehtola, S.; Steigemann, C.; Oliveira, M.J.T.; Marques, M. A. L. Software X, 7, (2018), 1.
   

================================================================================

----- Orbital basis set information -----
Your calculation utilizes the basis: pcseg-2
   F. Jensen, J. Chem. Theory Comput. 10, 1074 (2014).

================================================================================
                                        WARNINGS
                       Please study these warnings very carefully!
================================================================================


================================================================================
                                       INPUT FILE
================================================================================
NAME = /cluster/projects/nn14654k/ylvaos/basis_set_n_funcs/functionals/gga_x_pw91/CH3COOH/inp/CH3COOH_gga_x_pw91_pcseg2.inp
|  1> ! dft pcseg-2 TightSCF
|  2> %pal nprocs 8 end
|  3> 
|  4> %loc
|  5>   LocMet NewBoys
|  6>   Occ true
|  7> end
|  8> 
|  9> %method
| 10>   exchange gga_x_pw91
| 11>   correlation None
| 12> end
| 13> 
| 14> %elprop
| 15>   Dipole true
| 16>   Quadrupole true
| 17> end
| 18> 
| 19> * xyz 0 1
| 20> C    0.000000000000   0.154560000000   0.000000000000
| 21> C    1.073776000000  -0.892748000000   0.000000000000
| 22> O    0.166384000000   1.360084000000   0.000000000000
| 23> O   -1.236449000000  -0.415036000000   0.000000000000
| 24> H   -1.867646000000   0.333582000000   0.000000000000
| 25> H    2.048189000000  -0.408135000000   0.000000000000
| 26> H    0.968661000000  -1.528353000000   0.881747000000
| 27> H    0.968661000000  -1.528353000000  -0.881747000000
| 28> *
| 29> 
| 30> 
| 31>                          ****END OF INPUT****
================================================================================

                       ****************************
                       * Single Point Calculation *
                       ****************************

---------------------------------
CARTESIAN COORDINATES (ANGSTROEM)
---------------------------------
  C      0.000000    0.154560    0.000000
  C      1.073776   -0.892748    0.000000
  O      0.166384    1.360084    0.000000
  O     -1.236449   -0.415036    0.000000
  H     -1.867646    0.333582    0.000000
  H      2.048189   -0.408135    0.000000
  H      0.968661   -1.528353    0.881747
  H      0.968661   -1.528353   -0.881747

----------------------------
CARTESIAN COORDINATES (A.U.)
----------------------------
  NO LB      ZA    FRAG     MASS         X           Y           Z
   0 C     6.0000    0    12.011    0.000000    0.292076    0.000000
   1 C     6.0000    0    12.011    2.029143   -1.687049    0.000000
   2 O     8.0000    0    15.999    0.314420    2.570186    0.000000
   3 O     8.0000    0    15.999   -2.336550   -0.784304    0.000000
   4 H     1.0000    0     1.008   -3.529339    0.630379    0.000000
   5 H     1.0000    0     1.008    3.870516   -0.771263    0.000000
   6 H     1.0000    0     1.008    1.830504   -2.888169    1.666260
   7 H     1.0000    0     1.008    1.830504   -2.888169   -1.666260

--------------------------------
INTERNAL COORDINATES (ANGSTROEM)
--------------------------------
 C      0   0   0     0.000000000000     0.00000000     0.00000000
 C      1   0   0     1.499949647502     0.00000000     0.00000000
 O      1   2   0     1.216951827326   126.42686784     0.00000000
 O      1   2   3     1.361339683113   110.98078396   180.00000000
 H      4   1   2     0.979203024267   105.40175469   180.00000085
 H      2   1   3     1.088269476893   109.27200725     0.00000000
 H      2   1   3     1.092025938913   109.72406365   120.93315147
 H      2   1   3     1.092025938913   109.72406365   239.06684853

---------------------------
INTERNAL COORDINATES (A.U.)
---------------------------
 C      0   0   0     0.000000000000     0.00000000     0.00000000
 C      1   0   0     2.834494048450     0.00000000     0.00000000
 O      1   2   0     2.299705671821   126.42686784     0.00000000
 O      1   2   3     2.572559176322   110.98078396   180.00000000
 H      4   1   2     1.850425545371   105.40175469   180.00000085
 H      2   1   3     2.056531271234   109.27200725     0.00000000
 H      2   1   3     2.063629955684   109.72406365   120.93315147
 H      2   1   3     2.063629955684   109.72406365   239.06684853

---------------------
BASIS SET INFORMATION
---------------------
There are 3 groups of distinct atoms

 Group   1 Type C   : 11s6p2d1f contracted to 4s3p2d1f pattern {7211/411/11/1}
 Group   2 Type O   : 11s6p2d1f contracted to 4s3p2d1f pattern {7211/411/11/1}
 Group   3 Type H   : 6s2p1d contracted to 3s2p1d pattern {411/11/1}

Atom   0C    basis set group =>   1
Atom   1C    basis set group =>   1
Atom   2O    basis set group =>   2
Atom   3O    basis set group =>   2
Atom   4H    basis set group =>   3
Atom   5H    basis set group =>   3
Atom   6H    basis set group =>   3
Atom   7H    basis set group =>   3


           ************************************************************
           *        Program running with 8 parallel MPI-processes     *
           *              working on a common directory               *
           ************************************************************
------------------------------------------------------------------------------
                             ORCA STARTUP CALCULATIONS
------------------------------------------------------------------------------
------------------------------------------------------------------------------
                   ___                                                        
                  /   \      - P O W E R E D   B Y -                         
                 /     \                                                     
                 |  |  |   _    _      __       _____    __    __             
                 |  |  |  | |  | |    /  \     |  _  \  |  |  /  |          
                  \  \/   | |  | |   /    \    | | | |  |  | /  /          
                 / \  \   | |__| |  /  /\  \   | |_| |  |  |/  /          
                |  |  |   |  __  | /  /__\  \  |    /   |      \           
                |  |  |   | |  | | |   __   |  |    \   |  |\   \          
                \     /   | |  | | |  |  |  |  | |\  \  |  | \   \       
                 \___/    |_|  |_| |__|  |__|  |_| \__\ |__|  \__/        
                                                                              
                      - O R C A' S   B I G   F R I E N D -                    
                                      &                                       
                       - I N T E G R A L  F E E D E R -                       
                                                                              
 v1 FN, 2020, v2 2021, v3 2022-2024                                           
------------------------------------------------------------------------------


----------------------
SHARK INTEGRAL PACKAGE
----------------------

Number of atoms                             ...      8
Number of basis functions                   ...    176
Number of shells                            ...     64
Maximum angular momentum                    ...      3
Integral batch strategy                     ... SHARK/LIBINT Hybrid
RI-J (if used) integral strategy            ... SPLIT-RIJ (Revised 2003 algorithm where possible)
Printlevel                                  ...      1
Contraction scheme used                     ... SEGMENTED contraction
Prescreening option                         ... SCHWARTZ
   Thresh                                   ... 2.500e-11
   Tcut                                     ... 2.500e-12
   Tpresel                                  ... 2.500e-12 
Coulomb Range Separation                    ... NOT USED
Exchange Range Separation                   ... NOT USED
Multipole approximations                    ... NOT USED
Finite Nucleus Model                        ... NOT USED
CABS basis                                  ... NOT available
Auxiliary Coulomb fitting basis             ... NOT available
Auxiliary J/K fitting basis                 ... NOT available
Auxiliary Correlation fitting basis         ... NOT available
Auxiliary 'external' fitting basis          ... NOT available

Checking pre-screening integrals            ... done (  0.0 sec) Dimension = 64
   => SHARK Basis and OBASIS are compatible. Storing Pre-screening
Shell pair information
Shell pair cut-off parameter TPreSel        ...   2.5e-12
Total number of shell pairs                 ...      2080
Shell pairs after pre-screening             ...      2055
Total number of primitive shell pairs       ...      6922
Primitive shell pairs kept                  ...      5575
          la=0 lb=0:    403 shell pairs
          la=1 lb=0:    551 shell pairs
          la=1 lb=1:    207 shell pairs
          la=2 lb=0:    332 shell pairs
          la=2 lb=1:    235 shell pairs
          la=2 lb=2:     77 shell pairs
          la=3 lb=0:    112 shell pairs
          la=3 lb=1:     80 shell pairs
          la=3 lb=2:     48 shell pairs
          la=3 lb=3:     10 shell pairs

Checking whether 4 symmetric matrices of dimension 176 fit in memory
:Max Core in MB      =   4096.00
 MB in use           =      4.63
 MB left             =   4091.37
 MB needed           =      0.48
 Data fit in memory  = YES
Calculating Nuclear repulsion               ... done (  0.0 sec) ENN=    120.693288504615 Eh

Diagonalization of the overlap matrix:
Smallest eigenvalue                        ... 5.081e-04
Time for diagonalization                   ...    0.002 sec
Threshold for overlap eigenvalues          ... 1.000e-07
Number of eigenvalues below threshold      ... 0
Time for construction of square roots      ...    0.002 sec
Total time needed                          ...    0.006 sec

-------------------
DFT GRID GENERATION
-------------------

General Integration Accuracy     IntAcc      ... 4.388
Radial Grid Type                 RadialGrid  ... OptM3 with GC (2021)
Angular Grid (max. ang.)         AngularGrid ... 4 (Lebedev-302)
Angular grid pruning method      GridPruning ... 4 (adaptive)
Weight generation scheme         WeightScheme... mBecke (2022)
Basis function cutoff            BFCut       ... 1.0000e-11
Integration weight cutoff        WCut        ... 1.0000e-14
Partially contracted basis set               ... off
Rotationally invariant grid construction     ... off
Angular grids for H and He will be reduced by one unit
Diffuse basis detected: some atoms will have their outermost
                        angular grid increased by 1.

Total number of grid points                  ...    38011
Total number of batches                      ...      598
Average number of points per batch           ...       63
Average number of grid points per atom       ...     4751
Grids setup in   0.1 sec
Initializing property integral containers    ... done (  0.0 sec)

SHARK setup successfully completed in   0.2 seconds

Maximum memory used throughout the entire STARTUP-calculation: 14.0 MB


           ************************************************************
           *        Program running with 8 parallel MPI-processes     *
           *              working on a common directory               *
           ************************************************************
-------------------------------------------------------------------------------
                                 ORCA GUESS
                   Start orbitals & Density for SCF / CASSCF
-------------------------------------------------------------------------------

------------
SCF SETTINGS
------------
Hamiltonian:
 Density Functional     Method          .... DFT(GTOs)
  Functional kind                       .... Exchange
  Functional name                       .... Perdew & Wang 91
  Functional family                     .... GGA
  Functional refs                              
    [ 0] J. P. Perdew. In P. Ziesche and H. Eschrig, editors, Proceedings of the 75. WE-Heraeus-Seminar and 21st Annual International Symposium on Electronic Structure of Solids, 11. Berlin, 1991. Akademie Verlag.
    [ 1] J. P. Perdew, J. A. Chevary, S. H. Vosko, K. A. Jackson, M. R. Pederson, D. J. Singh, and C. Fiolhais.,  Phys. Rev. B 46, 6671 (1992), doi: 10.1103/PhysRevB.46.6671
    [ 2] J. P. Perdew, J. A. Chevary, S. H. Vosko, K. A. Jackson, M. R. Pederson, D. J. Singh, and C. Fiolhais.,  Phys. Rev. B 48, 4978 (1993), doi: 10.1103/PhysRevB.48.4978.2
  Functional external parameters        .... 7
    Parameter  0 _a         =  1.964500e-01 : a parameter         
    Parameter  1 _b         =  7.795600e+00 : b parameter         
    Parameter  2 _c         =  2.743000e-01 : c parameter         
    Parameter  3 _d         = -1.508000e-01 : d parameter         
    Parameter  4 _f         =  4.000000e-03 : f parameter         
    Parameter  5 _alpha     =  1.000000e+02 : alpha parameter     
    Parameter  6 _expo      =  4.000000e+00 : exponent            
 Correlation Functional Correlation     .... No Correlation
 Gradients option       PostSCFGGA      .... off


General Settings:
 Integral files         IntName         .... /cluster/projects/nn14654k/ylvaos/basis_set_n_funcs/functionals/gga_x_pw91/CH3COOH/inp/CH3COOH_gga_x_pw91_pcseg2
 Hartree-Fock type      HFTyp           .... RHF
 Total Charge           Charge          ....    0
 Multiplicity           Mult            ....    1
 Number of Electrons    NEL             ....   32
 Basis Dimension        Dim             ....  176
 Nuclear Repulsion      ENuc            ....    120.6932885046 Eh

Convergence Acceleration:
 AO-DIIS                CNVDIIS         .... on
   Start iteration      DIISMaxIt       ....    12
   Startup error        DIISStart       ....  0.200000
   # of expansion vecs  DIISMaxEq       ....     5
   Bias factor          DIISBfac        ....   1.050
   Max. coefficient     DIISMaxC        ....  10.000
 MO-DIIS                CNVKDIIS        .... off
 Trust-Rad. Augm. Hess. CNVTRAH         .... auto
   Auto Start mean grad. ratio tolernc. ....  1.125000
   Auto Start start iteration           ....    50
   Auto Start num. interpolation iter.  ....    10
   Max. Number of Micro iterations      ....    24
   Max. Number of Macro iterations      .... Maxiter - #DIIS iter
   Number of Davidson start vectors     ....     2
   Converg. threshold    (grad. norm)   ....   1.000e-05
   Grad. Scal. Fac. for Micro threshold ....   0.100
   Minimum threshold for Micro iter.    ....   1.000e-02
   NR start threshold (gradient norm)   ....   1.000e-04
   Initial trust radius                 ....   0.400
   Minimum AH scaling param. (alpha)    ....   1.000
   Maximum AH scaling param. (alpha)    .... 1000.000
   Quad. conv. algorithm                .... NR
   White noise on init. David. guess    .... on
   Maximum white noise                  ....   0.010
   Pseudo random numbers                .... off
   Inactive MOs                         .... canonical
   Orbital update algorithm             .... Taylor
   Preconditioner                       .... Diag
   Full preconditioner red. dimension   ....   250
 SOSCF                 CNVSOSCF           .... on
   Start iteration     SOSCFMaxIt         ....   150
   Startup grad/error  SOSCFStart         ....  0.003300
   Hessian update      SOSCFHessUp        .... L-BFGS
   Autom. constraints  SOSCFAutoConstrain .... off
 Level Shifting         CNVShift        .... on
   Level shift para.    LevelShift      ....    0.2500
   Turn off err/grad.   ShiftErr        ....    0.0010
 Zerner damping         CNVZerner       .... off
 Static damping         CNVDamp         .... on
   Fraction old density DampFac         ....    0.7000
   Max. Damping (<1)    DampMax         ....    0.9800
   Min. Damping (>=0)   DampMin         ....    0.0000
   Turn off err/grad.   DampErr         ....    0.1000

SCF Procedure:
 Maximum # iterations   MaxIter         ....   125
 SCF integral mode      SCFMode         .... Direct
   Integral package                     .... SHARK and LIBINT hybrid scheme
 Reset frequency        DirectResetFreq ....    20
 Integral Threshold     Thresh          ....  2.500e-11 Eh
 Primitive CutOff       TCut            ....  2.500e-12 Eh

Convergence Tolerance:
 Convergence Check Mode ConvCheckMode   .... Total+1el-Energy
 Convergence forced     ConvForced      .... 0
 Energy Change          TolE            ....  1.000e-08 Eh
 1-El. energy change                    ....  1.000e-05 Eh
 Orbital Gradient       TolG            ....  1.000e-05
 Orbital Rotation angle TolX            ....  1.000e-05
 DIIS Error             TolErr          ....  5.000e-07

------------------------------
INITIAL GUESS: MODEL POTENTIAL
------------------------------
Loading Hartree-Fock densities                     ... done
Calculating cut-offs                               ... done
Initializing the effective Hamiltonian             ... done
Setting up the integral package (SHARK)            ... done
Starting the Coulomb interaction                   ... done (   0.0 sec)
Making the grid                                    ... done (   0.0 sec)
Mapping shells                                     ... done
Starting the XC term evaluation                    ... done (   0.0 sec)
  promolecular density results
     # of electrons  =     31.996961635
     EX              =    -27.798975235
     EC              =      0.000000000
     EX+EC           =    -27.798975235
Transforming the Hamiltonian                       ... done (   0.0 sec)
Diagonalizing the Hamiltonian                      ... done (   0.0 sec)
Back transforming the eigenvectors                 ... done (   0.0 sec)
Now organizing SCF variables                       ... done
                      ------------------
                      INITIAL GUESS DONE (   0.1 sec)
                      ------------------
             **** ENERGY FILE WAS UPDATED (/cluster/projects/nn14654k/ylvaos/basis_set_n_funcs/functionals/gga_x_pw91/CH3COOH/inp/CH3COOH_gga_x_pw91_pcseg2.en.tmp) ****
Finished Guess after   0.1 sec
Maximum memory used throughout the entire GUESS-calculation: 9.0 MB


           ************************************************************
           *        Program running with 8 parallel MPI-processes     *
           *              working on a common directory               *
           ************************************************************

-------------------------------------------------------------------------------------------
                                      ORCA LEAN-SCF
                              memory conserving SCF solver
-------------------------------------------------------------------------------------------

----------------------------------------D-I-I-S--------------------------------------------
Iteration    Energy (Eh)           Delta-E    RMSDP     MaxDP     DIISErr   Damp  Time(sec)
-------------------------------------------------------------------------------------------
               ***  Starting incremental Fock matrix formation  ***
    1    -227.7941407571127570     0.00e+00  7.22e-03  7.00e-02  2.78e-01  0.700   0.4
    2    -227.8905476531808176    -9.64e-02  4.46e-03  4.24e-02  8.30e-02  0.700   0.4
                               ***Turning on AO-DIIS***
    3    -227.9147883339967962    -2.42e-02  1.49e-03  1.72e-02  3.12e-02  0.700   0.3
    4    -227.9329256555877237    -1.81e-02  1.88e-03  1.52e-02  2.47e-02  0.000   0.3
    5    -227.9767008433491924    -4.38e-02  1.02e-03  1.18e-02  1.46e-02  0.000   0.4
    6    -227.9772794230032673    -5.79e-04  3.54e-04  3.37e-03  4.13e-03  0.000   0.3
                              *** Initializing SOSCF ***
---------------------------------------S-O-S-C-F--------------------------------------
Iteration    Energy (Eh)           Delta-E    RMSDP     MaxDP     MaxGrad    Time(sec)
--------------------------------------------------------------------------------------
    7    -227.9773264776467272    -4.71e-05  1.48e-04  1.53e-03  1.79e-03     0.3
               *** Restarting incremental Fock matrix formation ***
    8    -227.9773374358711067    -1.10e-05  1.19e-04  1.83e-03  1.93e-04     0.3
    9    -227.9773365899366695     8.46e-07  5.97e-05  7.94e-04  5.40e-04     0.3
   10    -227.9773383330502270    -1.74e-06  6.49e-05  1.00e-03  1.81e-04     0.3
   11    -227.9773383915122054    -5.85e-08  1.56e-05  1.27e-04  1.32e-04     0.5
   12    -227.9773386069973071    -2.15e-07  2.49e-05  3.83e-04  5.29e-05     0.3
   13    -227.9773386241253661    -1.71e-08  9.46e-06  1.02e-04  3.58e-05     0.3
   14    -227.9773386522260239    -2.81e-08  6.52e-06  1.06e-04  1.24e-05     0.3
   15    -227.9773386554023205    -3.18e-09  3.32e-06  5.48e-05  6.64e-06     0.3
                 **** Energy Check signals convergence ****

               *****************************************************
               *                     SUCCESS                       *
               *           SCF CONVERGED AFTER  15 CYCLES          *
               *****************************************************

             **** ENERGY FILE WAS UPDATED (/cluster/projects/nn14654k/ylvaos/basis_set_n_funcs/functionals/gga_x_pw91/CH3COOH/inp/CH3COOH_gga_x_pw91_pcseg2.en.tmp) ****

----------------
TOTAL SCF ENERGY
----------------

Total Energy       :       -227.97733865676742 Eh           -6203.57877 eV

Components:
Nuclear Repulsion  :        120.69328850461517 Eh            3284.23135 eV
Electronic Energy  :       -348.67062716138258 Eh           -9487.81012 eV
One Electron Energy:       -550.85256914260640 Eh          -14989.46046 eV
Two Electron Energy:        202.18194198122382 Eh            5501.65034 eV

Virial components:
Potential Energy   :       -456.24995076964711 Eh          -12415.19234 eV
Kinetic Energy     :        228.27261211287970 Eh            6211.61357 eV
Virial Ratio       :          1.99870648759227

DFT components:
N(Alpha)           :       15.999985859194 electrons
N(Beta)            :       15.999985859194 electrons
N(Total)           :       31.999971718388 electrons
E(X)               :      -28.272016585656 Eh       
E(C)               :        0.000000000000 Eh       
E(XC)              :      -28.272016585656 Eh       

---------------
SCF CONVERGENCE
---------------

  Last Energy change         ...    3.1763e-09  Tolerance :   1.0000e-08
  Last MAX-Density change    ...    5.4796e-05  Tolerance :   1.0000e-07
  Last RMS-Density change    ...    3.3205e-06  Tolerance :   5.0000e-09
  Last DIIS Error            ...    1.7899e-03  Tolerance :   5.0000e-07
  Last Orbital Gradient      ...    6.6373e-06  Tolerance :   1.0000e-05
  Last Orbital Rotation      ...    2.9496e-05  Tolerance :   1.0000e-05


----------------
ORBITAL ENERGIES
----------------

  NO   OCC          E(Eh)            E(eV) 
   0   2.0000     -18.790523      -511.3161 
   1   2.0000     -18.732861      -509.7470 
   2   2.0000     -10.007865      -272.3279 
   3   2.0000      -9.892314      -269.1835 
   4   2.0000      -0.981102       -26.6971 
   5   2.0000      -0.895180       -24.3591 
   6   2.0000      -0.660257       -17.9665 
   7   2.0000      -0.522832       -14.2270 
   8   2.0000      -0.408732       -11.1222 
   9   2.0000      -0.394419       -10.7327 
  10   2.0000      -0.394019       -10.7218 
  11   2.0000      -0.340333        -9.2609 
  12   2.0000      -0.321570        -8.7504 
  13   2.0000      -0.320622        -8.7246 
  14   2.0000      -0.254640        -6.9291 
  15   2.0000      -0.207529        -5.6472 
  16   0.0000      -0.011226        -0.3055 
  17   0.0000      -0.006096        -0.1659 
  18   0.0000       0.020448         0.5564 
  19   0.0000       0.062971         1.7135 
  20   0.0000       0.063714         1.7337 
  21   0.0000       0.098653         2.6845 
  22   0.0000       0.138147         3.7592 
  23   0.0000       0.162965         4.4345 
  24   0.0000       0.167245         4.5510 
  25   0.0000       0.180529         4.9124 
  26   0.0000       0.188645         5.1333 
*Only the first 10 virtual orbitals were printed.

                    ********************************
                    * MULLIKEN POPULATION ANALYSIS *
                    ********************************

-----------------------
MULLIKEN ATOMIC CHARGES
-----------------------
   0 C :    0.401356
   1 C :   -0.051541
   2 O :   -0.380446
   3 O :   -0.300761
   4 H :    0.192337
   5 H :    0.055438
   6 H :    0.041808
   7 H :    0.041808
Sum of atomic charges:    0.0000000

--------------------------------
MULLIKEN REDUCED ORBITAL CHARGES
--------------------------------
  0 C s       :     3.037706  s :     3.037706
      pz      :     0.783326  p :     2.364386
      px      :     0.771510
      py      :     0.809550
      dz2     :     0.006934  d :     0.182434
      dxz     :     0.023831
      dyz     :     0.038671
      dx2y2   :     0.040796
      dxy     :     0.072202
      f0      :     0.001373  f :     0.014119
      f+1     :     0.000854
      f-1     :     0.001404
      f+2     :     0.001960
      f-2     :     0.000850
      f+3     :     0.004453
      f-3     :     0.003226

  1 C s       :     3.121446  s :     3.121446
      pz      :     0.991549  p :     2.899931
      px      :     0.944688
      py      :     0.963694
      dz2     :     0.004469  d :     0.028734
      dxz     :     0.002917
      dyz     :     0.005323
      dx2y2   :     0.006440
      dxy     :     0.009585
      f0      :     0.000133  f :     0.001430
      f+1     :     0.000122
      f-1     :     0.000182
      f+2     :    -0.000068
      f-2     :     0.000179
      f+3     :     0.000436
      f-3     :     0.000446

  2 O s       :     3.834706  s :     3.834706
      pz      :     1.400282  p :     4.509398
      px      :     1.777003
      py      :     1.332113
      dz2     :     0.003045  d :     0.033095
      dxz     :     0.000360
      dyz     :     0.010984
      dx2y2   :     0.009426
      dxy     :     0.009281
      f0      :     0.000365  f :     0.003248
      f+1     :     0.000065
      f-1     :     0.000295
      f+2     :     0.000713
      f-2     :     0.000074
      f+3     :     0.000959
      f-3     :     0.000778

  3 O s       :     3.753629  s :     3.753629
      pz      :     1.748584  p :     4.518015
      px      :     1.244897
      py      :     1.524534
      dz2     :     0.003568  d :     0.027033
      dxz     :     0.003353
      dyz     :     0.002878
      dx2y2   :     0.006596
      dxy     :     0.010636
      f0      :     0.000359  f :     0.002084
      f+1     :     0.000408
      f-1     :     0.000173
      f+2     :     0.000123
      f-2     :     0.000186
      f+3     :     0.000391
      f-3     :     0.000444

  4 H s       :     0.721436  s :     0.721436
      pz      :     0.025294  p :     0.078683
      px      :     0.023494
      py      :     0.029895
      dz2     :     0.000927  d :     0.007545
      dxz     :     0.000851
      dyz     :     0.001079
      dx2y2   :     0.001751
      dxy     :     0.002936

  5 H s       :     0.905660  s :     0.905660
      pz      :     0.008588  p :     0.036705
      px      :     0.017945
      py      :     0.010172
      dz2     :     0.000243  d :     0.002196
      dxz     :     0.000398
      dyz     :     0.000178
      dx2y2   :     0.000658
      dxy     :     0.000719

  6 H s       :     0.914777  s :     0.914777
      pz      :     0.017555  p :     0.041140
      px      :     0.008882
      py      :     0.014703
      dz2     :     0.000678  d :     0.002274
      dxz     :     0.000357
      dyz     :     0.000776
      dx2y2   :     0.000208
      dxy     :     0.000255

  7 H s       :     0.914777  s :     0.914777
      pz      :     0.017555  p :     0.041140
      px      :     0.008882
      py      :     0.014703
      dz2     :     0.000678  d :     0.002274
      dxz     :     0.000357
      dyz     :     0.000776
      dx2y2   :     0.000208
      dxy     :     0.000255



                     *******************************
                     * LOEWDIN POPULATION ANALYSIS *
                     *******************************

----------------------
LOEWDIN ATOMIC CHARGES
----------------------
   0 C :   -0.139172
   1 C :    0.028074
   2 O :   -0.070381
   3 O :    0.158547
   4 H :   -0.043690
   5 H :    0.019259
   6 H :    0.023681
   7 H :    0.023681

-------------------------------
LOEWDIN REDUCED ORBITAL CHARGES
-------------------------------
  0 C s       :     2.784369  s :     2.784369
      pz      :     0.747675  p :     2.633002
      px      :     0.884659
      py      :     1.000668
      dz2     :     0.038685  d :     0.638953
      dxz     :     0.065991
      dyz     :     0.105116
      dx2y2   :     0.165179
      dxy     :     0.263982
      f0      :     0.004329  f :     0.082848
      f+1     :     0.004464
      f-1     :     0.007390
      f+2     :     0.013340
      f-2     :     0.005236
      f+3     :     0.030357
      f-3     :     0.017732

  1 C s       :     2.756147  s :     2.756147
      pz      :     1.032461  p :     3.022347
      px      :     0.993203
      py      :     0.996683
      dz2     :     0.034762  d :     0.175461
      dxz     :     0.008817
      dyz     :     0.047861
      dx2y2   :     0.029666
      dxy     :     0.054355
      f0      :     0.000742  f :     0.017971
      f+1     :     0.003116
      f-1     :     0.003737
      f+2     :     0.002673
      f-2     :     0.001222
      f+3     :     0.002562
      f-3     :     0.003919

  2 O s       :     3.477116  s :     3.477116
      pz      :     1.356373  p :     4.506936
      px      :     1.663370
      py      :     1.487194
      dz2     :     0.009012  d :     0.071882
      dxz     :     0.000518
      dyz     :     0.014585
      dx2y2   :     0.026906
      dxy     :     0.020860
      f0      :     0.001074  f :     0.014448
      f+1     :     0.000348
      f-1     :     0.002336
      f+2     :     0.001680
      f-2     :     0.000204
      f+3     :     0.004500
      f-3     :     0.004306

  3 O s       :     3.322309  s :     3.322309
      pz      :     1.624717  p :     4.434909
      px      :     1.271526
      py      :     1.538666
      dz2     :     0.010235  d :     0.072124
      dxz     :     0.008545
      dyz     :     0.002526
      dx2y2   :     0.018262
      dxy     :     0.032557
      f0      :     0.000846  f :     0.012111
      f+1     :     0.001464
      f-1     :     0.000678
      f+2     :     0.000453
      f-2     :     0.001067
      f+3     :     0.004315
      f-3     :     0.003288

  4 H s       :     0.688768  s :     0.688768
      pz      :     0.081123  p :     0.285727
      px      :     0.081802
      py      :     0.122801
      dz2     :     0.006274  d :     0.069196
      dxz     :     0.009711
      dyz     :     0.012879
      dx2y2   :     0.020417
      dxy     :     0.019914

  5 H s       :     0.836418  s :     0.836418
      pz      :     0.031478  p :     0.122471
      px      :     0.055817
      py      :     0.035177
      dz2     :     0.002104  d :     0.021851
      dxz     :     0.005188
      dyz     :     0.001517
      dx2y2   :     0.006786
      dxy     :     0.006256

  6 H s       :     0.828359  s :     0.828359
      pz      :     0.050987  p :     0.126418
      px      :     0.031282
      py      :     0.044149
      dz2     :     0.006519  d :     0.021542
      dxz     :     0.004041
      dyz     :     0.006291
      dx2y2   :     0.002212
      dxy     :     0.002479

  7 H s       :     0.828359  s :     0.828359
      pz      :     0.050987  p :     0.126418
      px      :     0.031282
      py      :     0.044149
      dz2     :     0.006519  d :     0.021542
      dxz     :     0.004041
      dyz     :     0.006291
      dx2y2   :     0.002212
      dxy     :     0.002479



                      *****************************
                      * MAYER POPULATION ANALYSIS *
                      *****************************

  NA   - Mulliken gross atomic population
  ZA   - Total nuclear charge
  QA   - Mulliken gross atomic charge
  VA   - Mayer's total valence
  BVA  - Mayer's bonded valence
  FA   - Mayer's free valence

  ATOM       NA         ZA         QA         VA         BVA        FA
  0 C      5.5986     6.0000     0.4014     4.0505     4.0505    -0.0000
  1 C      6.0515     6.0000    -0.0515     3.8819     3.8819     0.0000
  2 O      8.3804     8.0000    -0.3804     2.0943     2.0943     0.0000
  3 O      8.3008     8.0000    -0.3008     2.1029     2.1029     0.0000
  4 H      0.8077     1.0000     0.1923     1.0603     1.0603     0.0000
  5 H      0.9446     1.0000     0.0554     1.0173     1.0173     0.0000
  6 H      0.9582     1.0000     0.0418     1.0128     1.0128     0.0000
  7 H      0.9582     1.0000     0.0418     1.0128     1.0128     0.0000

  Mayer bond orders larger than 0.100000
B(  0-C ,  1-C ) :   0.9376 B(  0-C ,  2-O ) :   1.9822 B(  0-C ,  3-O ) :   1.1141 
B(  1-C ,  5-H ) :   1.0100 B(  1-C ,  6-H ) :   0.9751 B(  1-C ,  7-H ) :   0.9751 
B(  3-O ,  4-H ) :   0.9679 

-------
TIMINGS
-------

Total SCF time: 0 days 0 hours 0 min 5 sec 

Total time                  ....       5.673 sec
Sum of individual times     ....       5.316 sec  ( 93.7%)

SCF preparation             ....       0.070 sec  (  1.2%)
Fock matrix formation       ....       4.753 sec  ( 83.8%)
  Startup                   ....       0.011 sec  (  0.2% of F)
  Coulomb formation         ....       3.851 sec  ( 81.0% of F)
  XC integration            ....       0.686 sec  ( 14.4% of F)
    XC Preparation          ....       0.000 sec  (  0.0% of XC)
    Basis function eval.    ....       0.112 sec  ( 16.3% of XC)
    Density eval.           ....       0.079 sec  ( 11.5% of XC)
    XC-Functional eval.     ....       0.030 sec  (  4.4% of XC)
    XC-Potential eval.      ....       0.161 sec  ( 23.5% of XC)
Diagonalization             ....       0.000 sec  (  0.0%)
Density matrix formation    ....       0.102 sec  (  1.8%)
Total Energy calculation    ....       0.023 sec  (  0.4%)
Population analysis         ....       0.014 sec  (  0.2%)
Orbital Transformation      ....       0.016 sec  (  0.3%)
Orbital Orthonormalization  ....       0.000 sec  (  0.0%)
DIIS solution               ....       0.181 sec  (  3.2%)
SOSCF solution              ....       0.157 sec  (  2.8%)
Finished LeanSCF after   5.7 sec

Maximum memory used throughout the entire LEANSCF-calculation: 16.1 MB


           ************************************************************
           *        Program running with 8 parallel MPI-processes     *
           *              working on a common directory               *
           ************************************************************

------------------------------------------------------------------------------
                         ORCA PROPERTY INTEGRAL CALCULATIONS
------------------------------------------------------------------------------

GBWName                                   ... /cluster/projects/nn14654k/ylvaos/basis_set_n_funcs/functionals/gga_x_pw91/CH3COOH/inp/CH3COOH_gga_x_pw91_pcseg2.gbw
Number of atoms                           ...      8
Number of basis functions                 ...    176
Max core memory                           ...   4096 MB

Dipole integrals                          ... YES
Quadrupole integrals                      ... YES
Linear momentum integrals                 ...  NO
Angular momentum integrals                ...  NO
Higher moments length integrals           ...  NO
Higher moments velocity integrals         ...  NO
Kinetic energy integrals                  ...  NO
GIAO right hand sides                     ...  NO
GIAO dipole derivative integrals          ...  NO
SOC integrals                             ...  NO
EPR diamagnetic integrals (GIAO)          ...  NO
EPR gauge integrals                       ...  NO
Field gradient integrals                  ...  NO (   0 nuclei)
Spin-dipole/Fermi contact integrals       ...  NO (   0 nuclei)
Contact density integrals                 ...  NO (   0 nuclei)
Nucleus-orbit integrals                   ...  NO (   0 nuclei)
Geometric perturbations                   ...  NO (   8 nuclei)

Choice of electric origin   ... Center of mass
Position of electric origin ... ( -0.0657,  0.0975,  0.0000) 
Choice of magnetic origin   ... GIAO
Position of magnetic origin ... (  0.0000,  0.0000,  0.0000) 

Calculating integrals                     ... Electric Dipole (Length)     done (  0.0 sec)
Calculating integrals                     ... Electric Quadrupole (Length) done (  0.0 sec)

Property integrals calculated in   0.0 sec

Maximum memory used throughout the entire PROPINT-calculation: 9.7 MB
------------------------------------------------------------------------------
                           ORCA ORBITAL LOCALIZATION
------------------------------------------------------------------------------

Input orbitals are from                  ... /cluster/projects/nn14654k/ylvaos/basis_set_n_funcs/functionals/gga_x_pw91/CH3COOH/inp/CH3COOH_gga_x_pw91_pcseg2.gbw
Output orbitals are to                   ... /cluster/projects/nn14654k/ylvaos/basis_set_n_funcs/functionals/gga_x_pw91/CH3COOH/inp/CH3COOH_gga_x_pw91_pcseg2.loc
Max. number of iterations                ... 128
Localizations seeded randomly            ... on
Convergence tolerance                    ... 1.000e-06
Threshold for strong local MOs           ... 9.500e-01
Threshold for bond MOs                   ... 8.500e-01
Operator                                 ... 0
Orbital range for localization           ... 4 to 15
Localization criterion                   ... NEW-BOYS
Doing the dipole integrals               ... o.k.
Initial value of the localization sum :    68.864175
ITERATION   0 : L=   80.5286077891 DL=  1.17e+01 (AVERGE_DL)=    0.4203972292 
ITERATION   1 : L=   81.4383145339 DL=  9.10e-01 (AVERGE_DL)=    0.1174028770 
ITERATION   2 : L=   81.4502066958 DL=  1.19e-02 (AVERGE_DL)=    0.0134232735 
ITERATION   3 : L=   81.4514865163 DL=  1.28e-03 (AVERGE_DL)=    0.0044035464 
ITERATION   4 : L=   81.4521743170 DL=  6.88e-04 (AVERGE_DL)=    0.0032281917 
ITERATION   5 : L=   81.4527124973 DL=  5.38e-04 (AVERGE_DL)=    0.0028555643 
ITERATION   6 : L=   81.4531627478 DL=  4.50e-04 (AVERGE_DL)=    0.0026118916 
ITERATION   7 : L=   81.4535275100 DL=  3.65e-04 (AVERGE_DL)=    0.0023508934 
ITERATION   8 : L=   81.4538124968 DL=  2.85e-04 (AVERGE_DL)=    0.0020779756 
ITERATION   9 : L=   81.4540278694 DL=  2.15e-04 (AVERGE_DL)=    0.0018064385 
ITERATION  10 : L=   81.4541861823 DL=  1.58e-04 (AVERGE_DL)=    0.0015487676 
ITERATION  11 : L=   81.4542999534 DL=  1.14e-04 (AVERGE_DL)=    0.0013129371 
ITERATION  12 : L=   81.4543802416 DL=  8.03e-05 (AVERGE_DL)=    0.0011029451 
ITERATION  13 : L=   81.4544360835 DL=  5.58e-05 (AVERGE_DL)=    0.0009198313 
ITERATION  14 : L=   81.4544744770 DL=  3.84e-05 (AVERGE_DL)=    0.0007627055 
ITERATION  15 : L=   81.4545006321 DL=  2.62e-05 (AVERGE_DL)=    0.0006295159 
ITERATION  16 : L=   81.4545183204 DL=  1.77e-05 (AVERGE_DL)=    0.0005176905 
ITERATION  17 : L=   81.4545302137 DL=  1.19e-05 (AVERGE_DL)=    0.0004245021 
ITERATION  18 : L=   81.4545381736 DL=  7.96e-06 (AVERGE_DL)=    0.0003472817 
ITERATION  19 : L=   81.4545434810 DL=  5.31e-06 (AVERGE_DL)=    0.0002835758 
ITERATION  20 : L=   81.4545470102 DL=  3.53e-06 (AVERGE_DL)=    0.0002312415 
ITERATION  21 : L=   81.4545493504 DL=  2.34e-06 (AVERGE_DL)=    0.0001883001 
ITERATION  22 : L=   81.4545509002 DL=  1.55e-06 (AVERGE_DL)=    0.0001532393 
ITERATION  23 : L=   81.4545519240 DL=  1.02e-06 (AVERGE_DL)=    0.0001245491 
ITERATION  24 : L=   81.4545526004 DL=  6.76e-07 (AVERGE_DL)=    0.0001012305 
LOCALIZATION SUM CONVERGED


--------------------------------------------------------------------------------
                    LOCALIZED MOLECULAR ORBITAL COMPOSITIONS
--------------------------------------------------------------------------------

The Mulliken populations for each LMO on each atom are computed
The LMO`s will be ordered according to atom index and type
  (A) Strongly localized MO`s have populations of >=0.950 on one atom
  (B) Two center bond orbitals have populations of >=0.850 on two atoms
  (C) Other MO`s are considered to be `delocalized`

FOUND  -   2 strongly local MO`s
       -  10 two center bond MO`s
       -   0 significantly delocalized MO`s

Rather strongly localized orbitals:
MO   5:   3O  -   0.969683
MO   4:   2O  -   0.953171
Bond-like localized orbitals:
MO  15:   7H  -   0.488167  and   1C  -   0.514480
MO  14:   6H  -   0.488145  and   1C  -   0.514509
MO  13:   5H  -   0.479496  and   1C  -   0.553643
MO  12:   4H  -   0.383425  and   3O  -   0.625463
MO  11:   3O  -   0.702962  and   0C  -   0.318780
MO  10:   3O  -   0.897912  and   0C  -   0.097457
MO   9:   2O  -   0.657166  and   0C  -   0.355004
MO   8:   2O  -   0.656636  and   0C  -   0.355830
MO   7:   2O  -   0.943685  and   0C  -   0.052929
MO   6:   1C  -   0.476583  and   0C  -   0.557025
Localized MO's were stored in: /cluster/projects/nn14654k/ylvaos/basis_set_n_funcs/functionals/gga_x_pw91/CH3COOH/inp/CH3COOH_gga_x_pw91_pcseg2.loc

-------------------------   --------------------
FINAL SINGLE POINT ENERGY      -227.977338656767
-------------------------   --------------------



           ************************************************************
           *        Program running with 8 parallel MPI-processes     *
           *              working on a common directory               *
           ************************************************************

------------------------------------------------------------------------------
                              ORCA PROPERTY CALCULATIONS
------------------------------------------------------------------------------

GBWName                                 ... /cluster/projects/nn14654k/ylvaos/basis_set_n_funcs/functionals/gga_x_pw91/CH3COOH/inp/CH3COOH_gga_x_pw91_pcseg2.gbw
Number of atoms                         ...      8
Number of basis functions               ...    176
Max core memory                         ...   4096 MB

Electric properties:
Dipole moment                           ... YES
Quadrupole moment                       ... YES
Static polarizability (Dipole/Dipole)   ...  NO
Static polarizability (Dipole/Quad.)    ...  NO
Static polarizability (Quad./Quad.)     ...  NO
Static polarizability (Velocity)        ...  NO
Static hyperpolarizability              ...  NO

Atomic electric properties:
Dipole moment                           ...  NO
Quadrupole moment                       ...  NO
Static polarizability                   ...  NO

Choice of electric origin               ... Center of mass
Position of electric origin             ...    -0.065707     0.097461     0.000000

General magnetic properties:
Magnetizability                         ...  NO

EPR properties:
g-Tensor (aka g-matrix)                 ...  NO
Zero-Field splitting spin-orbit         ...  NO
Zero-field splitting spin-spin          ...  NO
Hyperfine couplings                     ...  NO (   0 nuclei)
Quadrupole couplings                    ...  NO (   0 nuclei)
Contact density                         ...  NO (   0 nuclei)

NMR properties:
Chemical shifts                         ...  NO (   0 nuclei)
Spin-rotation constants                 ...  NO (   0 nuclei)
Spin-spin couplings                     ...  NO (   0 nuclei,    0 pairs)

Choice of magnetic origin               ... GIAO
Position of magnetic origin             ...     0.000000     0.000000     0.000000

Properties with geometric perturbations:
SCF Hessian                             ...  NO
IR spectrum                             ...  NO
VCD spectrum                            ...  NO
X-ray spectroscopy properties:
SCF XES/XAS/RIXS spectra                ...  NO

SCF SOC stabilization energy            ...  NO
Diagonal Born-Oppenheimer correction    ...  NO

-------------
DIPOLE MOMENT
-------------

Method             : SCF
Type of density    : Electron Density
Multiplicity       :   1
Irrep              :   0
Energy             :  -227.9773386567674152 Eh
Basis              : AO
                                X                 Y                 Z
Electronic contribution:     -2.216467611       2.451342242      -0.000000005
Nuclear contribution   :      2.102617427      -3.118765285       0.000000000
                        -----------------------------------------
Total Dipole Moment    :     -0.113850184      -0.667423043      -0.000000005
                        -----------------------------------------
Magnitude (a.u.)       :      0.677063795
Magnitude (Debye)      :      1.720959400



--------------------
Rotational spectrum 
--------------------
 
Rotational constants in cm-1:             0.373252             0.316126             0.176788 
Rotational constants in MHz :         11189.819630          9477.229268          5299.974115 

Dipole components along the rotational axes: 
x,y,z [a.u.] :    -0.346978    -0.581396    -0.000000 
x,y,z [Debye]:    -0.881948    -1.477792    -0.000000 

 

Dipole moment calculation done in   0.0 sec 

-----------------
QUADRUPOLE MOMENT
-----------------

Method             : SCF
Type of density    : Electron Density
Multiplicity       :   1
Irrep              :   0
Energy             :  -227.9773386567674152 Eh
Basis              : AO

                XX              YY              ZZ              XY              XZ              YZ
  NUC      103.447904006    93.335807526     5.552847104   -15.402641721     0.000000000     0.000000000
  EL      -119.273155076  -114.406552148   -23.333081960    12.792037781    -0.000000009    -0.000000004
  TOT      -15.825251070   -21.070744622   -17.780234856    -2.610603939    -0.000000009    -0.000000004 (a.u.)
           -21.285503912   -28.340872136   -23.915023965    -3.511351581    -0.000000013    -0.000000005 (Buckingham)

diagonalized tensor:
           -22.148545586   -17.780234856   -14.747450105 (a.u.)
           -29.790551294   -23.915023965   -19.835824754 (Buckingham)
           -15.830253869     1.796328119    14.033925750 (traceless form in Buckingham)

             0.381611348     0.000000002     0.924322876
             0.924322876    -0.000000002    -0.381611348
             0.000000002     1.000000000    -0.000000002
        
Isotropic quadrupole :   -18.225410182

Quadrupole moment calculation done in   0.0 sec (  0.0 sec for integrals)

Maximum memory used throughout the entire PROP-calculation: 6.4 MB

--------------------------------
SUGGESTED CITATIONS FOR THIS RUN
--------------------------------

Below you find a list of papers that are relevant to this ORCA run
We neither can nor want to force you to cite these papers, but we appreciate if you do
You receive ORCA, which is the product of decades of hard work by many enthusiastic individuals, for free
The only thing we kindly ask in return is that you cite our papers,
We deeply appreciate it, if you show your appreciation for ORCA by not just citing the generic ORCA reference.

Please note that relegating all ORCA citations to the supporting information does *not* help us.
SI sections are not indexed - citations you put there will not count into any citation statistics
But we need these citations in order to attract the funding resources that allow us to do what we are doing

Therefore, if you are a happy ORCA user, please consider citing a few of the papers listed below in the main body of your paper

In addition to the list printed below, the program has created the file /cluster/projects/nn14654k/ylvaos/basis_set_n_funcs/functionals/gga_x_pw91/CH3COOH/inp/CH3COOH_gga_x_pw91_pcseg2.bibtex that contains the list in bibtex format
You can import this file easily into all common literature databanks and citation aid programs

It goes without saying that in many instances, there are alternative algorithms to achieve similar
results as the ones you have gotten from ORCA. It is, of course, also the case that in some instances
ORCA just re-implements algorithms worked out by others. We are fully aware of that and we are also
fully appreciative of our colleagues work. Hence this citation list should not be read as indicating
that the listed papers, which are focused on our own work, are the only ones worth citing. It simply
meant to make it easier for users to cite ORCA specific papers. It is not a substitute for doing your
own literature research and citing the relevant literature in a scientifically appropriate manner.

List of essential papers. We consider these as the minimum necessary citations

  1. Neese, F.
     Software update: the ORCA program system, version 6.0
     WIRES Comput. Molec. Sci. 2025 15(1), e70019
     doi.org/10.1002/wcms.70019

List of papers to cite with high priority. The work reported in these papers was absolutely
necessary for this run to complete.
Our perspective: the developers of density functionals and basis sets usually get cited in chemistry papers
Good! But without the algorithms to do something with them, the functionals or basis sets would not do anything.
Hence, in our opinion, the algorithm design and method developments papers are equally worthy of getting cited

  1. Lehtola, S.; Steigemann, C.; Oliveira, M.; Marques, M.
     Recent developments in Libxc - A comprehensive library of functionals for density functional theory
     Software X 2018 7 , 
     doi.org/10.1016/j.softx.2017.11.002
  2. Neese, F.
     The SHARK Integral Generation and Digestion System
     J. Comp. Chem. 2022 44(3), 381
     doi.org/10.1002/jcc.26942

List of suggested additional citations. These are papers that are important in the 'surrounding' of 
of this run, or papers that preceded the highly important papers. If you like your results we are grateful for a citation.

  1. Neese, F.
     The ORCA program system
     WIRES Comput. Molec. Sci. 2012 2(1), 73-78
     doi.org/10.1002/wcms.81
  2. Neese, F.
     Software update: the ORCA program system, version 4.0
     WIRES Comput. Molec. Sci. 2018 8(1), 1-6
     doi.org/10.1002/wcms.1327
  3. Neese, F.; Wennmohs, F.; Becker, U.; Riplinger, C.
     The ORCA quantum chemistry program package
     J. Chem. Phys. 2020 152(22), 224108
     doi.org/10.1063/5.0004608
  4. Neese, F.
     Software update: The ORCA program system—Version 5.0
     WIRES Comput. Molec. Sci. 2022 12(1), e1606
     doi.org/10.1002/wcms.1606

List of optional additional citations

  1. Neese, F.
     Approximate second-order SCF convergence for spin unrestricted wavefunctions
     Chem. Phys. Lett. 2000 325(1-3), 93-98
     doi.org/10.1016/s0009-2614(00)00662-x

Timings for individual modules:

Sum of individual times          ...        7.270 sec (=   0.121 min)
Startup calculation              ...        0.505 sec (=   0.008 min)   6.9 %
SCF iterations                   ...        6.213 sec (=   0.104 min)  85.5 %
Property integrals               ...        0.252 sec (=   0.004 min)   3.5 %
Property calculations            ...        0.297 sec (=   0.005 min)   4.1 %
Orbital localization             ...        0.005 sec (=   0.000 min)   0.1 %
                             ****ORCA TERMINATED NORMALLY****
TOTAL RUN TIME: 0 days 0 hours 0 minutes 7 seconds 934 msec
