
                                 *****************
                                 * O   R   C   A *
                                 *****************

                                            #,                                       
                                            ###                                      
                                            ####                                     
                                            #####                                    
                                            ######                                   
                                           ########,                                 
                                     ,,################,,,,,                         
                               ,,#################################,,                 
                          ,,##########################################,,             
                       ,#########################################, ''#####,          
                    ,#############################################,,   '####,        
                  ,##################################################,,,,####,       
                ,###########''''           ''''###############################       
              ,#####''   ,,,,##########,,,,          '''####'''          '####       
            ,##' ,,,,###########################,,,                        '##       
           ' ,,###''''                  '''############,,,                           
         ,,##''                                '''############,,,,        ,,,,,,###''
      ,#''                                            '''#######################'''  
     '                                                          ''''####''''         
             ,#######,   #######,   ,#######,      ##                                
            ,#'     '#,  ##    ##  ,#'     '#,    #''#        ,####,    ,#,          
            ##       ##  ##   ,#'  ##            #'  '#       #'       ,# #          
            ##       ##  #######   ##           ,######,      #####,      #          
            '#,     ,#'  ##    ##  '#,     ,#' ,#      #,     #,   #      #          
             '#######'   ##     ##  '#######'  #'      '#     '####' #    #          



                #########################################################
                #                        -***-                          #
                #          Department of theory and spectroscopy        #
                #                                                       #
                #                      Frank Neese                      #
                #                                                       #
                #     Directorship, Architecture, Infrastructure        #
                #                    SHARK, DRIVERS                     #
                #        Core code/Algorithms in most modules           #
                #                                                       #
                #        Max Planck Institute fuer Kohlenforschung      #
                #                Kaiser Wilhelm Platz 1                 #
                #                 D-45470 Muelheim/Ruhr                 #
                #                      Germany                          #
                #                                                       #
                #                  All rights reserved                  #
                #                        -***-                          #
                #########################################################


                         Program Version 6.1.1  -  RELEASE   -
                                (GIT: $487d211c$)
                          ($2025-11-21 10:33:24 +0100$)


 With contributions from (in alphabetic order):
[Max-Planck-Institut fuer Kohlenforschung]                               
  Daniel Aravena         : Magnetic Suceptibility                        
  Michael Atanasov       : Ab Initio Ligand Field Theory (pilot matlab implementation)
  Alexander A. Auer      : GIAO ZORA, VPT2 properties, NMR spectrum      
  Ute Becker             : All parallelization in ORCA, NUMFREQ, NUMCALC 
  Giovanni Bistoni       : ED, misc. LED, open-shell LED, HFLD           
  Dmytro Bykov           : pre 5.0 version of the SCF Hessian            
  Marcos Casanova-Páez   : Triplet and SCS-CIS(D). UHF-(DLPNO)-IP/EA/STEOM-CCSD. UHF-CVS-IP/STEOM-CCSD   
  Vijay G. Chilkuri      : MRCI spin determinant printing, contributions to CSF-ICE 
  Pauline Colinet        : FMM embedding                                 
  Dipayan Datta          : RHF DLPNO-CCSD density                        
  Achintya Kumar Dutta   : EOM-CC, STEOM-CC                              
  Nicolas Foglia         : Exact transition moments, OPA infrastructure, MCD improvements    
  Dmitry Ganyushin       : Spin-Orbit,Spin-Spin,Magnetic field MRCI      
  Miquel Garcia-Rates    : C-PCM and meta-GGA Hessian, CCSD/C-PCM, Gaussian charge scheme 
  Tiago L. C. Gouveia    : GS-ROHF, GS-ROCIS                             
  Yang Guo               : DLPNO-NEVPT2, F12-NEVPT2, CIM, IAO-localization        
  Andreas Hansen         : Spin unrestricted coupled pair/coupled cluster methods 
  Ingolf Harden          : AUTO-CI MPn and infrastructure                
  Benjamin Helmich-Paris : MC-RPA, TRAH-(SCF,CASSCF), AVAS, COSX integrals, SCF dyn. polar., MC-PDFT, srDFT 
  Lee Huntington         : MR-EOM, pCC                                   
  Robert Izsak           : Overlap fitted RIJCOSX, COSX-SCS-MP3, EOM     
  Riya Kayal             : Wick's Theorem for AUTO-CI, AUTO-CI UHF-CCSDT 
  Emily Kempfer          : AUTO-CI RHF CISDT and CCSDT, approximate NEVPT4
  Christian Kollmar      : KDIIS, OOCD, Brueckner-CCSD(T), CCSD density, CASPT2, CASPT2-K, improved NEVPT2 
  Axel Koslowski         : Symmetry handling                             
  Simone Kossmann        : meta-GGA functionals, TD-DFT gradient, OOMP2, (MP2 Hessian; deprecated post 5.0) 
  Lucas Lang             : DCDCAS, Hyperfine gauge corrections, ICE-SOC+SSC
  Marvin Lechner         : AUTO-CI (C++ implementation), FIC-MRCC        
  Spencer Leger          : CASSCF response                               
  Dagmar Lenk            : GEPOL surface, SMD, ORCA-2-JSON               
  Dimitrios Liakos       : Extrapolation schemes; Compound Job, Property file
  Dimitrios Manganas     : Further ROCIS development; embedding schemes. LFT, Crystal Embedding 
  Dimitrios Pantazis     : SARC Basis sets                               
  Anastasios Papadopoulos: AUTO-CI, single reference methods and gradients 
  Taras Petrenko         : pre 6.0 DFT Hessian and TD-DFT gradient,  ECA, NRVS 
  Petra Pikulova         : Analytic Raman intensities                    
  Peter Pinski           : DLPNO-MP2, DLPNO-MP2 Gradient                 
  Shashank Vittal Rao    : ES-AILFT, MagRelax                            
  Christoph Reimann      : Effective Core Potentials                     
  Marius Retegan         : Local ZFS, SOC                                
  Christoph Riplinger    : Optimizer, TS searches, QM/MM, DLPNO-CCSD(T), (RO)-DLPNO pert. Triples 
  Michael Roemelt        : Original ROCIS implementation, recursive CI coupling coefficients
  Masaaki Saitow         : Open-shell DLPNO-CCSD energy and density      
  Barbara Sandhoefer     : DKH picture change effects                    
  Yorick L. A. Schmerwitz: GMF and freeze-and-release deltaSCF, NEB S-IDPP initial path                    
  Kantharuban Sivalingam : CASSCF convergence/infrastructure, NEVPT2, NEVPT3, NEVPT4(SD), FIC-MRCI and CEPA variants
  Bernardo de Souza      : ESD, SOC TD-DFT                               
  Georgi L. Stoychev     : AutoAux, RI-MP2 NMR, DLPNO-MP2 response, X2C  
  Van Anh Tran           : RI-MP2 g-tensors                              
  Willem Van den Heuvel  : Paramagnetic NMR                              
  Zikuan Wang            : NOTCH, Electric field optimization            
  Frank Wennmohs         : Technical directorship and infrastructure     
  Hang Xu                : AUTO-CI-Response properties                   
                                                                         
[FACCTs GmbH]                                                            
  Markus Bursch, Nicolas Foglia, Miquel Garcia-Rates, Ingolf Harden, Hagen Neugebauer, Anastasios Papadopoulos, 
  Christoph Riplinger, Bernardo de Souza, Georgi L. Stoychev                                                    
                                                                 
  APM, various basis sets, CI-OPT, improved COSX, DLPNO-Multilevel,           
  DOCKER, DRACO, updates on ESD, Fragmentator, GOAT, IRC, LR-CPCM, L-BFGS, MBIS, meta-GGA TD-DFT gradient, ML-optimized integration grids, 
  MM, NACMEs, nearIR, NEB, NEB-TS, NL-DFT gradient (VV10), 2- and 3-layer-ONIOM, interface openCOSMO-RS, QMMM,   
  Crystal-QMMM, RESP, rigid body optimization, SF, symmetry and pop. for TD-DFT, various functionals, SOLVATOR                                   
                                                                         
[Other institutions]                                                     
  V. Asgeirsson          : NEB                                           
  Christoph Bannwarth    : sTDA-DFT, sTD-DFT, PBEh-3c, B97-3c, D3        
  Giovanni Bistoni       : ETS/NOCV, ADLD/ADEX, COVALED                  
  Martin Brehm           : Molecular dynamics                            
  Ronald Cardenas        : ETS/NOCV                                      
  Martina Colucci        : COVALED                                       
  Sebastian Ehlert       : rSCAN, r2SCAN, r2SCAN-3c, D4, dhf basis sets  
  Marvin Friede          : D4 for Fr, Ra, Ac-Lr                          
  Lars Goerigk           : TD-DFT with DH, B97 family of functionals     
  Stefan Grimme          : VdW corrections, initial TS optimization, DFT functionals, gCP, sTDA/sTD-DF 
  Waldemar Hujo          : DFT-NL                                        
  H. Jonsson             : NEB                                           
  Holger Kruse           : gCP                                           
  Marcel Mueller         : wB97X-3c, vDZP basis set                      
  Hagen Neugebauer       : wr2SCAN, Native XTB                           
  Gianluca Regni         : ADLD/ADEX                                     
  Tobias Risthaus        : pre 6.0 range-separated hybrid DFT and stability analysis
  Lukas Wittmann         : regularized MP2, r2SCAN double-hybrids, wr2SCAN        
                                                                         
We gratefully acknowledge several colleagues who have allowed us to      
interface, adapt or use parts of their codes:                            
  Ed Valeev, F. Pavosevic, A. Kumar             : LibInt (2-el integral package), F12 methods 
  Garnet Chan, S. Sharma, J. Yang, R. Olivares  : DMRG                   
  Ulf Ekstrom                                   : XCFun DFT Library      
  Mihaly Kallay                                 : mrcc  (arbitrary order and MRCC methods)
  Frank Weinhold                                : gennbo (NPA and NBO analysis)           
  Simon Mueller                                 : openCOSMO-RS                            
  Christopher J. Cramer and Donald G. Truhlar   : smd solvation model                     
  S Lehtola, MJT Oliveira, MAL Marques          : LibXC Library                           
  Liviu Ungur et al                             : ANISO software                          


 Your calculation uses the libint2 library for the computation of 2-el integrals
 For citations please refer to: http://libint.valeyev.net

 Your ORCA version has been built with support for libXC version: 7.0.0
 For citations please refer to: https://libxc.gitlab.io

 This ORCA versions uses:
   CBLAS   interface :  Fast vector & matrix operations
   LAPACKE interface :  Fast linear algebra routines
   SCALAPACK package :  Parallel linear algebra routines
   Shared memory     :  Shared parallel matrices
   BLAS/LAPACK       :  OpenBLAS 0.3.29  USE64BITINT DYNAMIC_ARCH NO_AFFINITY Cooperlake SINGLE_THREADED
        Core in use  :  Cooperlake
   Copyright (c) 2011-2014, The OpenBLAS Project


  ***********************************
  * Starting time: Wed May 20 12:33:32 2026
  * Host name:     c1-9
  * Process ID:    1179425
  * Working dir.:  /cluster/projects/nn14654k/ylvaos/basis_set_n_funcs/functionals/gga_x_pw91/CH3COOH/out
  ***********************************

Using LibXC functional ID 109 : Perdew & Wang 91
[ 1]  J. P. Perdew. In P. Ziesche and H. Eschrig, editors, Proceedings of the 75. WE-Heraeus-Seminar and 21st Annual International Symposium on Electronic Structure of Solids, 11. Berlin, 1991. Akademie Verlag.
[ 2]  J. P. Perdew, J. A. Chevary, S. H. Vosko, K. A. Jackson, M. R. Pederson, D. J. Singh, and C. Fiolhais.,  Phys. Rev. B 46, 6671 (1992)
[ 3]  J. P. Perdew, J. A. Chevary, S. H. Vosko, K. A. Jackson, M. R. Pederson, D. J. Singh, and C. Fiolhais.,  Phys. Rev. B 48, 4978 (1993)
Using LibXC functional ID 109 : Perdew & Wang 91
[ 1]  J. P. Perdew. In P. Ziesche and H. Eschrig, editors, Proceedings of the 75. WE-Heraeus-Seminar and 21st Annual International Symposium on Electronic Structure of Solids, 11. Berlin, 1991. Akademie Verlag.
[ 2]  J. P. Perdew, J. A. Chevary, S. H. Vosko, K. A. Jackson, M. R. Pederson, D. J. Singh, and C. Fiolhais.,  Phys. Rev. B 46, 6671 (1992)
[ 3]  J. P. Perdew, J. A. Chevary, S. H. Vosko, K. A. Jackson, M. R. Pederson, D. J. Singh, and C. Fiolhais.,  Phys. Rev. B 48, 4978 (1993)
Your calculation utilizes LibXC
by S. Lehtola, C. Steigemann, M. J. T. Oliveira & M. A. L. Marques
Please cite in your paper:
Lehtola, S.; Steigemann, C.; Oliveira, M.J.T.; Marques, M. A. L. Software X, 7, (2018), 1.
   

================================================================================

----- Orbital basis set information -----
Your calculation utilizes the basis: pcseg-4
   F. Jensen, J. Chem. Theory Comput. 10, 1074 (2014).

================================================================================
                                        WARNINGS
                       Please study these warnings very carefully!
================================================================================


WARNING: The basis set has functions with high angular momentum (Lmax>4).
         We might need to increase small grids for safety reasons and
         in general, DEFGRID3 is recommend for such cases.
  ===> : GRIDX1, TD-DFT and the CP-SCF AngGrids will be increased to at least 2


================================================================================
                                       INPUT FILE
================================================================================
NAME = /cluster/projects/nn14654k/ylvaos/basis_set_n_funcs/functionals/gga_x_pw91/CH3COOH/inp/CH3COOH_gga_x_pw91_pcseg4.inp
|  1> ! dft pcseg-4 TightSCF
|  2> %pal nprocs 8 end
|  3> 
|  4> %loc
|  5>   LocMet NewBoys
|  6>   Occ true
|  7> end
|  8> 
|  9> %method
| 10>   exchange gga_x_pw91
| 11>   correlation None
| 12> end
| 13> 
| 14> %elprop
| 15>   Dipole true
| 16>   Quadrupole true
| 17> end
| 18> 
| 19> * xyz 0 1
| 20> C    0.000000000000   0.154560000000   0.000000000000
| 21> C    1.073776000000  -0.892748000000   0.000000000000
| 22> O    0.166384000000   1.360084000000   0.000000000000
| 23> O   -1.236449000000  -0.415036000000   0.000000000000
| 24> H   -1.867646000000   0.333582000000   0.000000000000
| 25> H    2.048189000000  -0.408135000000   0.000000000000
| 26> H    0.968661000000  -1.528353000000   0.881747000000
| 27> H    0.968661000000  -1.528353000000  -0.881747000000
| 28> *
| 29> 
| 30> 
| 31>                          ****END OF INPUT****
================================================================================

                       ****************************
                       * Single Point Calculation *
                       ****************************

---------------------------------
CARTESIAN COORDINATES (ANGSTROEM)
---------------------------------
  C      0.000000    0.154560    0.000000
  C      1.073776   -0.892748    0.000000
  O      0.166384    1.360084    0.000000
  O     -1.236449   -0.415036    0.000000
  H     -1.867646    0.333582    0.000000
  H      2.048189   -0.408135    0.000000
  H      0.968661   -1.528353    0.881747
  H      0.968661   -1.528353   -0.881747

----------------------------
CARTESIAN COORDINATES (A.U.)
----------------------------
  NO LB      ZA    FRAG     MASS         X           Y           Z
   0 C     6.0000    0    12.011    0.000000    0.292076    0.000000
   1 C     6.0000    0    12.011    2.029143   -1.687049    0.000000
   2 O     8.0000    0    15.999    0.314420    2.570186    0.000000
   3 O     8.0000    0    15.999   -2.336550   -0.784304    0.000000
   4 H     1.0000    0     1.008   -3.529339    0.630379    0.000000
   5 H     1.0000    0     1.008    3.870516   -0.771263    0.000000
   6 H     1.0000    0     1.008    1.830504   -2.888169    1.666260
   7 H     1.0000    0     1.008    1.830504   -2.888169   -1.666260

--------------------------------
INTERNAL COORDINATES (ANGSTROEM)
--------------------------------
 C      0   0   0     0.000000000000     0.00000000     0.00000000
 C      1   0   0     1.499949647502     0.00000000     0.00000000
 O      1   2   0     1.216951827326   126.42686784     0.00000000
 O      1   2   3     1.361339683113   110.98078396   180.00000000
 H      4   1   2     0.979203024267   105.40175469   180.00000085
 H      2   1   3     1.088269476893   109.27200725     0.00000000
 H      2   1   3     1.092025938913   109.72406365   120.93315147
 H      2   1   3     1.092025938913   109.72406365   239.06684853

---------------------------
INTERNAL COORDINATES (A.U.)
---------------------------
 C      0   0   0     0.000000000000     0.00000000     0.00000000
 C      1   0   0     2.834494048450     0.00000000     0.00000000
 O      1   2   0     2.299705671821   126.42686784     0.00000000
 O      1   2   3     2.572559176322   110.98078396   180.00000000
 H      4   1   2     1.850425545371   105.40175469   180.00000085
 H      2   1   3     2.056531271234   109.27200725     0.00000000
 H      2   1   3     2.063629955684   109.72406365   120.93315147
 H      2   1   3     2.063629955684   109.72406365   239.06684853

---------------------
BASIS SET INFORMATION
---------------------
There are 3 groups of distinct atoms

 Group   1 Type C   : 20s11p6d3f2g1h contracted to 6s5p6d3f2g1h pattern {1241111/71111/111111/111/11/1}
 Group   2 Type O   : 20s11p6d3f2g1h contracted to 6s5p6d3f2g1h pattern {1241111/71111/111111/111/11/1}
 Group   3 Type H   : 11s6p3d2f1g contracted to 5s6p3d2f1g pattern {71111/111111/111/11/1}

Atom   0C    basis set group =>   1
Atom   1C    basis set group =>   1
Atom   2O    basis set group =>   2
Atom   3O    basis set group =>   2
Atom   4H    basis set group =>   3
Atom   5H    basis set group =>   3
Atom   6H    basis set group =>   3
Atom   7H    basis set group =>   3


           ************************************************************
           *        Program running with 8 parallel MPI-processes     *
           *              working on a common directory               *
           ************************************************************
------------------------------------------------------------------------------
                             ORCA STARTUP CALCULATIONS
------------------------------------------------------------------------------
------------------------------------------------------------------------------
                   ___                                                        
                  /   \      - P O W E R E D   B Y -                         
                 /     \                                                     
                 |  |  |   _    _      __       _____    __    __             
                 |  |  |  | |  | |    /  \     |  _  \  |  |  /  |          
                  \  \/   | |  | |   /    \    | | | |  |  | /  /          
                 / \  \   | |__| |  /  /\  \   | |_| |  |  |/  /          
                |  |  |   |  __  | /  /__\  \  |    /   |      \           
                |  |  |   | |  | | |   __   |  |    \   |  |\   \          
                \     /   | |  | | |  |  |  |  | |\  \  |  | \   \       
                 \___/    |_|  |_| |__|  |__|  |_| \__\ |__|  \__/        
                                                                              
                      - O R C A' S   B I G   F R I E N D -                    
                                      &                                       
                       - I N T E G R A L  F E E D E R -                       
                                                                              
 v1 FN, 2020, v2 2021, v3 2022-2024                                           
------------------------------------------------------------------------------


----------------------
SHARK INTEGRAL PACKAGE
----------------------

Number of atoms                             ...      8
Number of basis functions                   ...    648
Number of shells                            ...    160
Maximum angular momentum                    ...      5
Integral batch strategy                     ... SHARK/LIBINT Hybrid
RI-J (if used) integral strategy            ... SPLIT-RIJ (Revised 2003 algorithm where possible)
Printlevel                                  ...      1
Contraction scheme used                     ... SEGMENTED contraction
Prescreening option                         ... SCHWARTZ
   Thresh                                   ... 2.500e-11
   Tcut                                     ... 2.500e-12
   Tpresel                                  ... 2.500e-12 
Coulomb Range Separation                    ... NOT USED
Exchange Range Separation                   ... NOT USED
Multipole approximations                    ... NOT USED
Finite Nucleus Model                        ... NOT USED
CABS basis                                  ... NOT available
Auxiliary Coulomb fitting basis             ... NOT available
Auxiliary J/K fitting basis                 ... NOT available
Auxiliary Correlation fitting basis         ... NOT available
Auxiliary 'external' fitting basis          ... NOT available

Checking pre-screening integrals            ... done (  0.0 sec) Dimension = 160
   => SHARK Basis and OBASIS are compatible. Storing Pre-screening
Shell pair information
Shell pair cut-off parameter TPreSel        ...   2.5e-12
Total number of shell pairs                 ...     12880
Shell pairs after pre-screening             ...     12090
Total number of primitive shell pairs       ...     35436
Primitive shell pairs kept                  ...     26382
          la=0 lb=0:    957 shell pairs
          la=1 lb=0:   1815 shell pairs
          la=1 lb=1:    912 shell pairs
          la=2 lb=0:   1514 shell pairs
          la=2 lb=1:   1456 shell pairs
          la=2 lb=2:    628 shell pairs
          la=3 lb=0:    845 shell pairs
          la=3 lb=1:    817 shell pairs
          la=3 lb=2:    683 shell pairs
          la=3 lb=3:    201 shell pairs
          la=4 lb=0:    488 shell pairs
          la=4 lb=1:    479 shell pairs
          la=4 lb=2:    392 shell pairs
          la=4 lb=3:    224 shell pairs
          la=4 lb=4:     71 shell pairs
          la=5 lb=0:    176 shell pairs
          la=5 lb=1:    158 shell pairs
          la=5 lb=2:    143 shell pairs
          la=5 lb=3:     77 shell pairs
          la=5 lb=4:     44 shell pairs
          la=5 lb=5:     10 shell pairs

Checking whether 4 symmetric matrices of dimension 648 fit in memory
:Max Core in MB      =   4096.00
 MB in use           =     22.93
 MB left             =   4073.07
 MB needed           =      6.42
 Data fit in memory  = YES
Calculating Nuclear repulsion               ... done (  0.0 sec) ENN=    120.693288504615 Eh

Diagonalization of the overlap matrix:
Smallest eigenvalue                        ... 9.879e-07
Time for diagonalization                   ...    0.036 sec
Threshold for overlap eigenvalues          ... 1.000e-07
Number of eigenvalues below threshold      ... 0

IMPORTANT:
Smallest eigenvalue of S below the DiffSThresh (1.000e-06) while
Thresh>1e-12 and/or TCut>1e-13! In order to avoid SCF convergence issues,
Thresh will be set to at least 1e-12 and TCut to at least 1e-13.
This can be turned off by adding %SCF DiffSThresh -1 END to the input.

Time for construction of square roots      ...    0.021 sec
Total time needed                          ...    0.061 sec

-------------------
DFT GRID GENERATION
-------------------

General Integration Accuracy     IntAcc      ... 4.388
Radial Grid Type                 RadialGrid  ... OptM3 with GC (2021)
Angular Grid (max. ang.)         AngularGrid ... 4 (Lebedev-302)
Angular grid pruning method      GridPruning ... 4 (adaptive)
Weight generation scheme         WeightScheme... mBecke (2022)
Basis function cutoff            BFCut       ... 1.0000e-11
Integration weight cutoff        WCut        ... 1.0000e-14
Partially contracted basis set               ... off
Rotationally invariant grid construction     ... off
Angular grids for H and He will be reduced by one unit
Diffuse basis detected: some atoms will have their outermost
                        angular grid increased by 1.
Core-polarized basis detected: some atoms will have their core
                               angular grid increased.

Total number of grid points                  ...    46512
Total number of batches                      ...      731
Average number of points per batch           ...       63
Average number of grid points per atom       ...     5814
Grids setup in   0.3 sec
Initializing property integral containers    ... done (  0.0 sec)

SHARK setup successfully completed in   1.0 seconds

Maximum memory used throughout the entire STARTUP-calculation: 62.7 MB


           ************************************************************
           *        Program running with 8 parallel MPI-processes     *
           *              working on a common directory               *
           ************************************************************
-------------------------------------------------------------------------------
                                 ORCA GUESS
                   Start orbitals & Density for SCF / CASSCF
-------------------------------------------------------------------------------

------------
SCF SETTINGS
------------
Hamiltonian:
 Density Functional     Method          .... DFT(GTOs)
  Functional kind                       .... Exchange
  Functional name                       .... Perdew & Wang 91
  Functional family                     .... GGA
  Functional refs                              
    [ 0] J. P. Perdew. In P. Ziesche and H. Eschrig, editors, Proceedings of the 75. WE-Heraeus-Seminar and 21st Annual International Symposium on Electronic Structure of Solids, 11. Berlin, 1991. Akademie Verlag.
    [ 1] J. P. Perdew, J. A. Chevary, S. H. Vosko, K. A. Jackson, M. R. Pederson, D. J. Singh, and C. Fiolhais.,  Phys. Rev. B 46, 6671 (1992), doi: 10.1103/PhysRevB.46.6671
    [ 2] J. P. Perdew, J. A. Chevary, S. H. Vosko, K. A. Jackson, M. R. Pederson, D. J. Singh, and C. Fiolhais.,  Phys. Rev. B 48, 4978 (1993), doi: 10.1103/PhysRevB.48.4978.2
  Functional external parameters        .... 7
    Parameter  0 _a         =  1.964500e-01 : a parameter         
    Parameter  1 _b         =  7.795600e+00 : b parameter         
    Parameter  2 _c         =  2.743000e-01 : c parameter         
    Parameter  3 _d         = -1.508000e-01 : d parameter         
    Parameter  4 _f         =  4.000000e-03 : f parameter         
    Parameter  5 _alpha     =  1.000000e+02 : alpha parameter     
    Parameter  6 _expo      =  4.000000e+00 : exponent            
 Correlation Functional Correlation     .... No Correlation
 Gradients option       PostSCFGGA      .... off


General Settings:
 Integral files         IntName         .... /cluster/projects/nn14654k/ylvaos/basis_set_n_funcs/functionals/gga_x_pw91/CH3COOH/inp/CH3COOH_gga_x_pw91_pcseg4
 Hartree-Fock type      HFTyp           .... RHF
 Total Charge           Charge          ....    0
 Multiplicity           Mult            ....    1
 Number of Electrons    NEL             ....   32
 Basis Dimension        Dim             ....  648
 Nuclear Repulsion      ENuc            ....    120.6932885046 Eh

Convergence Acceleration:
 AO-DIIS                CNVDIIS         .... on
   Start iteration      DIISMaxIt       ....    12
   Startup error        DIISStart       ....  0.200000
   # of expansion vecs  DIISMaxEq       ....     5
   Bias factor          DIISBfac        ....   1.050
   Max. coefficient     DIISMaxC        ....  10.000
 MO-DIIS                CNVKDIIS        .... off
 Trust-Rad. Augm. Hess. CNVTRAH         .... auto
   Auto Start mean grad. ratio tolernc. ....  1.125000
   Auto Start start iteration           ....    50
   Auto Start num. interpolation iter.  ....    10
   Max. Number of Micro iterations      ....    24
   Max. Number of Macro iterations      .... Maxiter - #DIIS iter
   Number of Davidson start vectors     ....     2
   Converg. threshold    (grad. norm)   ....   1.000e-05
   Grad. Scal. Fac. for Micro threshold ....   0.100
   Minimum threshold for Micro iter.    ....   1.000e-02
   NR start threshold (gradient norm)   ....   1.000e-04
   Initial trust radius                 ....   0.400
   Minimum AH scaling param. (alpha)    ....   1.000
   Maximum AH scaling param. (alpha)    .... 1000.000
   Quad. conv. algorithm                .... NR
   White noise on init. David. guess    .... on
   Maximum white noise                  ....   0.010
   Pseudo random numbers                .... off
   Inactive MOs                         .... canonical
   Orbital update algorithm             .... Taylor
   Preconditioner                       .... Diag
   Full preconditioner red. dimension   ....   250
 SOSCF                 CNVSOSCF           .... on
   Start iteration     SOSCFMaxIt         ....   150
   Startup grad/error  SOSCFStart         ....  0.003300
   Hessian update      SOSCFHessUp        .... L-BFGS
   Autom. constraints  SOSCFAutoConstrain .... off
 Level Shifting         CNVShift        .... on
   Level shift para.    LevelShift      ....    0.2500
   Turn off err/grad.   ShiftErr        ....    0.0010
 Zerner damping         CNVZerner       .... off
 Static damping         CNVDamp         .... on
   Fraction old density DampFac         ....    0.7000
   Max. Damping (<1)    DampMax         ....    0.9800
   Min. Damping (>=0)   DampMin         ....    0.0000
   Turn off err/grad.   DampErr         ....    0.1000

SCF Procedure:
 Maximum # iterations   MaxIter         ....   125
 SCF integral mode      SCFMode         .... Direct
   Integral package                     .... SHARK and LIBINT hybrid scheme
 Reset frequency        DirectResetFreq ....    20
 Integral Threshold     Thresh          ....  1.000e-12 Eh
 Primitive CutOff       TCut            ....  1.000e-13 Eh

Convergence Tolerance:
 Convergence Check Mode ConvCheckMode   .... Total+1el-Energy
 Convergence forced     ConvForced      .... 0
 Energy Change          TolE            ....  1.000e-08 Eh
 1-El. energy change                    ....  1.000e-05 Eh
 Orbital Gradient       TolG            ....  1.000e-05
 Orbital Rotation angle TolX            ....  1.000e-05
 DIIS Error             TolErr          ....  5.000e-07

------------------------------
INITIAL GUESS: MODEL POTENTIAL
------------------------------
Loading Hartree-Fock densities                     ... done
Calculating cut-offs                               ... done
Initializing the effective Hamiltonian             ... done
Setting up the integral package (SHARK)            ... done
Starting the Coulomb interaction                   ... done (   0.1 sec)
Making the grid                                    ... done (   0.1 sec)
Mapping shells                                     ... done
Starting the XC term evaluation                    ... done (   0.1 sec)
  promolecular density results
     # of electrons  =     31.997033092
     EX              =    -27.798975587
     EC              =      0.000000000
     EX+EC           =    -27.798975587
Transforming the Hamiltonian                       ... done (   0.0 sec)
Diagonalizing the Hamiltonian                      ... done (   0.0 sec)
Back transforming the eigenvectors                 ... done (   0.0 sec)
Now organizing SCF variables                       ... done
                      ------------------
                      INITIAL GUESS DONE (   0.4 sec)
                      ------------------
             **** ENERGY FILE WAS UPDATED (/cluster/projects/nn14654k/ylvaos/basis_set_n_funcs/functionals/gga_x_pw91/CH3COOH/inp/CH3COOH_gga_x_pw91_pcseg4.en.tmp) ****
Finished Guess after   0.6 sec
Maximum memory used throughout the entire GUESS-calculation: 49.5 MB


           ************************************************************
           *        Program running with 8 parallel MPI-processes     *
           *              working on a common directory               *
           ************************************************************

-------------------------------------------------------------------------------------------
                                      ORCA LEAN-SCF
                              memory conserving SCF solver
-------------------------------------------------------------------------------------------

----------------------------------------D-I-I-S--------------------------------------------
Iteration    Energy (Eh)           Delta-E    RMSDP     MaxDP     DIISErr   Damp  Time(sec)
-------------------------------------------------------------------------------------------
               ***  Starting incremental Fock matrix formation  ***
    1    -227.8099648430592765     0.00e+00  2.06e-03  1.31e-01  2.99e-01  0.700  40.1
    2    -227.9074765067925341    -9.75e-02  1.05e-03  4.43e-02  8.73e-02  0.700  37.9
                               ***Turning on AO-DIIS***
    3    -227.9318250617873787    -2.43e-02  7.55e-04  2.73e-02  3.14e-02  0.700  37.4
    4    -227.9502310423209224    -1.84e-02  2.19e-03  1.07e-01  2.28e-02  0.000  37.3
    5    -227.9944793051957390    -4.42e-02  3.24e-04  1.40e-02  1.39e-02  0.000  38.8
    6    -227.9950214460227471    -5.42e-04  2.54e-04  1.00e-02  4.31e-03  0.000  33.4
                              *** Initializing SOSCF ***
---------------------------------------S-O-S-C-F--------------------------------------
Iteration    Energy (Eh)           Delta-E    RMSDP     MaxDP     MaxGrad    Time(sec)
--------------------------------------------------------------------------------------
    7    -227.9950657363302753    -4.43e-05  1.76e-04  7.52e-03  2.31e-03    33.7
               *** Restarting incremental Fock matrix formation ***
    8    -227.9950784148343246    -1.27e-05  2.14e-04  9.59e-03  2.00e-04    39.6
    9    -227.9950771318784746     1.28e-06  1.01e-04  4.65e-03  5.78e-04    30.9
   10    -227.9950796320544555    -2.50e-06  7.53e-05  3.34e-03  2.00e-04    29.6
   11    -227.9950795502102210     8.18e-08  3.56e-06  1.02e-04  1.71e-04    29.4
   12    -227.9950799720098189    -4.22e-07  2.99e-05  1.32e-03  4.85e-05    26.3
   13    -227.9950799741966421    -2.19e-09  7.57e-06  3.30e-04  3.41e-05    26.5
                 **** Energy Check signals convergence ****

               *****************************************************
               *                     SUCCESS                       *
               *           SCF CONVERGED AFTER  13 CYCLES          *
               *****************************************************

             **** ENERGY FILE WAS UPDATED (/cluster/projects/nn14654k/ylvaos/basis_set_n_funcs/functionals/gga_x_pw91/CH3COOH/inp/CH3COOH_gga_x_pw91_pcseg4.en.tmp) ****

----------------
TOTAL SCF ENERGY
----------------

Total Energy       :       -227.99508002148377 Eh           -6204.06154 eV

Components:
Nuclear Repulsion  :        120.69328850461517 Eh            3284.23135 eV
Electronic Energy  :       -348.68836852609900 Eh           -9488.29288 eV
One Electron Energy:       -550.84245035608501 Eh          -14989.18511 eV
Two Electron Energy:        202.15408182998604 Eh            5500.89223 eV

Virial components:
Potential Energy   :       -456.23091771993359 Eh          -12414.67442 eV
Kinetic Energy     :        228.23583769844984 Eh            6210.61289 eV
Virial Ratio       :          1.99894513640192

DFT components:
N(Alpha)           :       16.000026280690 electrons
N(Beta)            :       16.000026280690 electrons
N(Total)           :       32.000052561380 electrons
E(X)               :      -28.270243508286 Eh       
E(C)               :        0.000000000000 Eh       
E(XC)              :      -28.270243508286 Eh       

---------------
SCF CONVERGENCE
---------------

  Last Energy change         ...    2.1868e-09  Tolerance :   1.0000e-08
  Last MAX-Density change    ...    3.2999e-04  Tolerance :   1.0000e-07
  Last RMS-Density change    ...    7.5673e-06  Tolerance :   5.0000e-09
  Last DIIS Error            ...    2.3098e-03  Tolerance :   5.0000e-07
  Last Orbital Gradient      ...    3.4150e-05  Tolerance :   1.0000e-05
  Last Orbital Rotation      ...    8.4140e-05  Tolerance :   1.0000e-05


----------------
ORBITAL ENERGIES
----------------

  NO   OCC          E(Eh)            E(eV) 
   0   2.0000     -18.793122      -511.3868 
   1   2.0000     -18.735669      -509.8235 
   2   2.0000     -10.009118      -272.3619 
   3   2.0000      -9.893643      -269.2197 
   4   2.0000      -0.982441       -26.7336 
   5   2.0000      -0.896701       -24.4005 
   6   2.0000      -0.661367       -17.9967 
   7   2.0000      -0.523859       -14.2549 
   8   2.0000      -0.410077       -11.1588 
   9   2.0000      -0.395921       -10.7736 
  10   2.0000      -0.394938       -10.7468 
  11   2.0000      -0.341303        -9.2873 
  12   2.0000      -0.322620        -8.7789 
  13   2.0000      -0.322147        -8.7661 
  14   2.0000      -0.256069        -6.9680 
  15   2.0000      -0.209050        -5.6885 
  16   0.0000      -0.023138        -0.6296 
  17   0.0000      -0.015402        -0.4191 
  18   0.0000       0.002203         0.0599 
  19   0.0000       0.028058         0.7635 
  20   0.0000       0.029510         0.8030 
  21   0.0000       0.038375         1.0442 
  22   0.0000       0.055514         1.5106 
  23   0.0000       0.062284         1.6948 
  24   0.0000       0.066495         1.8094 
  25   0.0000       0.067562         1.8384 
  26   0.0000       0.105588         2.8732 
*Only the first 10 virtual orbitals were printed.

                    ********************************
                    * MULLIKEN POPULATION ANALYSIS *
                    ********************************

-----------------------
MULLIKEN ATOMIC CHARGES
-----------------------
   0 C :    0.695955
   1 C :   -0.531774
   2 O :   -0.631183
   3 O :   -0.649666
   4 H :    0.379245
   5 H :    0.269254
   6 H :    0.234085
   7 H :    0.234085
Sum of atomic charges:   -0.0000000

--------------------------------
MULLIKEN REDUCED ORBITAL CHARGES
--------------------------------
  0 C s       :     3.218654  s :     3.218654
      pz      :     0.721871  p :     1.821496
      px      :     0.583511
      py      :     0.516115
      dz2     :     0.019097  d :     0.249332
      dxz     :     0.030590
      dyz     :     0.059372
      dx2y2   :     0.039227
      dxy     :     0.101046
      f0      :    -0.000644  f :     0.011907
      f+1     :    -0.000203
      f-1     :    -0.000476
      f+2     :     0.002986
      f-2     :     0.002014
      f+3     :     0.003278
      f-3     :     0.004952
      g0      :     0.000138  g :     0.002471
      g+1     :     0.000203
      g-1     :     0.000241
      g+2     :     0.000174
      g-2     :     0.000229
      g+3     :     0.000062
      g-3     :     0.000148
      g+4     :     0.000444
      g-4     :     0.000832
      h0      :     0.000004  h :     0.000184
      h+1     :     0.000007
      h-1     :     0.000013
      h+2     :     0.000010
      h-2     :     0.000005
      h+3     :     0.000008
      h-3     :     0.000019
      h+4     :     0.000008
      h-4     :     0.000011
      h+5     :     0.000047
      h-5     :     0.000052

  1 C s       :     3.322441  s :     3.322441
      pz      :     1.093945  p :     3.124118
      px      :     0.970181
      py      :     1.059993
      dz2     :     0.014478  d :     0.076498
      dxz     :     0.003704
      dyz     :     0.025032
      dx2y2   :     0.011659
      dxy     :     0.021625
      f0      :     0.001369  f :     0.008823
      f+1     :     0.001415
      f-1     :     0.002857
      f+2     :     0.000521
      f-2     :     0.000441
      f+3     :     0.000374
      f-3     :     0.001846
      g0      :    -0.000054  g :    -0.000106
      g+1     :     0.000028
      g-1     :    -0.000087
      g+2     :     0.000080
      g-2     :    -0.000067
      g+3     :     0.000032
      g-3     :    -0.000001
      g+4     :     0.000002
      g-4     :    -0.000039
      h0      :    -0.000001  h :     0.000000
      h+1     :    -0.000000
      h-1     :     0.000001
      h+2     :    -0.000004
      h-2     :     0.000002
      h+3     :     0.000001
      h-3     :    -0.000003
      h+4     :     0.000000
      h-4     :     0.000000
      h+5     :     0.000003
      h-5     :     0.000001

  2 O s       :     3.937781  s :     3.937781
      pz      :     1.413394  p :     4.643107
      px      :     1.817061
      py      :     1.412652
      dz2     :     0.002822  d :     0.042957
      dxz     :     0.000656
      dyz     :     0.018932
      dx2y2   :     0.006767
      dxy     :     0.013780
      f0      :     0.001124  f :     0.006631
      f+1     :     0.000184
      f-1     :     0.000400
      f+2     :     0.001675
      f-2     :     0.000223
      f+3     :     0.001786
      f-3     :     0.001239
      g0      :     0.000027  g :     0.000657
      g+1     :     0.000004
      g-1     :     0.000143
      g+2     :     0.000056
      g-2     :     0.000038
      g+3     :     0.000019
      g-3     :     0.000088
      g+4     :     0.000120
      g-4     :     0.000162
      h0      :     0.000004  h :     0.000051
      h+1     :     0.000000
      h-1     :     0.000004
      h+2     :     0.000007
      h-2     :     0.000001
      h+3     :     0.000003
      h-3     :     0.000004
      h+4     :     0.000004
      h-4     :     0.000002
      h+5     :     0.000012
      h-5     :     0.000009

  3 O s       :     3.922289  s :     3.922289
      pz      :     1.738771  p :     4.674752
      px      :     1.332372
      py      :     1.603608
      dz2     :     0.006456  d :     0.046172
      dxz     :     0.007052
      dyz     :     0.004083
      dx2y2   :     0.012383
      dxy     :     0.016198
      f0      :     0.000870  f :     0.005940
      f+1     :     0.000826
      f-1     :     0.000650
      f+2     :     0.000412
      f-2     :     0.000674
      f+3     :     0.001925
      f-3     :     0.000583
      g0      :     0.000032  g :     0.000484
      g+1     :     0.000047
      g-1     :     0.000020
      g+2     :     0.000039
      g-2     :     0.000058
      g+3     :     0.000007
      g-3     :     0.000047
      g+4     :     0.000120
      g-4     :     0.000114
      h0      :     0.000002  h :     0.000029
      h+1     :     0.000003
      h-1     :     0.000001
      h+2     :     0.000001
      h-2     :     0.000001
      h+3     :     0.000000
      h-3     :     0.000003
      h+4     :     0.000000
      h-4     :     0.000002
      h+5     :     0.000007
      h-5     :     0.000008

  4 H s       :     0.539239  s :     0.539239
      pz      :     0.036191  p :     0.069323
      px      :     0.009406
      py      :     0.023725
      dz2     :     0.000064  d :     0.011029
      dxz     :     0.002180
      dyz     :     0.003764
      dx2y2   :     0.003217
      dxy     :     0.001804
      f0      :     0.000169  f :     0.001125
      f+1     :    -0.000034
      f-1     :     0.000033
      f+2     :     0.000019
      f-2     :     0.000362
      f+3     :     0.000129
      f-3     :     0.000447
      g0      :     0.000003  g :     0.000039
      g+1     :     0.000003
      g-1     :     0.000004
      g+2     :     0.000001
      g-2     :     0.000006
      g+3     :     0.000003
      g-3     :     0.000001
      g+4     :     0.000011
      g-4     :     0.000007

  5 H s       :     0.686518  s :     0.686518
      pz      :     0.015906  p :     0.033928
      px      :     0.006425
      py      :     0.011597
      dz2     :    -0.000062  d :     0.009038
      dxz     :     0.003325
      dyz     :     0.001072
      dx2y2   :     0.003614
      dxy     :     0.001090
      f0      :     0.000215  f :     0.001255
      f+1     :     0.000008
      f-1     :     0.000010
      f+2     :     0.000113
      f-2     :     0.000272
      f+3     :     0.000606
      f-3     :     0.000032
      g0      :     0.000000  g :     0.000008
      g+1     :     0.000002
      g-1     :     0.000000
      g+2     :     0.000000
      g-2     :     0.000000
      g+3     :     0.000000
      g-3     :     0.000001
      g+4     :     0.000003
      g-4     :     0.000001

  6 H s       :     0.712904  s :     0.712904
      pz      :     0.008349  p :     0.041932
      px      :     0.020193
      py      :     0.013390
      dz2     :     0.002972  d :     0.009842
      dxz     :     0.003081
      dyz     :     0.000256
      dx2y2   :     0.001384
      dxy     :     0.002148
      f0      :     0.000465  f :     0.001229
      f+1     :     0.000128
      f-1     :     0.000003
      f+2     :     0.000090
      f-2     :     0.000383
      f+3     :     0.000103
      f-3     :     0.000057
      g0      :     0.000001  g :     0.000008
      g+1     :     0.000000
      g-1     :     0.000002
      g+2     :     0.000001
      g-2     :     0.000002
      g+3     :     0.000001
      g-3     :     0.000001
      g+4     :     0.000000
      g-4     :     0.000000

  7 H s       :     0.712904  s :     0.712904
      pz      :     0.008349  p :     0.041932
      px      :     0.020193
      py      :     0.013390
      dz2     :     0.002972  d :     0.009842
      dxz     :     0.003081
      dyz     :     0.000256
      dx2y2   :     0.001384
      dxy     :     0.002148
      f0      :     0.000465  f :     0.001229
      f+1     :     0.000128
      f-1     :     0.000003
      f+2     :     0.000090
      f-2     :     0.000383
      f+3     :     0.000103
      f-3     :     0.000057
      g0      :     0.000001  g :     0.000008
      g+1     :     0.000000
      g-1     :     0.000002
      g+2     :     0.000001
      g-2     :     0.000002
      g+3     :     0.000001
      g-3     :     0.000001
      g+4     :     0.000000
      g-4     :     0.000000



                     *******************************
                     * LOEWDIN POPULATION ANALYSIS *
                     *******************************

----------------------
LOEWDIN ATOMIC CHARGES
----------------------
   0 C :   -0.802932
   1 C :    0.609440
   2 O :    0.447237
   3 O :    0.967674
   4 H :   -0.635083
   5 H :   -0.200009
   6 H :   -0.193163
   7 H :   -0.193163

-------------------------------
LOEWDIN REDUCED ORBITAL CHARGES
-------------------------------
  0 C s       :     2.488914  s :     2.488914
      pz      :     0.611181  p :     2.386269
      px      :     0.801515
      py      :     0.973573
      dz2     :     0.114917  d :     1.424064
      dxz     :     0.157791
      dyz     :     0.254426
      dx2y2   :     0.409343
      dxy     :     0.487588
      f0      :     0.023813  f :     0.433624
      f+1     :     0.020992
      f-1     :     0.029957
      f+2     :     0.061000
      f-2     :     0.038532
      f+3     :     0.161889
      f-3     :     0.097440
      g0      :     0.001978  g :     0.065353
      g+1     :     0.005255
      g-1     :     0.010851
      g+2     :     0.005449
      g-2     :     0.006691
      g+3     :     0.001084
      g-3     :     0.005768
      g+4     :     0.013684
      g-4     :     0.014593
      h0      :     0.000173  h :     0.004708
      h+1     :     0.000104
      h-1     :     0.000206
      h+2     :     0.000562
      h-2     :     0.000147
      h+3     :     0.000289
      h-3     :     0.000255
      h+4     :     0.000265
      h-4     :     0.000259
      h+5     :     0.001284
      h-5     :     0.001165

  1 C s       :     2.403845  s :     2.403845
      pz      :     0.803331  p :     2.395802
      px      :     0.794044
      py      :     0.798427
      dz2     :     0.085304  d :     0.482142
      dxz     :     0.034180
      dyz     :     0.119620
      dx2y2   :     0.118863
      dxy     :     0.124174
      f0      :     0.006692  f :     0.098728
      f+1     :     0.011539
      f-1     :     0.016495
      f+2     :     0.010012
      f-2     :     0.011330
      f+3     :     0.019730
      f-3     :     0.022930
      g0      :     0.000600  g :     0.009669
      g+1     :     0.000533
      g-1     :     0.001205
      g+2     :     0.001289
      g-2     :     0.001000
      g+3     :     0.000520
      g-3     :     0.000666
      g+4     :     0.001541
      g-4     :     0.002314
      h0      :     0.000040  h :     0.000374
      h+1     :     0.000017
      h-1     :     0.000029
      h+2     :     0.000036
      h-2     :     0.000023
      h+3     :     0.000026
      h-3     :     0.000054
      h+4     :     0.000018
      h-4     :     0.000009
      h+5     :     0.000061
      h-5     :     0.000060

  2 O s       :     3.175065  s :     3.175065
      pz      :     1.199115  p :     4.115379
      px      :     1.445931
      py      :     1.470333
      dz2     :     0.023426  d :     0.194003
      dxz     :     0.003513
      dyz     :     0.035100
      dx2y2   :     0.059600
      dxy     :     0.072364
      f0      :     0.005675  f :     0.061871
      f+1     :     0.002236
      f-1     :     0.007011
      f+2     :     0.008943
      f-2     :     0.001903
      f+3     :     0.021847
      f-3     :     0.014256
      g0      :     0.000258  g :     0.005846
      g+1     :     0.000021
      g-1     :     0.000849
      g+2     :     0.000547
      g-2     :     0.000367
      g+3     :     0.000133
      g-3     :     0.000544
      g+4     :     0.001296
      g-4     :     0.001831
      h0      :     0.000038  h :     0.000599
      h+1     :     0.000007
      h-1     :     0.000044
      h+2     :     0.000062
      h-2     :     0.000005
      h+3     :     0.000053
      h-3     :     0.000049
      h+4     :     0.000032
      h-4     :     0.000013
      h+5     :     0.000170
      h-5     :     0.000128

  3 O s       :     2.925279  s :     2.925279
      pz      :     1.298946  p :     3.795869
      px      :     1.158770
      py      :     1.338153
      dz2     :     0.030240  d :     0.245889
      dxz     :     0.035650
      dyz     :     0.012983
      dx2y2   :     0.071097
      dxy     :     0.095919
      f0      :     0.005212  f :     0.061802
      f+1     :     0.006388
      f-1     :     0.003051
      f+2     :     0.002590
      f-2     :     0.007159
      f+3     :     0.026463
      f-3     :     0.010939
      g0      :     0.000182  g :     0.003208
      g+1     :     0.000372
      g-1     :     0.000104
      g+2     :     0.000251
      g-2     :     0.000515
      g+3     :     0.000025
      g-3     :     0.000358
      g+4     :     0.001062
      g-4     :     0.000339
      h0      :     0.000020  h :     0.000280
      h+1     :     0.000018
      h-1     :     0.000008
      h+2     :     0.000014
      h-2     :     0.000022
      h+3     :     0.000037
      h-3     :     0.000024
      h+4     :     0.000004
      h-4     :     0.000013
      h+5     :     0.000069
      h-5     :     0.000051

  4 H s       :     0.645289  s :     0.645289
      pz      :     0.139721  p :     0.523134
      px      :     0.156576
      py      :     0.226837
      dz2     :     0.034477  d :     0.373622
      dxz     :     0.049913
      dyz     :     0.069691
      dx2y2   :     0.128347
      dxy     :     0.091194
      f0      :     0.013193  f :     0.091159
      f+1     :     0.004443
      f-1     :     0.004983
      f+2     :     0.000707
      f-2     :     0.022611
      f+3     :     0.020412
      f-3     :     0.024809
      g0      :     0.000075  g :     0.001880
      g+1     :     0.000167
      g-1     :     0.000233
      g+2     :     0.000081
      g-2     :     0.000170
      g+3     :     0.000230
      g-3     :     0.000085
      g+4     :     0.000330
      g-4     :     0.000509

  5 H s       :     0.709905  s :     0.709905
      pz      :     0.076559  p :     0.273490
      px      :     0.115685
      py      :     0.081246
      dz2     :     0.012482  d :     0.183975
      dxz     :     0.048207
      dyz     :     0.021526
      dx2y2   :     0.051676
      dxy     :     0.050083
      f0      :     0.004215  f :     0.032345
      f+1     :     0.003456
      f-1     :     0.001006
      f+2     :     0.001655
      f-2     :     0.005508
      f+3     :     0.009955
      f-3     :     0.006550
      g0      :     0.000013  g :     0.000294
      g+1     :     0.000045
      g-1     :     0.000014
      g+2     :     0.000021
      g-2     :     0.000022
      g+3     :     0.000001
      g-3     :     0.000044
      g+4     :     0.000084
      g-4     :     0.000050

  6 H s       :     0.700930  s :     0.700930
      pz      :     0.110538  p :     0.278111
      px      :     0.072914
      py      :     0.094659
      dz2     :     0.061836  d :     0.181845
      dxz     :     0.034095
      dyz     :     0.037776
      dx2y2   :     0.016484
      dxy     :     0.031654
      f0      :     0.009046  f :     0.031991
      f+1     :     0.002249
      f-1     :     0.006446
      f+2     :     0.004784
      f-2     :     0.006709
      f+3     :     0.001797
      f-3     :     0.000959
      g0      :     0.000047  g :     0.000286
      g+1     :     0.000007
      g-1     :     0.000072
      g+2     :     0.000044
      g-2     :     0.000051
      g+3     :     0.000032
      g-3     :     0.000024
      g+4     :     0.000003
      g-4     :     0.000004

  7 H s       :     0.700930  s :     0.700930
      pz      :     0.110538  p :     0.278111
      px      :     0.072914
      py      :     0.094659
      dz2     :     0.061836  d :     0.181845
      dxz     :     0.034095
      dyz     :     0.037776
      dx2y2   :     0.016484
      dxy     :     0.031654
      f0      :     0.009046  f :     0.031991
      f+1     :     0.002249
      f-1     :     0.006446
      f+2     :     0.004784
      f-2     :     0.006709
      f+3     :     0.001797
      f-3     :     0.000959
      g0      :     0.000047  g :     0.000286
      g+1     :     0.000007
      g-1     :     0.000072
      g+2     :     0.000044
      g-2     :     0.000051
      g+3     :     0.000032
      g-3     :     0.000024
      g+4     :     0.000003
      g-4     :     0.000004



                      *****************************
                      * MAYER POPULATION ANALYSIS *
                      *****************************

  NA   - Mulliken gross atomic population
  ZA   - Total nuclear charge
  QA   - Mulliken gross atomic charge
  VA   - Mayer's total valence
  BVA  - Mayer's bonded valence
  FA   - Mayer's free valence

  ATOM       NA         ZA         QA         VA         BVA        FA
  0 C      5.3040     6.0000     0.6960     3.9667     3.9667    -0.0000
  1 C      6.5318     6.0000    -0.5318     3.7394     3.7394     0.0000
  2 O      8.6312     8.0000    -0.6312     1.6965     1.6965     0.0000
  3 O      8.6497     8.0000    -0.6497     1.9282     1.9282    -0.0000
  4 H      0.6208     1.0000     0.3792     0.9098     0.9098    -0.0000
  5 H      0.7307     1.0000     0.2693     0.9378     0.9378    -0.0000
  6 H      0.7659     1.0000     0.2341     0.9755     0.9755     0.0000
  7 H      0.7659     1.0000     0.2341     0.9755     0.9755     0.0000

  Mayer bond orders larger than 0.100000
B(  0-C ,  1-C ) :   1.1793 B(  0-C ,  2-O ) :   1.6052 B(  0-C ,  3-O ) :   1.0493 
B(  1-C ,  5-H ) :   0.9118 B(  1-C ,  6-H ) :   0.8725 B(  1-C ,  7-H ) :   0.8725 
B(  3-O ,  4-H ) :   0.8458 

-------
TIMINGS
-------

Total SCF time: 0 days 0 hours 7 min 45 sec 

Total time                  ....     465.950 sec
Sum of individual times     ....     441.447 sec  ( 94.7%)

SCF preparation             ....       0.188 sec  (  0.0%)
Fock matrix formation       ....     438.430 sec  ( 94.1%)
  Startup                   ....       0.036 sec  (  0.0% of F)
  Coulomb formation         ....     456.954 sec  (104.2% of F)
  XC integration            ....       4.714 sec  (  1.1% of F)
    XC Preparation          ....       0.000 sec  (  0.0% of XC)
    Basis function eval.    ....       0.412 sec  (  8.7% of XC)
    Density eval.           ....       0.930 sec  ( 19.7% of XC)
    XC-Functional eval.     ....       0.039 sec  (  0.8% of XC)
    XC-Potential eval.      ....       2.365 sec  ( 50.2% of XC)
Diagonalization             ....       0.000 sec  (  0.0%)
Density matrix formation    ....       0.364 sec  (  0.1%)
Total Energy calculation    ....       0.088 sec  (  0.0%)
Population analysis         ....       0.086 sec  (  0.0%)
Orbital Transformation      ....       0.243 sec  (  0.1%)
Orbital Orthonormalization  ....       0.000 sec  (  0.0%)
DIIS solution               ....       1.513 sec  (  0.3%)
SOSCF solution              ....       0.535 sec  (  0.1%)
Finished LeanSCF after 466.0 sec

Maximum memory used throughout the entire LEANSCF-calculation: 94.7 MB


           ************************************************************
           *        Program running with 8 parallel MPI-processes     *
           *              working on a common directory               *
           ************************************************************

------------------------------------------------------------------------------
                         ORCA PROPERTY INTEGRAL CALCULATIONS
------------------------------------------------------------------------------

GBWName                                   ... /cluster/projects/nn14654k/ylvaos/basis_set_n_funcs/functionals/gga_x_pw91/CH3COOH/inp/CH3COOH_gga_x_pw91_pcseg4.gbw
Number of atoms                           ...      8
Number of basis functions                 ...    648
Max core memory                           ...   4096 MB

Dipole integrals                          ... YES
Quadrupole integrals                      ... YES
Linear momentum integrals                 ...  NO
Angular momentum integrals                ...  NO
Higher moments length integrals           ...  NO
Higher moments velocity integrals         ...  NO
Kinetic energy integrals                  ...  NO
GIAO right hand sides                     ...  NO
GIAO dipole derivative integrals          ...  NO
SOC integrals                             ...  NO
EPR diamagnetic integrals (GIAO)          ...  NO
EPR gauge integrals                       ...  NO
Field gradient integrals                  ...  NO (   0 nuclei)
Spin-dipole/Fermi contact integrals       ...  NO (   0 nuclei)
Contact density integrals                 ...  NO (   0 nuclei)
Nucleus-orbit integrals                   ...  NO (   0 nuclei)
Geometric perturbations                   ...  NO (   8 nuclei)

Choice of electric origin   ... Center of mass
Position of electric origin ... ( -0.0657,  0.0975,  0.0000) 
Choice of magnetic origin   ... GIAO
Position of magnetic origin ... (  0.0000,  0.0000,  0.0000) 

Calculating integrals                     ... Electric Dipole (Length)     done (  0.0 sec)
Calculating integrals                     ... Electric Quadrupole (Length) done (  0.0 sec)

Property integrals calculated in   0.1 sec

Maximum memory used throughout the entire PROPINT-calculation: 57.4 MB
------------------------------------------------------------------------------
                           ORCA ORBITAL LOCALIZATION
------------------------------------------------------------------------------

Input orbitals are from                  ... /cluster/projects/nn14654k/ylvaos/basis_set_n_funcs/functionals/gga_x_pw91/CH3COOH/inp/CH3COOH_gga_x_pw91_pcseg4.gbw
Output orbitals are to                   ... /cluster/projects/nn14654k/ylvaos/basis_set_n_funcs/functionals/gga_x_pw91/CH3COOH/inp/CH3COOH_gga_x_pw91_pcseg4.loc
Max. number of iterations                ... 128
Localizations seeded randomly            ... on
Convergence tolerance                    ... 1.000e-06
Threshold for strong local MOs           ... 9.500e-01
Threshold for bond MOs                   ... 8.500e-01
Operator                                 ... 0
Orbital range for localization           ... 4 to 15
Localization criterion                   ... NEW-BOYS
Doing the dipole integrals               ... o.k.
Initial value of the localization sum :    67.741077
ITERATION   0 : L=   80.7310950091 DL=  1.30e+01 (AVERGE_DL)=    0.4436422538 
ITERATION   1 : L=   81.4389332244 DL=  7.08e-01 (AVERGE_DL)=    0.1035607138 
ITERATION   2 : L=   81.4554804492 DL=  1.65e-02 (AVERGE_DL)=    0.0158339991 
ITERATION   3 : L=   81.4574342208 DL=  1.95e-03 (AVERGE_DL)=    0.0054408272 
ITERATION   4 : L=   81.4579051629 DL=  4.71e-04 (AVERGE_DL)=    0.0026712330 
ITERATION   5 : L=   81.4580944675 DL=  1.89e-04 (AVERGE_DL)=    0.0016935914 
ITERATION   6 : L=   81.4582037810 DL=  1.09e-04 (AVERGE_DL)=    0.0012869600 
ITERATION   7 : L=   81.4582733234 DL=  6.95e-05 (AVERGE_DL)=    0.0010264856 
ITERATION   8 : L=   81.4583184220 DL=  4.51e-05 (AVERGE_DL)=    0.0008266269 
ITERATION   9 : L=   81.4583475752 DL=  2.92e-05 (AVERGE_DL)=    0.0006646160 
ITERATION  10 : L=   81.4583663088 DL=  1.87e-05 (AVERGE_DL)=    0.0005327693 
ITERATION  11 : L=   81.4583782821 DL=  1.20e-05 (AVERGE_DL)=    0.0004259264 
ITERATION  12 : L=   81.4583859006 DL=  7.62e-06 (AVERGE_DL)=    0.0003397524 
ITERATION  13 : L=   81.4583907321 DL=  4.83e-06 (AVERGE_DL)=    0.0002705647 
ITERATION  14 : L=   81.4583937883 DL=  3.06e-06 (AVERGE_DL)=    0.0002151889 
ITERATION  15 : L=   81.4583957173 DL=  1.93e-06 (AVERGE_DL)=    0.0001709566 
ITERATION  16 : L=   81.4583969323 DL=  1.22e-06 (AVERGE_DL)=    0.0001356836 
ITERATION  17 : L=   81.4583976974 DL=  7.65e-07 (AVERGE_DL)=    0.0001076678 
LOCALIZATION SUM CONVERGED


--------------------------------------------------------------------------------
                    LOCALIZED MOLECULAR ORBITAL COMPOSITIONS
--------------------------------------------------------------------------------

The Mulliken populations for each LMO on each atom are computed
The LMO`s will be ordered according to atom index and type
  (A) Strongly localized MO`s have populations of >=0.950 on one atom
  (B) Two center bond orbitals have populations of >=0.850 on two atoms
  (C) Other MO`s are considered to be `delocalized`

FOUND  -   3 strongly local MO`s
       -   9 two center bond MO`s
       -   0 significantly delocalized MO`s

Rather strongly localized orbitals:
MO   6:   3O  -   0.975566
MO   5:   2O  -   0.951395
MO   4:   2O  -   0.963840
Bond-like localized orbitals:
MO  15:   7H  -   0.379594  and   1C  -   0.583502
MO  14:   6H  -   0.379594  and   1C  -   0.583531
MO  13:   5H  -   0.368104  and   1C  -   0.650337
MO  12:   4H  -   0.291630  and   3O  -   0.710067
MO  11:   3O  -   0.771471  and   0C  -   0.256336
MO  10:   3O  -   0.902249  and   0C  -   0.095133
MO   9:   2O  -   0.735150  and   0C  -   0.277990
MO   8:   2O  -   0.735215  and   0C  -   0.277674
MO   7:   1C  -   0.481819  and   0C  -   0.567594
Localized MO's were stored in: /cluster/projects/nn14654k/ylvaos/basis_set_n_funcs/functionals/gga_x_pw91/CH3COOH/inp/CH3COOH_gga_x_pw91_pcseg4.loc

-------------------------   --------------------
FINAL SINGLE POINT ENERGY      -227.995080021484
-------------------------   --------------------



           ************************************************************
           *        Program running with 8 parallel MPI-processes     *
           *              working on a common directory               *
           ************************************************************

------------------------------------------------------------------------------
                              ORCA PROPERTY CALCULATIONS
------------------------------------------------------------------------------

GBWName                                 ... /cluster/projects/nn14654k/ylvaos/basis_set_n_funcs/functionals/gga_x_pw91/CH3COOH/inp/CH3COOH_gga_x_pw91_pcseg4.gbw
Number of atoms                         ...      8
Number of basis functions               ...    648
Max core memory                         ...   4096 MB

Electric properties:
Dipole moment                           ... YES
Quadrupole moment                       ... YES
Static polarizability (Dipole/Dipole)   ...  NO
Static polarizability (Dipole/Quad.)    ...  NO
Static polarizability (Quad./Quad.)     ...  NO
Static polarizability (Velocity)        ...  NO
Static hyperpolarizability              ...  NO

Atomic electric properties:
Dipole moment                           ...  NO
Quadrupole moment                       ...  NO
Static polarizability                   ...  NO

Choice of electric origin               ... Center of mass
Position of electric origin             ...    -0.065707     0.097461     0.000000

General magnetic properties:
Magnetizability                         ...  NO

EPR properties:
g-Tensor (aka g-matrix)                 ...  NO
Zero-Field splitting spin-orbit         ...  NO
Zero-field splitting spin-spin          ...  NO
Hyperfine couplings                     ...  NO (   0 nuclei)
Quadrupole couplings                    ...  NO (   0 nuclei)
Contact density                         ...  NO (   0 nuclei)

NMR properties:
Chemical shifts                         ...  NO (   0 nuclei)
Spin-rotation constants                 ...  NO (   0 nuclei)
Spin-spin couplings                     ...  NO (   0 nuclei,    0 pairs)

Choice of magnetic origin               ... GIAO
Position of magnetic origin             ...     0.000000     0.000000     0.000000

Properties with geometric perturbations:
SCF Hessian                             ...  NO
IR spectrum                             ...  NO
VCD spectrum                            ...  NO
X-ray spectroscopy properties:
SCF XES/XAS/RIXS spectra                ...  NO

SCF SOC stabilization energy            ...  NO
Diagonal Born-Oppenheimer correction    ...  NO

-------------
DIPOLE MOMENT
-------------

Method             : SCF
Type of density    : Electron Density
Multiplicity       :   1
Irrep              :   0
Energy             :  -227.9950800214837727 Eh
Basis              : AO
                                X                 Y                 Z
Electronic contribution:     -2.197258735       2.436589118      -0.000000000
Nuclear contribution   :      2.102617427      -3.118765285       0.000000000
                        -----------------------------------------
Total Dipole Moment    :     -0.094641308      -0.682176167      -0.000000000
                        -----------------------------------------
Magnitude (a.u.)       :      0.688709881
Magnitude (Debye)      :      1.750561397



--------------------
Rotational spectrum 
--------------------
 
Rotational constants in cm-1:             0.373252             0.316126             0.176788 
Rotational constants in MHz :         11189.819630          9477.229268          5299.974115 

Dipole components along the rotational axes: 
x,y,z [a.u.] :    -0.371166    -0.580136    -0.000000 
x,y,z [Debye]:    -0.943428    -1.474588    -0.000000 

 

Dipole moment calculation done in   0.0 sec 

-----------------
QUADRUPOLE MOMENT
-----------------

Method             : SCF
Type of density    : Electron Density
Multiplicity       :   1
Irrep              :   0
Energy             :  -227.9950800214837727 Eh
Basis              : AO

                XX              YY              ZZ              XY              XZ              YZ
  NUC      103.447904006    93.335807526     5.552847104   -15.402641721     0.000000000     0.000000000
  EL      -119.355331846  -114.448843521   -23.418073090    12.813611182    -0.000000001     0.000000003
  TOT      -15.907427840   -21.113035995   -17.865225986    -2.589030538    -0.000000001     0.000000003 (a.u.)
           -21.396034479   -28.397755479   -24.029339942    -3.482334619    -0.000000001     0.000000005 (Buckingham)

diagonalized tensor:
           -22.181426300   -17.865225986   -14.839037535 (a.u.)
           -29.834776979   -24.029339942   -19.959012980 (Buckingham)
           -15.681201036     1.735110075    13.946090961 (traceless form in Buckingham)

             0.381457608    -0.000000001     0.924386333
             0.924386333    -0.000000000    -0.381457608
            -0.000000001    -1.000000000    -0.000000001
        
Isotropic quadrupole :   -18.295229940

Quadrupole moment calculation done in   0.0 sec (  0.0 sec for integrals)

Maximum memory used throughout the entire PROP-calculation: 54.3 MB

--------------------------------
SUGGESTED CITATIONS FOR THIS RUN
--------------------------------

Below you find a list of papers that are relevant to this ORCA run
We neither can nor want to force you to cite these papers, but we appreciate if you do
You receive ORCA, which is the product of decades of hard work by many enthusiastic individuals, for free
The only thing we kindly ask in return is that you cite our papers,
We deeply appreciate it, if you show your appreciation for ORCA by not just citing the generic ORCA reference.

Please note that relegating all ORCA citations to the supporting information does *not* help us.
SI sections are not indexed - citations you put there will not count into any citation statistics
But we need these citations in order to attract the funding resources that allow us to do what we are doing

Therefore, if you are a happy ORCA user, please consider citing a few of the papers listed below in the main body of your paper

In addition to the list printed below, the program has created the file /cluster/projects/nn14654k/ylvaos/basis_set_n_funcs/functionals/gga_x_pw91/CH3COOH/inp/CH3COOH_gga_x_pw91_pcseg4.bibtex that contains the list in bibtex format
You can import this file easily into all common literature databanks and citation aid programs

It goes without saying that in many instances, there are alternative algorithms to achieve similar
results as the ones you have gotten from ORCA. It is, of course, also the case that in some instances
ORCA just re-implements algorithms worked out by others. We are fully aware of that and we are also
fully appreciative of our colleagues work. Hence this citation list should not be read as indicating
that the listed papers, which are focused on our own work, are the only ones worth citing. It simply
meant to make it easier for users to cite ORCA specific papers. It is not a substitute for doing your
own literature research and citing the relevant literature in a scientifically appropriate manner.

List of essential papers. We consider these as the minimum necessary citations

  1. Neese, F.
     Software update: the ORCA program system, version 6.0
     WIRES Comput. Molec. Sci. 2025 15(1), e70019
     doi.org/10.1002/wcms.70019

List of papers to cite with high priority. The work reported in these papers was absolutely
necessary for this run to complete.
Our perspective: the developers of density functionals and basis sets usually get cited in chemistry papers
Good! But without the algorithms to do something with them, the functionals or basis sets would not do anything.
Hence, in our opinion, the algorithm design and method developments papers are equally worthy of getting cited

  1. Lehtola, S.; Steigemann, C.; Oliveira, M.; Marques, M.
     Recent developments in Libxc - A comprehensive library of functionals for density functional theory
     Software X 2018 7 , 
     doi.org/10.1016/j.softx.2017.11.002
  2. Neese, F.
     The SHARK Integral Generation and Digestion System
     J. Comp. Chem. 2022 44(3), 381
     doi.org/10.1002/jcc.26942

List of suggested additional citations. These are papers that are important in the 'surrounding' of 
of this run, or papers that preceded the highly important papers. If you like your results we are grateful for a citation.

  1. Neese, F.
     The ORCA program system
     WIRES Comput. Molec. Sci. 2012 2(1), 73-78
     doi.org/10.1002/wcms.81
  2. Neese, F.
     Software update: the ORCA program system, version 4.0
     WIRES Comput. Molec. Sci. 2018 8(1), 1-6
     doi.org/10.1002/wcms.1327
  3. Neese, F.; Wennmohs, F.; Becker, U.; Riplinger, C.
     The ORCA quantum chemistry program package
     J. Chem. Phys. 2020 152(22), 224108
     doi.org/10.1063/5.0004608
  4. Neese, F.
     Software update: The ORCA program system—Version 5.0
     WIRES Comput. Molec. Sci. 2022 12(1), e1606
     doi.org/10.1002/wcms.1606

List of optional additional citations

  1. Neese, F.
     Approximate second-order SCF convergence for spin unrestricted wavefunctions
     Chem. Phys. Lett. 2000 325(1-3), 93-98
     doi.org/10.1016/s0009-2614(00)00662-x

Timings for individual modules:

Sum of individual times          ...      469.286 sec (=   7.821 min)
Startup calculation              ...        1.286 sec (=   0.021 min)   0.3 %
SCF iterations                   ...      467.115 sec (=   7.785 min)  99.5 %
Property integrals               ...        0.479 sec (=   0.008 min)   0.1 %
Property calculations            ...        0.368 sec (=   0.006 min)   0.1 %
Orbital localization             ...        0.038 sec (=   0.001 min)   0.0 %
                             ****ORCA TERMINATED NORMALLY****
TOTAL RUN TIME: 0 days 0 hours 7 minutes 50 seconds 272 msec
