
                                 *****************
                                 * O   R   C   A *
                                 *****************

                                            #,                                       
                                            ###                                      
                                            ####                                     
                                            #####                                    
                                            ######                                   
                                           ########,                                 
                                     ,,################,,,,,                         
                               ,,#################################,,                 
                          ,,##########################################,,             
                       ,#########################################, ''#####,          
                    ,#############################################,,   '####,        
                  ,##################################################,,,,####,       
                ,###########''''           ''''###############################       
              ,#####''   ,,,,##########,,,,          '''####'''          '####       
            ,##' ,,,,###########################,,,                        '##       
           ' ,,###''''                  '''############,,,                           
         ,,##''                                '''############,,,,        ,,,,,,###''
      ,#''                                            '''#######################'''  
     '                                                          ''''####''''         
             ,#######,   #######,   ,#######,      ##                                
            ,#'     '#,  ##    ##  ,#'     '#,    #''#        ,####,    ,#,          
            ##       ##  ##   ,#'  ##            #'  '#       #'       ,# #          
            ##       ##  #######   ##           ,######,      #####,      #          
            '#,     ,#'  ##    ##  '#,     ,#' ,#      #,     #,   #      #          
             '#######'   ##     ##  '#######'  #'      '#     '####' #    #          



                #########################################################
                #                        -***-                          #
                #          Department of theory and spectroscopy        #
                #                                                       #
                #                      Frank Neese                      #
                #                                                       #
                #     Directorship, Architecture, Infrastructure        #
                #                    SHARK, DRIVERS                     #
                #        Core code/Algorithms in most modules           #
                #                                                       #
                #        Max Planck Institute fuer Kohlenforschung      #
                #                Kaiser Wilhelm Platz 1                 #
                #                 D-45470 Muelheim/Ruhr                 #
                #                      Germany                          #
                #                                                       #
                #                  All rights reserved                  #
                #                        -***-                          #
                #########################################################


                         Program Version 6.1.1  -  RELEASE   -
                                (GIT: $487d211c$)
                          ($2025-11-21 10:33:24 +0100$)


 With contributions from (in alphabetic order):
[Max-Planck-Institut fuer Kohlenforschung]                               
  Daniel Aravena         : Magnetic Suceptibility                        
  Michael Atanasov       : Ab Initio Ligand Field Theory (pilot matlab implementation)
  Alexander A. Auer      : GIAO ZORA, VPT2 properties, NMR spectrum      
  Ute Becker             : All parallelization in ORCA, NUMFREQ, NUMCALC 
  Giovanni Bistoni       : ED, misc. LED, open-shell LED, HFLD           
  Dmytro Bykov           : pre 5.0 version of the SCF Hessian            
  Marcos Casanova-Páez   : Triplet and SCS-CIS(D). UHF-(DLPNO)-IP/EA/STEOM-CCSD. UHF-CVS-IP/STEOM-CCSD   
  Vijay G. Chilkuri      : MRCI spin determinant printing, contributions to CSF-ICE 
  Pauline Colinet        : FMM embedding                                 
  Dipayan Datta          : RHF DLPNO-CCSD density                        
  Achintya Kumar Dutta   : EOM-CC, STEOM-CC                              
  Nicolas Foglia         : Exact transition moments, OPA infrastructure, MCD improvements    
  Dmitry Ganyushin       : Spin-Orbit,Spin-Spin,Magnetic field MRCI      
  Miquel Garcia-Rates    : C-PCM and meta-GGA Hessian, CCSD/C-PCM, Gaussian charge scheme 
  Tiago L. C. Gouveia    : GS-ROHF, GS-ROCIS                             
  Yang Guo               : DLPNO-NEVPT2, F12-NEVPT2, CIM, IAO-localization        
  Andreas Hansen         : Spin unrestricted coupled pair/coupled cluster methods 
  Ingolf Harden          : AUTO-CI MPn and infrastructure                
  Benjamin Helmich-Paris : MC-RPA, TRAH-(SCF,CASSCF), AVAS, COSX integrals, SCF dyn. polar., MC-PDFT, srDFT 
  Lee Huntington         : MR-EOM, pCC                                   
  Robert Izsak           : Overlap fitted RIJCOSX, COSX-SCS-MP3, EOM     
  Riya Kayal             : Wick's Theorem for AUTO-CI, AUTO-CI UHF-CCSDT 
  Emily Kempfer          : AUTO-CI RHF CISDT and CCSDT, approximate NEVPT4
  Christian Kollmar      : KDIIS, OOCD, Brueckner-CCSD(T), CCSD density, CASPT2, CASPT2-K, improved NEVPT2 
  Axel Koslowski         : Symmetry handling                             
  Simone Kossmann        : meta-GGA functionals, TD-DFT gradient, OOMP2, (MP2 Hessian; deprecated post 5.0) 
  Lucas Lang             : DCDCAS, Hyperfine gauge corrections, ICE-SOC+SSC
  Marvin Lechner         : AUTO-CI (C++ implementation), FIC-MRCC        
  Spencer Leger          : CASSCF response                               
  Dagmar Lenk            : GEPOL surface, SMD, ORCA-2-JSON               
  Dimitrios Liakos       : Extrapolation schemes; Compound Job, Property file
  Dimitrios Manganas     : Further ROCIS development; embedding schemes. LFT, Crystal Embedding 
  Dimitrios Pantazis     : SARC Basis sets                               
  Anastasios Papadopoulos: AUTO-CI, single reference methods and gradients 
  Taras Petrenko         : pre 6.0 DFT Hessian and TD-DFT gradient,  ECA, NRVS 
  Petra Pikulova         : Analytic Raman intensities                    
  Peter Pinski           : DLPNO-MP2, DLPNO-MP2 Gradient                 
  Shashank Vittal Rao    : ES-AILFT, MagRelax                            
  Christoph Reimann      : Effective Core Potentials                     
  Marius Retegan         : Local ZFS, SOC                                
  Christoph Riplinger    : Optimizer, TS searches, QM/MM, DLPNO-CCSD(T), (RO)-DLPNO pert. Triples 
  Michael Roemelt        : Original ROCIS implementation, recursive CI coupling coefficients
  Masaaki Saitow         : Open-shell DLPNO-CCSD energy and density      
  Barbara Sandhoefer     : DKH picture change effects                    
  Yorick L. A. Schmerwitz: GMF and freeze-and-release deltaSCF, NEB S-IDPP initial path                    
  Kantharuban Sivalingam : CASSCF convergence/infrastructure, NEVPT2, NEVPT3, NEVPT4(SD), FIC-MRCI and CEPA variants
  Bernardo de Souza      : ESD, SOC TD-DFT                               
  Georgi L. Stoychev     : AutoAux, RI-MP2 NMR, DLPNO-MP2 response, X2C  
  Van Anh Tran           : RI-MP2 g-tensors                              
  Willem Van den Heuvel  : Paramagnetic NMR                              
  Zikuan Wang            : NOTCH, Electric field optimization            
  Frank Wennmohs         : Technical directorship and infrastructure     
  Hang Xu                : AUTO-CI-Response properties                   
                                                                         
[FACCTs GmbH]                                                            
  Markus Bursch, Nicolas Foglia, Miquel Garcia-Rates, Ingolf Harden, Hagen Neugebauer, Anastasios Papadopoulos, 
  Christoph Riplinger, Bernardo de Souza, Georgi L. Stoychev                                                    
                                                                 
  APM, various basis sets, CI-OPT, improved COSX, DLPNO-Multilevel,           
  DOCKER, DRACO, updates on ESD, Fragmentator, GOAT, IRC, LR-CPCM, L-BFGS, MBIS, meta-GGA TD-DFT gradient, ML-optimized integration grids, 
  MM, NACMEs, nearIR, NEB, NEB-TS, NL-DFT gradient (VV10), 2- and 3-layer-ONIOM, interface openCOSMO-RS, QMMM,   
  Crystal-QMMM, RESP, rigid body optimization, SF, symmetry and pop. for TD-DFT, various functionals, SOLVATOR                                   
                                                                         
[Other institutions]                                                     
  V. Asgeirsson          : NEB                                           
  Christoph Bannwarth    : sTDA-DFT, sTD-DFT, PBEh-3c, B97-3c, D3        
  Giovanni Bistoni       : ETS/NOCV, ADLD/ADEX, COVALED                  
  Martin Brehm           : Molecular dynamics                            
  Ronald Cardenas        : ETS/NOCV                                      
  Martina Colucci        : COVALED                                       
  Sebastian Ehlert       : rSCAN, r2SCAN, r2SCAN-3c, D4, dhf basis sets  
  Marvin Friede          : D4 for Fr, Ra, Ac-Lr                          
  Lars Goerigk           : TD-DFT with DH, B97 family of functionals     
  Stefan Grimme          : VdW corrections, initial TS optimization, DFT functionals, gCP, sTDA/sTD-DF 
  Waldemar Hujo          : DFT-NL                                        
  H. Jonsson             : NEB                                           
  Holger Kruse           : gCP                                           
  Marcel Mueller         : wB97X-3c, vDZP basis set                      
  Hagen Neugebauer       : wr2SCAN, Native XTB                           
  Gianluca Regni         : ADLD/ADEX                                     
  Tobias Risthaus        : pre 6.0 range-separated hybrid DFT and stability analysis
  Lukas Wittmann         : regularized MP2, r2SCAN double-hybrids, wr2SCAN        
                                                                         
We gratefully acknowledge several colleagues who have allowed us to      
interface, adapt or use parts of their codes:                            
  Ed Valeev, F. Pavosevic, A. Kumar             : LibInt (2-el integral package), F12 methods 
  Garnet Chan, S. Sharma, J. Yang, R. Olivares  : DMRG                   
  Ulf Ekstrom                                   : XCFun DFT Library      
  Mihaly Kallay                                 : mrcc  (arbitrary order and MRCC methods)
  Frank Weinhold                                : gennbo (NPA and NBO analysis)           
  Simon Mueller                                 : openCOSMO-RS                            
  Christopher J. Cramer and Donald G. Truhlar   : smd solvation model                     
  S Lehtola, MJT Oliveira, MAL Marques          : LibXC Library                           
  Liviu Ungur et al                             : ANISO software                          


 Your calculation uses the libint2 library for the computation of 2-el integrals
 For citations please refer to: http://libint.valeyev.net

 Your ORCA version has been built with support for libXC version: 7.0.0
 For citations please refer to: https://libxc.gitlab.io

 This ORCA versions uses:
   CBLAS   interface :  Fast vector & matrix operations
   LAPACKE interface :  Fast linear algebra routines
   SCALAPACK package :  Parallel linear algebra routines
   Shared memory     :  Shared parallel matrices
   BLAS/LAPACK       :  OpenBLAS 0.3.29  USE64BITINT DYNAMIC_ARCH NO_AFFINITY Cooperlake SINGLE_THREADED
        Core in use  :  Cooperlake
   Copyright (c) 2011-2014, The OpenBLAS Project


  ***********************************
  * Starting time: Wed May 20 12:41:47 2026
  * Host name:     c1-40
  * Process ID:    771980
  * Working dir.:  /cluster/projects/nn14654k/ylvaos/basis_set_n_funcs/functionals/lda_x/SiH2/out
  ***********************************

Using LibXC functional ID   1 : Slater exchange
[ 1]  P. A. M. Dirac.,  Math. Proc. Cambridge Philos. Soc. 26, 376 (1930)
[ 2]  F. Bloch.,  Z. Phys. 57, 545 (1929)
Using LibXC functional ID   1 : Slater exchange
[ 1]  P. A. M. Dirac.,  Math. Proc. Cambridge Philos. Soc. 26, 376 (1930)
[ 2]  F. Bloch.,  Z. Phys. 57, 545 (1929)
Your calculation utilizes LibXC
by S. Lehtola, C. Steigemann, M. J. T. Oliveira & M. A. L. Marques
Please cite in your paper:
Lehtola, S.; Steigemann, C.; Oliveira, M.J.T.; Marques, M. A. L. Software X, 7, (2018), 1.
   

================================================================================

----- Orbital basis set information -----
Your calculation utilizes the basis: aug-cc-pVQZ 
    H, B-Ne : Obtained from the ccRepo (grant-hill.group.shef.ac.uk/ccrepo) Feb. 2017
              R. A. Kendall, T. H. Dunning, Jr., R. J. Harrison, J. Chem. Phys. 96, 6796 (1992)
         He : Obtained from the ccRepo (grant-hill.group.shef.ac.uk/ccrepo) Feb. 2017
              D. E. Woon, T. H. Dunning, Jr., J. Chem. Phys. 100, 2975 (1994)
  Li-Be, Na : Obtained from the ccRepo (grant-hill.group.shef.ac.uk/ccrepo) Feb. 2017
              B. P. Prascher, D. E. Woon, K. A. Peterson, T. H. Dunning, Jr., A. K. Wilson, Theor. Chem. Acc. 128, 69 (2011)
         Mg : Obtained from the Peterson Research Group Website (tyr0.chem.wsu.edu/~kipeters) Feb. 2017
              B. P. Prascher, D. E. Woon, K. A. Peterson, T. H. Dunning, Jr., A. K. Wilson, Theor. Chem. Acc. 128, 69 (2011)
      Al-Ar : Obtained from the ccRepo (grant-hill.group.shef.ac.uk/ccrepo) Feb. 2017
              D. E. Woon, T. H. Dunning, Jr., J. Chem. Phys. 98, 1358 (1993)
      Sc-Zn : Obtained from the ccRepo (grant-hill.group.shef.ac.uk/ccrepo) Feb. 2017
              N. B. Balabanov, K. A. Peterson, J. Chem. Phys. 123, 064107 (2005)
              N. B. Balabanov, K. A. Peterson, J. Chem. Phys. 125, 074110 (2006)
      Ga-Kr : Obtained from the ccRepo (grant-hill.group.shef.ac.uk/ccrepo) Feb. 2017
              A. K. Wilson, D. E. Woon, K. A. Peterson, T. H. Dunning, Jr., J. Chem. Phys. 110, 7667 (1999)

================================================================================
                                        WARNINGS
                       Please study these warnings very carefully!
================================================================================


================================================================================
                                       INPUT FILE
================================================================================
NAME = /cluster/projects/nn14654k/ylvaos/basis_set_n_funcs/functionals/lda_x/SiH2/inp/SiH2_lda_x_augccpvqz.inp
|  1> ! dft aug-cc-pVQZ TightSCF
|  2> %pal nprocs 8 end
|  3> 
|  4> %loc
|  5>   LocMet NewBoys
|  6>   Occ true
|  7> end
|  8> 
|  9> %method
| 10>   exchange lda_x
| 11>   correlation None
| 12> end
| 13> 
| 14> %elprop
| 15>   Dipole true
| 16>   Quadrupole true
| 17> end
| 18> 
| 19> * xyz 0 1
| 20> Si    0.000000000000   0.000000000000   0.000000000000
| 21> H    0.000000000000   0.000000000000  -1.514100000000
| 22> H    0.000000000000   1.513200000000   0.052800000000
| 23> *
| 24> 
| 25> 
| 26>                          ****END OF INPUT****
================================================================================

                       ****************************
                       * Single Point Calculation *
                       ****************************

---------------------------------
CARTESIAN COORDINATES (ANGSTROEM)
---------------------------------
  Si     0.000000    0.000000    0.000000
  H      0.000000    0.000000   -1.514100
  H      0.000000    1.513200    0.052800

----------------------------
CARTESIAN COORDINATES (A.U.)
----------------------------
  NO LB      ZA    FRAG     MASS         X           Y           Z
   0 Si   14.0000    0    28.086    0.000000    0.000000    0.000000
   1 H     1.0000    0     1.008    0.000000    0.000000   -2.861234
   2 H     1.0000    0     1.008    0.000000    2.859534    0.099778

--------------------------------
INTERNAL COORDINATES (ANGSTROEM)
--------------------------------
 Si     0   0   0     0.000000000000     0.00000000     0.00000000
 H      1   0   0     1.514100000000     0.00000000     0.00000000
 H      1   2   0     1.514120893456    91.99840755     0.00000000

---------------------------
INTERNAL COORDINATES (A.U.)
---------------------------
 Si     0   0   0     0.000000000000     0.00000000     0.00000000
 H      1   0   0     2.861234339370     0.00000000     0.00000000
 H      1   2   0     2.861273822280    91.99840755     0.00000000

---------------------
BASIS SET INFORMATION
---------------------
There are 2 groups of distinct atoms

 Group   1 Type Si  : 43s20p4d3f2g contracted to 7s6p4d3f2g pattern {1313131111/881111/1111/111/11}
 Group   2 Type H   : 7s4p3d2f contracted to 5s4p3d2f pattern {31111/1111/111/11}

Atom   0Si   basis set group =>   1
Atom   1H    basis set group =>   2
Atom   2H    basis set group =>   2


           ************************************************************
           *        Program running with 8 parallel MPI-processes     *
           *              working on a common directory               *
           ************************************************************
------------------------------------------------------------------------------
                             ORCA STARTUP CALCULATIONS
------------------------------------------------------------------------------
------------------------------------------------------------------------------
                   ___                                                        
                  /   \      - P O W E R E D   B Y -                         
                 /     \                                                     
                 |  |  |   _    _      __       _____    __    __             
                 |  |  |  | |  | |    /  \     |  _  \  |  |  /  |          
                  \  \/   | |  | |   /    \    | | | |  |  | /  /          
                 / \  \   | |__| |  /  /\  \   | |_| |  |  |/  /          
                |  |  |   |  __  | /  /__\  \  |    /   |      \           
                |  |  |   | |  | | |   __   |  |    \   |  |\   \          
                \     /   | |  | | |  |  |  |  | |\  \  |  | \   \       
                 \___/    |_|  |_| |__|  |__|  |_| \__\ |__|  \__/        
                                                                              
                      - O R C A' S   B I G   F R I E N D -                    
                                      &                                       
                       - I N T E G R A L  F E E D E R -                       
                                                                              
 v1 FN, 2020, v2 2021, v3 2022-2024                                           
------------------------------------------------------------------------------


----------------------
SHARK INTEGRAL PACKAGE
----------------------

Number of atoms                             ...      3
Number of basis functions                   ...    204
Number of shells                            ...     66
Maximum angular momentum                    ...      4
Integral batch strategy                     ... SHARK/LIBINT Hybrid
RI-J (if used) integral strategy            ... SPLIT-RIJ (Revised 2003 algorithm where possible)
Printlevel                                  ...      1
Contraction scheme used                     ... PARTIAL GENERAL contraction
Prescreening option                         ... SCHWARTZ
   Thresh                                   ... 2.500e-11
   Tcut                                     ... 2.500e-12
   Tpresel                                  ... 2.500e-12 
Coulomb Range Separation                    ... NOT USED
Exchange Range Separation                   ... NOT USED
Multipole approximations                    ... NOT USED
Finite Nucleus Model                        ... NOT USED
CABS basis                                  ... NOT available
Auxiliary Coulomb fitting basis             ... NOT available
Auxiliary J/K fitting basis                 ... NOT available
Auxiliary Correlation fitting basis         ... NOT available
Auxiliary 'external' fitting basis          ... NOT available

Checking pre-screening integrals            ... done (  0.0 sec) Dimension = 66
Save PGC pre-screening integrals            ... done (  0.0 sec) Dimension = 66
Calculate PGC overlap integrals             ... done (  0.0 sec) Dimension = 50
Calculating pre-screening integrals (ORCA)  ... done (  0.1 sec) Dimension = 50
Shell pair information
Shell pair cut-off parameter TPreSel        ...   2.5e-12
Total number of shell pairs                 ...      2211
Shell pairs after pre-screening             ...      2197
Total number of primitive shell pairs       ...      2491
Primitive shell pairs kept                  ...      2395
          la=0 lb=0:    374 shell pairs
          la=1 lb=0:    540 shell pairs
          la=1 lb=1:    210 shell pairs
          la=2 lb=0:    270 shell pairs
          la=2 lb=1:    200 shell pairs
          la=2 lb=2:     55 shell pairs
          la=3 lb=0:    185 shell pairs
          la=3 lb=1:    140 shell pairs
          la=3 lb=2:     70 shell pairs
          la=3 lb=3:     28 shell pairs
          la=4 lb=0:     48 shell pairs
          la=4 lb=1:     40 shell pairs
          la=4 lb=2:     20 shell pairs
          la=4 lb=3:     14 shell pairs
          la=4 lb=4:      3 shell pairs

Checking whether 4 symmetric matrices of dimension 204 fit in memory
:Max Core in MB      =   4096.00
 MB in use           =      5.72
 MB left             =   4090.28
 MB needed           =      0.64
 Data fit in memory  = YES
Calculating Nuclear repulsion               ... done (  0.0 sec) ENN=     10.028851096195 Eh

Diagonalization of the overlap matrix:
Smallest eigenvalue                        ... 7.287e-05
Time for diagonalization                   ...    0.002 sec
Threshold for overlap eigenvalues          ... 1.000e-07
Number of eigenvalues below threshold      ... 0
Time for construction of square roots      ...    0.002 sec
Total time needed                          ...    0.009 sec

-------------------
DFT GRID GENERATION
-------------------

General Integration Accuracy     IntAcc      ... 4.388
Radial Grid Type                 RadialGrid  ... OptM3 with GC (2021)
Angular Grid (max. ang.)         AngularGrid ... 4 (Lebedev-302)
Angular grid pruning method      GridPruning ... 4 (adaptive)
Weight generation scheme         WeightScheme... mBecke (2022)
Basis function cutoff            BFCut       ... 1.0000e-11
Integration weight cutoff        WCut        ... 1.0000e-14
Partially contracted basis set               ... off
Rotationally invariant grid construction     ... off
Angular grids for H and He will be reduced by one unit
Diffuse basis detected: some atoms will have their outermost
                        angular grid increased by 1.

Total number of grid points                  ...    14794
Total number of batches                      ...      232
Average number of points per batch           ...       63
Average number of grid points per atom       ...     4931

---------------------
SHARK GRID GENERATION
---------------------

General Integration Accuracy     IntAcc      ... 4.388
Radial Grid Type                 RadialGrid  ... OptM3 with GC (2021)
Angular Grid (max. ang.)         AngularGrid ... 4 (Lebedev-302)
Angular grid pruning method      GridPruning ... 4 (adaptive)
Weight generation scheme         WeightScheme... mBecke (2022)
Basis function cutoff            BFCut       ... 1.0000e-11
Integration weight cutoff        WCut        ... 1.0000e-14
Partially contracted basis set               ... off
Rotationally invariant grid construction     ... off
Angular grids for H and He will be reduced by one unit
Diffuse basis detected: some atoms will have their outermost
                        angular grid increased by 1.
Core-polarized basis detected: some atoms will have their core
                               angular grid increased.
Steep s-basis detected: some atoms will have their radial
                        grid points doubled.

Total number of grid points                  ...    27189
Total number of batches                      ...      425
Average number of points per batch           ...       63
Average number of grid points per atom       ...     9063
Grids setup in   0.2 sec
Initializing property integral containers    ... done (  0.0 sec)

SHARK setup successfully completed in   0.4 seconds

Maximum memory used throughout the entire STARTUP-calculation: 59.2 MB


           ************************************************************
           *        Program running with 8 parallel MPI-processes     *
           *              working on a common directory               *
           ************************************************************
-------------------------------------------------------------------------------
                                 ORCA GUESS
                   Start orbitals & Density for SCF / CASSCF
-------------------------------------------------------------------------------

------------
SCF SETTINGS
------------
Hamiltonian:
 Density Functional     Method          .... DFT(GTOs)
  Functional kind                       .... Exchange
  Functional name                       .... Slater exchange
  Functional family                     .... LDA
  Functional refs                              
    [ 0] P. A. M. Dirac.,  Math. Proc. Cambridge Philos. Soc. 26, 376 (1930), doi: 10.1017/S0305004100016108
    [ 1] F. Bloch.,  Z. Phys. 57, 545 (1929), doi: 10.1007/BF01340281
  Functional external parameters        .... 0
 Correlation Functional Correlation     .... No Correlation
 Gradients option       PostSCFGGA      .... off


General Settings:
 Integral files         IntName         .... /cluster/projects/nn14654k/ylvaos/basis_set_n_funcs/functionals/lda_x/SiH2/inp/SiH2_lda_x_augccpvqz
 Hartree-Fock type      HFTyp           .... RHF
 Total Charge           Charge          ....    0
 Multiplicity           Mult            ....    1
 Number of Electrons    NEL             ....   16
 Basis Dimension        Dim             ....  176
 Nuclear Repulsion      ENuc            ....     10.0288510962 Eh

Convergence Acceleration:
 AO-DIIS                CNVDIIS         .... on
   Start iteration      DIISMaxIt       ....    12
   Startup error        DIISStart       ....  0.200000
   # of expansion vecs  DIISMaxEq       ....     5
   Bias factor          DIISBfac        ....   1.050
   Max. coefficient     DIISMaxC        ....  10.000
 MO-DIIS                CNVKDIIS        .... off
 Trust-Rad. Augm. Hess. CNVTRAH         .... auto
   Auto Start mean grad. ratio tolernc. ....  1.125000
   Auto Start start iteration           ....    50
   Auto Start num. interpolation iter.  ....    10
   Max. Number of Micro iterations      ....    24
   Max. Number of Macro iterations      .... Maxiter - #DIIS iter
   Number of Davidson start vectors     ....     2
   Converg. threshold    (grad. norm)   ....   1.000e-05
   Grad. Scal. Fac. for Micro threshold ....   0.100
   Minimum threshold for Micro iter.    ....   1.000e-02
   NR start threshold (gradient norm)   ....   1.000e-04
   Initial trust radius                 ....   0.400
   Minimum AH scaling param. (alpha)    ....   1.000
   Maximum AH scaling param. (alpha)    .... 1000.000
   Quad. conv. algorithm                .... NR
   White noise on init. David. guess    .... on
   Maximum white noise                  ....   0.010
   Pseudo random numbers                .... off
   Inactive MOs                         .... canonical
   Orbital update algorithm             .... Taylor
   Preconditioner                       .... Diag
   Full preconditioner red. dimension   ....   250
 SOSCF                 CNVSOSCF           .... on
   Start iteration     SOSCFMaxIt         ....   150
   Startup grad/error  SOSCFStart         ....  0.003300
   Hessian update      SOSCFHessUp        .... L-BFGS
   Autom. constraints  SOSCFAutoConstrain .... off
 Level Shifting         CNVShift        .... on
   Level shift para.    LevelShift      ....    0.2500
   Turn off err/grad.   ShiftErr        ....    0.0010
 Zerner damping         CNVZerner       .... off
 Static damping         CNVDamp         .... on
   Fraction old density DampFac         ....    0.7000
   Max. Damping (<1)    DampMax         ....    0.9800
   Min. Damping (>=0)   DampMin         ....    0.0000
   Turn off err/grad.   DampErr         ....    0.1000

SCF Procedure:
 Maximum # iterations   MaxIter         ....   125
 SCF integral mode      SCFMode         .... Direct
   Integral package                     .... SHARK and LIBINT hybrid scheme
 Reset frequency        DirectResetFreq ....    20
 Integral Threshold     Thresh          ....  2.500e-11 Eh
 Primitive CutOff       TCut            ....  2.500e-12 Eh

Convergence Tolerance:
 Convergence Check Mode ConvCheckMode   .... Total+1el-Energy
 Convergence forced     ConvForced      .... 0
 Energy Change          TolE            ....  1.000e-08 Eh
 1-El. energy change                    ....  1.000e-05 Eh
 Orbital Gradient       TolG            ....  1.000e-05
 Orbital Rotation angle TolX            ....  1.000e-05
 DIIS Error             TolErr          ....  5.000e-07

------------------------------
INITIAL GUESS: MODEL POTENTIAL
------------------------------
Loading Hartree-Fock densities                     ... done
Calculating cut-offs                               ... done
Initializing the effective Hamiltonian             ... done
Setting up the integral package (SHARK)            ... done
Starting the Coulomb interaction                   ... done (   0.0 sec)
Making the grid                                    ... done (   0.0 sec)
Mapping shells                                     ... done
Starting the XC term evaluation                    ... done (   0.0 sec)
  promolecular density results
     # of electrons  =     15.999547908
     EX              =    -19.119454583
     EC              =      0.000000000
     EX+EC           =    -19.119454583
Transforming the Hamiltonian                       ... done (   0.0 sec)
Diagonalizing the Hamiltonian                      ... done (   0.0 sec)
Back transforming the eigenvectors                 ... done (   0.0 sec)
Now organizing SCF variables                       ... done
                      ------------------
                      INITIAL GUESS DONE (   0.1 sec)
                      ------------------
             **** ENERGY FILE WAS UPDATED (/cluster/projects/nn14654k/ylvaos/basis_set_n_funcs/functionals/lda_x/SiH2/inp/SiH2_lda_x_augccpvqz.en.tmp) ****
Finished Guess after   0.2 sec
Maximum memory used throughout the entire GUESS-calculation: 12.1 MB


           ************************************************************
           *        Program running with 8 parallel MPI-processes     *
           *              working on a common directory               *
           ************************************************************

-------------------------------------------------------------------------------------------
                                      ORCA LEAN-SCF
                              memory conserving SCF solver
-------------------------------------------------------------------------------------------

----------------------------------------D-I-I-S--------------------------------------------
Iteration    Energy (Eh)           Delta-E    RMSDP     MaxDP     DIISErr   Damp  Time(sec)
-------------------------------------------------------------------------------------------
               ***  Starting incremental Fock matrix formation  ***
    1    -288.2669148735011504     0.00e+00  2.50e-03  4.01e-02  6.17e-02  0.700   0.4
Warning: op=0 Small HOMO/LUMO gap (   0.050) - skipping pre-diagonalization
         Will do a full diagonalization
    2    -288.2710111534822204    -4.10e-03  1.78e-03  2.40e-02  4.12e-02  0.700   0.4
                               ***Turning on AO-DIIS***
    3    -288.2735174536426825    -2.51e-03  9.08e-04  1.03e-02  2.22e-02  0.700   0.4
    4    -288.2749826364614592    -1.47e-03  2.00e-03  2.64e-02  1.36e-02  0.000   0.3
                              *** Initializing SOSCF ***
---------------------------------------S-O-S-C-F--------------------------------------
Iteration    Energy (Eh)           Delta-E    RMSDP     MaxDP     MaxGrad    Time(sec)
--------------------------------------------------------------------------------------
    5    -288.2779518870578954    -2.97e-03  2.07e-04  2.66e-03  1.58e-03     0.4
               *** Restarting incremental Fock matrix formation ***
    6    -288.2779670805766727    -1.52e-05  1.64e-04  2.16e-03  3.27e-04     0.4
    7    -288.2779687212435533    -1.64e-06  3.39e-05  4.43e-04  8.46e-05     0.4
    8    -288.2779688955201891    -1.74e-07  9.19e-06  1.48e-04  3.75e-05     0.4
    9    -288.2779689172623421    -2.17e-08  2.96e-06  2.86e-05  7.73e-06     0.3
   10    -288.2779689193760078    -2.11e-09  7.22e-07  1.26e-05  1.88e-06     0.3
                 **** Energy Check signals convergence ****

               *****************************************************
               *                     SUCCESS                       *
               *           SCF CONVERGED AFTER  10 CYCLES          *
               *****************************************************

             **** ENERGY FILE WAS UPDATED (/cluster/projects/nn14654k/ylvaos/basis_set_n_funcs/functionals/lda_x/SiH2/inp/SiH2_lda_x_augccpvqz.en.tmp) ****

----------------
TOTAL SCF ENERGY
----------------

Total Energy       :       -288.27796891954063 Eh           -7844.44234 eV

Components:
Nuclear Repulsion  :         10.02885109619548 Eh             272.89891 eV
Electronic Energy  :       -298.30682001573609 Eh           -8117.34125 eV
One Electron Energy:       -421.40662291869882 Eh          -11467.05718 eV
Two Electron Energy:        123.09980290296271 Eh            3349.71593 eV

Virial components:
Potential Energy   :       -577.21347940083365 Eh          -15706.77729 eV
Kinetic Energy     :        288.93551048129308 Eh            7862.33495 eV
Virial Ratio       :          1.99772426185810

DFT components:
N(Alpha)           :        7.999997485671 electrons
N(Beta)            :        7.999997485671 electrons
N(Total)           :       15.999994971343 electrons
E(X)               :      -19.134702105508 Eh       
E(C)               :        0.000000000000 Eh       
E(XC)              :      -19.134702105508 Eh       

---------------
SCF CONVERGENCE
---------------

  Last Energy change         ...    2.1137e-09  Tolerance :   1.0000e-08
  Last MAX-Density change    ...    1.2601e-05  Tolerance :   1.0000e-07
  Last RMS-Density change    ...    7.2248e-07  Tolerance :   5.0000e-09
  Last DIIS Error            ...    1.5783e-03  Tolerance :   5.0000e-07
  Last Orbital Gradient      ...    1.8786e-06  Tolerance :   1.0000e-05
  Last Orbital Rotation      ...    2.6698e-06  Tolerance :   1.0000e-05


----------------
ORBITAL ENERGIES
----------------

  NO   OCC          E(Eh)            E(eV) 
   0   2.0000     -65.088246     -1771.1412 
   1   2.0000      -4.990746      -135.8051 
   2   2.0000      -3.440607       -93.6237 
   3   2.0000      -3.429534       -93.3224 
   4   2.0000      -3.426877       -93.2501 
   5   2.0000      -0.422952       -11.5091 
   6   2.0000      -0.251476        -6.8430 
   7   2.0000      -0.174836        -4.7575 
   8   0.0000      -0.119864        -3.2617 
   9   0.0000       0.001478         0.0402 
  10   0.0000       0.018764         0.5106 
  11   0.0000       0.030104         0.8192 
  12   0.0000       0.034692         0.9440 
  13   0.0000       0.036112         0.9827 
  14   0.0000       0.060220         1.6387 
  15   0.0000       0.068876         1.8742 
  16   0.0000       0.070485         1.9180 
  17   0.0000       0.072889         1.9834 
  18   0.0000       0.073866         2.0100 
*Only the first 10 virtual orbitals were printed.

                    ********************************
                    * MULLIKEN POPULATION ANALYSIS *
                    ********************************

-----------------------
MULLIKEN ATOMIC CHARGES
-----------------------
   0 Si:    0.093312
   1 H :   -0.046653
   2 H :   -0.046660
Sum of atomic charges:    0.0000000

--------------------------------
MULLIKEN REDUCED ORBITAL CHARGES
--------------------------------
  0 Sis       :     5.719126  s :     5.719126
      pz      :     3.026664  p :     8.064329
      px      :     1.995973
      py      :     3.041693
      dz2     :     0.066849  d :     0.113767
      dxz     :    -0.000002
      dyz     :     0.000972
      dx2y2   :     0.045949
      dxy     :    -0.000002
      f0      :     0.004090  f :     0.007963
      f+1     :     0.000001
      f-1     :     0.002343
      f+2     :     0.000028
      f-2     :     0.000000
      f+3     :     0.000001
      f-3     :     0.001501
      g0      :     0.000968  g :     0.001502
      g+1     :    -0.000000
      g-1     :    -0.000010
      g+2     :     0.000253
      g-2     :    -0.000000
      g+3     :     0.000000
      g-3     :    -0.000003
      g+4     :     0.000294
      g-4     :    -0.000000

  1 H s       :     0.975052  s :     0.975052
      pz      :     0.042946  p :     0.062750
      px      :     0.000389
      py      :     0.019415
      dz2     :     0.005327  d :     0.007886
      dxz     :     0.000889
      dyz     :     0.001426
      dx2y2   :     0.000244
      dxy     :     0.000000
      f0      :     0.000116  f :     0.000964
      f+1     :     0.000737
      f-1     :     0.000025
      f+2     :     0.000100
      f-2     :     0.000000
      f+3     :     0.000000
      f-3     :    -0.000015

  2 H s       :     0.975070  s :     0.975070
      pz      :     0.018930  p :     0.062742
      px      :     0.000389
      py      :     0.043422
      dz2     :     0.001455  d :     0.007884
      dxz     :     0.000002
      dyz     :     0.001562
      dx2y2   :     0.003978
      dxy     :     0.000887
      f0      :     0.000058  f :     0.000964
      f+1     :     0.000049
      f-1     :     0.000075
      f+2     :     0.000006
      f-2     :     0.000004
      f+3     :     0.000684
      f-3     :     0.000088



                     *******************************
                     * LOEWDIN POPULATION ANALYSIS *
                     *******************************

----------------------
LOEWDIN ATOMIC CHARGES
----------------------
   0 Si:    1.084626
   1 H :   -0.542323
   2 H :   -0.542303

-------------------------------
LOEWDIN REDUCED ORBITAL CHARGES
-------------------------------
  0 Sis       :     4.895798  s :     4.895798
      pz      :     2.883282  p :     7.761229
      px      :     1.983344
      py      :     2.894603
      dz2     :     0.117084  d :     0.192386
      dxz     :     0.000016
      dyz     :     0.008223
      dx2y2   :     0.067047
      dxy     :     0.000017
      f0      :     0.024040  f :     0.049550
      f+1     :     0.000012
      f-1     :     0.012073
      f+2     :     0.000893
      f-2     :     0.000000
      f+3     :     0.000019
      f-3     :     0.012514
      g0      :     0.008788  g :     0.016410
      g+1     :     0.000016
      g-1     :     0.000259
      g+2     :     0.002956
      g-2     :     0.000002
      g+3     :     0.000000
      g-3     :     0.000090
      g+4     :     0.004286
      g-4     :     0.000013

  1 H s       :     0.914907  s :     0.914907
      pz      :     0.242248  p :     0.387917
      px      :     0.000225
      py      :     0.145444
      dz2     :     0.069063  d :     0.168918
      dxz     :     0.001999
      dyz     :     0.094396
      dx2y2   :     0.003460
      dxy     :     0.000000
      f0      :     0.038497  f :     0.070581
      f+1     :     0.006055
      f-1     :     0.024166
      f+2     :     0.001818
      f-2     :     0.000001
      f+3     :     0.000000
      f-3     :     0.000045

  2 H s       :     0.914903  s :     0.914903
      pz      :     0.143136  p :     0.387906
      px      :     0.000225
      py      :     0.244545
      dz2     :     0.021660  d :     0.168915
      dxz     :     0.000003
      dyz     :     0.091637
      dx2y2   :     0.053619
      dxy     :     0.001996
      f0      :     0.007732  f :     0.070578
      f+1     :     0.000368
      f-1     :     0.016637
      f+2     :     0.015512
      f-2     :     0.000012
      f+3     :     0.005675
      f-3     :     0.024642



                      *****************************
                      * MAYER POPULATION ANALYSIS *
                      *****************************

  NA   - Mulliken gross atomic population
  ZA   - Total nuclear charge
  QA   - Mulliken gross atomic charge
  VA   - Mayer's total valence
  BVA  - Mayer's bonded valence
  FA   - Mayer's free valence

  ATOM       NA         ZA         QA         VA         BVA        FA
  0 Si    13.9067    14.0000     0.0933     2.1697     2.1697     0.0000
  1 H      1.0467     1.0000    -0.0467     1.1146     1.1146     0.0000
  2 H      1.0467     1.0000    -0.0467     1.1145     1.1145     0.0000

  Mayer bond orders larger than 0.100000
B(  0-Si,  1-H ) :   1.0848 B(  0-Si,  2-H ) :   1.0848 

-------
TIMINGS
-------

Total SCF time: 0 days 0 hours 0 min 4 sec 

Total time                  ....       4.173 sec
Sum of individual times     ....       3.871 sec  ( 92.8%)

SCF preparation             ....       0.095 sec  (  2.3%)
Fock matrix formation       ....       3.439 sec  ( 82.4%)
  Startup                   ....       0.021 sec  (  0.6% of F)
  Coulomb formation         ....       2.875 sec  ( 83.6% of F)
  XC integration            ....       0.375 sec  ( 10.9% of F)
    Basis function eval.    ....       0.018 sec  (  4.7% of XC)
    Density eval.           ....       0.024 sec  (  6.4% of XC)
    XC-Functional eval.     ....       0.003 sec  (  0.9% of XC)
    XC-Potential eval.      ....       0.043 sec  ( 11.3% of XC)
Diagonalization             ....       0.000 sec  (  0.0%)
Density matrix formation    ....       0.095 sec  (  2.3%)
Total Energy calculation    ....       0.022 sec  (  0.5%)
Population analysis         ....       0.015 sec  (  0.4%)
Orbital Transformation      ....       0.023 sec  (  0.6%)
Orbital Orthonormalization  ....       0.000 sec  (  0.0%)
DIIS solution               ....       0.077 sec  (  1.8%)
SOSCF solution              ....       0.105 sec  (  2.5%)
Finished LeanSCF after   4.2 sec

Maximum memory used throughout the entire LEANSCF-calculation: 22.0 MB


           ************************************************************
           *        Program running with 8 parallel MPI-processes     *
           *              working on a common directory               *
           ************************************************************

------------------------------------------------------------------------------
                         ORCA PROPERTY INTEGRAL CALCULATIONS
------------------------------------------------------------------------------

GBWName                                   ... /cluster/projects/nn14654k/ylvaos/basis_set_n_funcs/functionals/lda_x/SiH2/inp/SiH2_lda_x_augccpvqz.gbw
Number of atoms                           ...      3
Number of basis functions                 ...    204
Max core memory                           ...   4096 MB

Dipole integrals                          ... YES
Quadrupole integrals                      ... YES
Linear momentum integrals                 ...  NO
Angular momentum integrals                ...  NO
Higher moments length integrals           ...  NO
Higher moments velocity integrals         ...  NO
Kinetic energy integrals                  ...  NO
GIAO right hand sides                     ...  NO
GIAO dipole derivative integrals          ...  NO
SOC integrals                             ...  NO
EPR diamagnetic integrals (GIAO)          ...  NO
EPR gauge integrals                       ...  NO
Field gradient integrals                  ...  NO (   0 nuclei)
Spin-dipole/Fermi contact integrals       ...  NO (   0 nuclei)
Contact density integrals                 ...  NO (   0 nuclei)
Nucleus-orbit integrals                   ...  NO (   0 nuclei)
Geometric perturbations                   ...  NO (   3 nuclei)

Choice of electric origin   ... Center of mass
Position of electric origin ... (  0.0000,  0.0958, -0.0925) 
Choice of magnetic origin   ... GIAO
Position of magnetic origin ... (  0.0000,  0.0000,  0.0000) 

Calculating integrals                     ... Electric Dipole (Length)     done (  0.0 sec)
Calculating integrals                     ... Electric Quadrupole (Length) done (  0.0 sec)

Property integrals calculated in   0.0 sec

Maximum memory used throughout the entire PROPINT-calculation: 12.9 MB
------------------------------------------------------------------------------
                           ORCA ORBITAL LOCALIZATION
------------------------------------------------------------------------------

Input orbitals are from                  ... /cluster/projects/nn14654k/ylvaos/basis_set_n_funcs/functionals/lda_x/SiH2/inp/SiH2_lda_x_augccpvqz.gbw
Output orbitals are to                   ... /cluster/projects/nn14654k/ylvaos/basis_set_n_funcs/functionals/lda_x/SiH2/inp/SiH2_lda_x_augccpvqz.loc
Max. number of iterations                ... 128
Localizations seeded randomly            ... on
Convergence tolerance                    ... 1.000e-06
Threshold for strong local MOs           ... 9.500e-01
Threshold for bond MOs                   ... 8.500e-01
Operator                                 ... 0
Orbital range for localization           ... 1 to 7
Localization criterion                   ... NEW-BOYS
Doing the dipole integrals               ... o.k.
Initial value of the localization sum :     3.765683
ITERATION   0 : L=    9.9436973165 DL=  6.18e+00 (AVERGE_DL)=    0.5423939275 
ITERATION   1 : L=   10.4176576714 DL=  4.74e-01 (AVERGE_DL)=    0.1502316235 
ITERATION   2 : L=   10.4257419889 DL=  8.08e-03 (AVERGE_DL)=    0.0196205886 
ITERATION   3 : L=   10.4262275414 DL=  4.86e-04 (AVERGE_DL)=    0.0048084870 
ITERATION   4 : L=   10.4262566243 DL=  2.91e-05 (AVERGE_DL)=    0.0011768185 
ITERATION   5 : L=   10.4262860427 DL=  2.94e-05 (AVERGE_DL)=    0.0011835849 
ITERATION   6 : L=   10.4263109473 DL=  2.49e-05 (AVERGE_DL)=    0.0010890060 
ITERATION   7 : L=   10.4263376980 DL=  2.68e-05 (AVERGE_DL)=    0.0011286469 
ITERATION   8 : L=   10.4263649738 DL=  2.73e-05 (AVERGE_DL)=    0.0011396706 
ITERATION   9 : L=   10.4263930615 DL=  2.81e-05 (AVERGE_DL)=    0.0011565060 
ITERATION  10 : L=   10.4264218162 DL=  2.88e-05 (AVERGE_DL)=    0.0011701589 
ITERATION  11 : L=   10.4264511889 DL=  2.94e-05 (AVERGE_DL)=    0.0011826681 
ITERATION  12 : L=   10.4264810967 DL=  2.99e-05 (AVERGE_DL)=    0.0011933902 
ITERATION  13 : L=   10.4265114548 DL=  3.04e-05 (AVERGE_DL)=    0.0012023406 
ITERATION  14 : L=   10.4265421709 DL=  3.07e-05 (AVERGE_DL)=    0.0012094091 
ITERATION  15 : L=   10.4265731465 DL=  3.10e-05 (AVERGE_DL)=    0.0012145087 
ITERATION  16 : L=   10.4266042795 DL=  3.11e-05 (AVERGE_DL)=    0.0012175880 
ITERATION  17 : L=   10.4266354635 DL=  3.12e-05 (AVERGE_DL)=    0.0012185859 
ITERATION  18 : L=   10.4266665911 DL=  3.11e-05 (AVERGE_DL)=    0.0012174852 
ITERATION  19 : L=   10.4266975544 DL=  3.10e-05 (AVERGE_DL)=    0.0012142651 
ITERATION  20 : L=   10.4267282454 DL=  3.07e-05 (AVERGE_DL)=    0.0012089153 
ITERATION  21 : L=   10.4267585610 DL=  3.03e-05 (AVERGE_DL)=    0.0012014987 
ITERATION  22 : L=   10.4267883997 DL=  2.98e-05 (AVERGE_DL)=    0.0011920121 
ITERATION  23 : L=   10.4268176676 DL=  2.93e-05 (AVERGE_DL)=    0.0011805538 
ITERATION  24 : L=   10.4268462751 DL=  2.86e-05 (AVERGE_DL)=    0.0011671614 
ITERATION  25 : L=   10.4268741422 DL=  2.79e-05 (AVERGE_DL)=    0.0011519563 
ITERATION  26 : L=   10.4269011960 DL=  2.71e-05 (AVERGE_DL)=    0.0011350215 
ITERATION  27 : L=   10.4269273726 DL=  2.62e-05 (AVERGE_DL)=    0.0011164716 
ITERATION  28 : L=   10.4269526180 DL=  2.52e-05 (AVERGE_DL)=    0.0010964305 
ITERATION  29 : L=   10.4269768882 DL=  2.43e-05 (AVERGE_DL)=    0.0010750467 
ITERATION  30 : L=   10.4270001480 DL=  2.33e-05 (AVERGE_DL)=    0.0010524294 
ITERATION  31 : L=   10.4270223720 DL=  2.22e-05 (AVERGE_DL)=    0.0010287305 
ITERATION  32 : L=   10.4270435441 DL=  2.12e-05 (AVERGE_DL)=    0.0010040899 
ITERATION  33 : L=   10.4270636568 DL=  2.01e-05 (AVERGE_DL)=    0.0009786458 
ITERATION  34 : L=   10.4270827108 DL=  1.91e-05 (AVERGE_DL)=    0.0009525396 
ITERATION  35 : L=   10.4271007139 DL=  1.80e-05 (AVERGE_DL)=    0.0009259007 
ITERATION  36 : L=   10.4271176809 DL=  1.70e-05 (AVERGE_DL)=    0.0008988618 
ITERATION  37 : L=   10.4271336325 DL=  1.60e-05 (AVERGE_DL)=    0.0008715486 
ITERATION  38 : L=   10.4271485943 DL=  1.50e-05 (AVERGE_DL)=    0.0008440784 
ITERATION  39 : L=   10.4271625959 DL=  1.40e-05 (AVERGE_DL)=    0.0008165442 
ITERATION  40 : L=   10.4271756713 DL=  1.31e-05 (AVERGE_DL)=    0.0007890730 
ITERATION  41 : L=   10.4271878566 DL=  1.22e-05 (AVERGE_DL)=    0.0007617426 
ITERATION  42 : L=   10.4271991903 DL=  1.13e-05 (AVERGE_DL)=    0.0007346428 
ITERATION  43 : L=   10.4272097123 DL=  1.05e-05 (AVERGE_DL)=    0.0007078478 
ITERATION  44 : L=   10.4272194634 DL=  9.75e-06 (AVERGE_DL)=    0.0006814229 
ITERATION  45 : L=   10.4272284853 DL=  9.02e-06 (AVERGE_DL)=    0.0006554499 
ITERATION  46 : L=   10.4272368185 DL=  8.33e-06 (AVERGE_DL)=    0.0006299348 
ITERATION  47 : L=   10.4272445045 DL=  7.69e-06 (AVERGE_DL)=    0.0006049793 
ITERATION  48 : L=   10.4272515830 DL=  7.08e-06 (AVERGE_DL)=    0.0005805799 
ITERATION  49 : L=   10.4272580932 DL=  6.51e-06 (AVERGE_DL)=    0.0005567854 
ITERATION  50 : L=   10.4272640730 DL=  5.98e-06 (AVERGE_DL)=    0.0005336195 
ITERATION  51 : L=   10.4272695588 DL=  5.49e-06 (AVERGE_DL)=    0.0005111073 
ITERATION  52 : L=   10.4272745854 DL=  5.03e-06 (AVERGE_DL)=    0.0004892468 
ITERATION  53 : L=   10.4272791863 DL=  4.60e-06 (AVERGE_DL)=    0.0004680715 
ITERATION  54 : L=   10.4272833932 DL=  4.21e-06 (AVERGE_DL)=    0.0004475795 
ITERATION  55 : L=   10.4272872356 DL=  3.84e-06 (AVERGE_DL)=    0.0004277507 
ITERATION  56 : L=   10.4272907420 DL=  3.51e-06 (AVERGE_DL)=    0.0004086253 
ITERATION  57 : L=   10.4272939390 DL=  3.20e-06 (AVERGE_DL)=    0.0003901727 
ITERATION  58 : L=   10.4272968513 DL=  2.91e-06 (AVERGE_DL)=    0.0003724028 
ITERATION  59 : L=   10.4272995019 DL=  2.65e-06 (AVERGE_DL)=    0.0003552736 
ITERATION  60 : L=   10.4273019126 DL=  2.41e-06 (AVERGE_DL)=    0.0003388100 
ITERATION  61 : L=   10.4273041035 DL=  2.19e-06 (AVERGE_DL)=    0.0003229980 
ITERATION  62 : L=   10.4273060931 DL=  1.99e-06 (AVERGE_DL)=    0.0003078099 
ITERATION  63 : L=   10.4273078990 DL=  1.81e-06 (AVERGE_DL)=    0.0002932468 
ITERATION  64 : L=   10.4273095367 DL=  1.64e-06 (AVERGE_DL)=    0.0002792549 
ITERATION  65 : L=   10.4273110212 DL=  1.48e-06 (AVERGE_DL)=    0.0002658777 
ITERATION  66 : L=   10.4273123659 DL=  1.34e-06 (AVERGE_DL)=    0.0002530524 
ITERATION  67 : L=   10.4273135834 DL=  1.22e-06 (AVERGE_DL)=    0.0002407851 
ITERATION  68 : L=   10.4273146851 DL=  1.10e-06 (AVERGE_DL)=    0.0002290454 
ITERATION  69 : L=   10.4273156815 DL=  9.96e-07 (AVERGE_DL)=    0.0002178226 
LOCALIZATION SUM CONVERGED


--------------------------------------------------------------------------------
                    LOCALIZED MOLECULAR ORBITAL COMPOSITIONS
--------------------------------------------------------------------------------

The Mulliken populations for each LMO on each atom are computed
The LMO`s will be ordered according to atom index and type
  (A) Strongly localized MO`s have populations of >=0.950 on one atom
  (B) Two center bond orbitals have populations of >=0.850 on two atoms
  (C) Other MO`s are considered to be `delocalized`

FOUND  -   5 strongly local MO`s
       -   2 two center bond MO`s
       -   0 significantly delocalized MO`s

Rather strongly localized orbitals:
MO   5:   0Si -   0.976859
MO   4:   0Si -   0.988592
MO   3:   0Si -   0.987179
MO   2:   0Si -   0.984740
MO   1:   0Si -   1.006514
Bond-like localized orbitals:
MO   7:   2H  -   0.494780  and   0Si -   0.504707
MO   6:   1H  -   0.494856  and   0Si -   0.504672
Localized MO's were stored in: /cluster/projects/nn14654k/ylvaos/basis_set_n_funcs/functionals/lda_x/SiH2/inp/SiH2_lda_x_augccpvqz.loc

-------------------------   --------------------
FINAL SINGLE POINT ENERGY      -288.277968919541
-------------------------   --------------------



           ************************************************************
           *        Program running with 8 parallel MPI-processes     *
           *              working on a common directory               *
           ************************************************************

------------------------------------------------------------------------------
                              ORCA PROPERTY CALCULATIONS
------------------------------------------------------------------------------

GBWName                                 ... /cluster/projects/nn14654k/ylvaos/basis_set_n_funcs/functionals/lda_x/SiH2/inp/SiH2_lda_x_augccpvqz.gbw
Number of atoms                         ...      3
Number of basis functions               ...    204
Max core memory                         ...   4096 MB

Electric properties:
Dipole moment                           ... YES
Quadrupole moment                       ... YES
Static polarizability (Dipole/Dipole)   ...  NO
Static polarizability (Dipole/Quad.)    ...  NO
Static polarizability (Quad./Quad.)     ...  NO
Static polarizability (Velocity)        ...  NO
Static hyperpolarizability              ...  NO

Atomic electric properties:
Dipole moment                           ...  NO
Quadrupole moment                       ...  NO
Static polarizability                   ...  NO

Choice of electric origin               ... Center of mass
Position of electric origin             ...     0.000000     0.095755    -0.092471

General magnetic properties:
Magnetizability                         ...  NO

EPR properties:
g-Tensor (aka g-matrix)                 ...  NO
Zero-Field splitting spin-orbit         ...  NO
Zero-field splitting spin-spin          ...  NO
Hyperfine couplings                     ...  NO (   0 nuclei)
Quadrupole couplings                    ...  NO (   0 nuclei)
Contact density                         ...  NO (   0 nuclei)

NMR properties:
Chemical shifts                         ...  NO (   0 nuclei)
Spin-rotation constants                 ...  NO (   0 nuclei)
Spin-spin couplings                     ...  NO (   0 nuclei,    0 pairs)

Choice of magnetic origin               ... GIAO
Position of magnetic origin             ...     0.000000     0.000000     0.000000

Properties with geometric perturbations:
SCF Hessian                             ...  NO
IR spectrum                             ...  NO
VCD spectrum                            ...  NO
X-ray spectroscopy properties:
SCF XES/XAS/RIXS spectra                ...  NO

SCF SOC stabilization energy            ...  NO
Diagonal Born-Oppenheimer correction    ...  NO

-------------
DIPOLE MOMENT
-------------

Method             : SCF
Type of density    : Electron Density
Multiplicity       :   1
Irrep              :   0
Energy             :  -288.2779689195406263 Eh
Basis              : AO
                                X                 Y                 Z
Electronic contribution:      0.000000000      -1.247543458       1.204736307
Nuclear contribution   :      0.000000000       1.327457389      -1.281928022
                        -----------------------------------------
Total Dipole Moment    :      0.000000000       0.079913931      -0.077191715
                        -----------------------------------------
Magnitude (a.u.)       :      0.111107143
Magnitude (Debye)      :      0.282411914



--------------------
Rotational spectrum 
--------------------
 
Rotational constants in cm-1:             8.101050             7.049111             3.769280 
Rotational constants in MHz :        242863.361200        211327.036298        113000.174884 

Dipole components along the rotational axes: 
x,y,z [a.u.] :     0.000002    -0.111107     0.000000 
x,y,z [Debye]:     0.000004    -0.282412     0.000000 

 

Dipole moment calculation done in   0.0 sec 

-----------------
QUADRUPOLE MOMENT
-----------------

Method             : SCF
Type of density    : Electron Density
Multiplicity       :   1
Irrep              :   0
Energy             :  -288.2779689195406263 Eh
Basis              : AO

                XX              YY              ZZ              XY              XZ              YZ
  NUC        0.000000000     7.776008003     7.822723490     0.000000000     0.000000000     0.672490579
  EL        -9.715440008   -20.945090558   -20.937937283    -0.000000001     0.000000002     0.099015966
  TOT       -9.715440008   -13.169082555   -13.115213793    -0.000000001     0.000000002     0.771506545 (a.u.)
           -13.067599078   -17.712866419   -17.640411092    -0.000000001     0.000000003     1.037702688 (Buckingham)

diagonalized tensor:
           -13.914124734   -12.370171614    -9.715440008 (a.u.)
           -18.714973631   -16.638303881   -13.067599078 (Buckingham)
            -7.724044302    -1.494035052     9.218079355 (traceless form in Buckingham)

            -0.000000000    -0.000000000     1.000000000
            -0.719336553     0.694661733    -0.000000000
             0.694661733     0.719336553     0.000000001
        
Isotropic quadrupole :   -11.999912119

Quadrupole moment calculation done in   0.0 sec (  0.0 sec for integrals)

Maximum memory used throughout the entire PROP-calculation: 7.6 MB

--------------------------------
SUGGESTED CITATIONS FOR THIS RUN
--------------------------------

Below you find a list of papers that are relevant to this ORCA run
We neither can nor want to force you to cite these papers, but we appreciate if you do
You receive ORCA, which is the product of decades of hard work by many enthusiastic individuals, for free
The only thing we kindly ask in return is that you cite our papers,
We deeply appreciate it, if you show your appreciation for ORCA by not just citing the generic ORCA reference.

Please note that relegating all ORCA citations to the supporting information does *not* help us.
SI sections are not indexed - citations you put there will not count into any citation statistics
But we need these citations in order to attract the funding resources that allow us to do what we are doing

Therefore, if you are a happy ORCA user, please consider citing a few of the papers listed below in the main body of your paper

In addition to the list printed below, the program has created the file /cluster/projects/nn14654k/ylvaos/basis_set_n_funcs/functionals/lda_x/SiH2/inp/SiH2_lda_x_augccpvqz.bibtex that contains the list in bibtex format
You can import this file easily into all common literature databanks and citation aid programs

It goes without saying that in many instances, there are alternative algorithms to achieve similar
results as the ones you have gotten from ORCA. It is, of course, also the case that in some instances
ORCA just re-implements algorithms worked out by others. We are fully aware of that and we are also
fully appreciative of our colleagues work. Hence this citation list should not be read as indicating
that the listed papers, which are focused on our own work, are the only ones worth citing. It simply
meant to make it easier for users to cite ORCA specific papers. It is not a substitute for doing your
own literature research and citing the relevant literature in a scientifically appropriate manner.

List of essential papers. We consider these as the minimum necessary citations

  1. Neese, F.
     Software update: the ORCA program system, version 6.0
     WIRES Comput. Molec. Sci. 2025 15(1), e70019
     doi.org/10.1002/wcms.70019

List of papers to cite with high priority. The work reported in these papers was absolutely
necessary for this run to complete.
Our perspective: the developers of density functionals and basis sets usually get cited in chemistry papers
Good! But without the algorithms to do something with them, the functionals or basis sets would not do anything.
Hence, in our opinion, the algorithm design and method developments papers are equally worthy of getting cited

  1. Lehtola, S.; Steigemann, C.; Oliveira, M.; Marques, M.
     Recent developments in Libxc - A comprehensive library of functionals for density functional theory
     Software X 2018 7 , 
     doi.org/10.1016/j.softx.2017.11.002
  2. Neese, F.
     The SHARK Integral Generation and Digestion System
     J. Comp. Chem. 2022 44(3), 381
     doi.org/10.1002/jcc.26942

List of suggested additional citations. These are papers that are important in the 'surrounding' of 
of this run, or papers that preceded the highly important papers. If you like your results we are grateful for a citation.

  1. Neese, F.
     The ORCA program system
     WIRES Comput. Molec. Sci. 2012 2(1), 73-78
     doi.org/10.1002/wcms.81
  2. Neese, F.
     Software update: the ORCA program system, version 4.0
     WIRES Comput. Molec. Sci. 2018 8(1), 1-6
     doi.org/10.1002/wcms.1327
  3. Neese, F.; Wennmohs, F.; Becker, U.; Riplinger, C.
     The ORCA quantum chemistry program package
     J. Chem. Phys. 2020 152(22), 224108
     doi.org/10.1063/5.0004608
  4. Neese, F.
     Software update: The ORCA program system—Version 5.0
     WIRES Comput. Molec. Sci. 2022 12(1), e1606
     doi.org/10.1002/wcms.1606

List of optional additional citations

  1. Neese, F.
     Approximate second-order SCF convergence for spin unrestricted wavefunctions
     Chem. Phys. Lett. 2000 325(1-3), 93-98
     doi.org/10.1016/s0009-2614(00)00662-x

Timings for individual modules:

Sum of individual times          ...        6.068 sec (=   0.101 min)
Startup calculation              ...        0.726 sec (=   0.012 min)  12.0 %
SCF iterations                   ...        4.806 sec (=   0.080 min)  79.2 %
Property integrals               ...        0.279 sec (=   0.005 min)   4.6 %
Property calculations            ...        0.252 sec (=   0.004 min)   4.2 %
Orbital localization             ...        0.006 sec (=   0.000 min)   0.1 %
                             ****ORCA TERMINATED NORMALLY****
TOTAL RUN TIME: 0 days 0 hours 0 minutes 6 seconds 885 msec
