
                                 *****************
                                 * O   R   C   A *
                                 *****************

                                            #,                                       
                                            ###                                      
                                            ####                                     
                                            #####                                    
                                            ######                                   
                                           ########,                                 
                                     ,,################,,,,,                         
                               ,,#################################,,                 
                          ,,##########################################,,             
                       ,#########################################, ''#####,          
                    ,#############################################,,   '####,        
                  ,##################################################,,,,####,       
                ,###########''''           ''''###############################       
              ,#####''   ,,,,##########,,,,          '''####'''          '####       
            ,##' ,,,,###########################,,,                        '##       
           ' ,,###''''                  '''############,,,                           
         ,,##''                                '''############,,,,        ,,,,,,###''
      ,#''                                            '''#######################'''  
     '                                                          ''''####''''         
             ,#######,   #######,   ,#######,      ##                                
            ,#'     '#,  ##    ##  ,#'     '#,    #''#        ,####,    ,#,          
            ##       ##  ##   ,#'  ##            #'  '#       #'       ,# #          
            ##       ##  #######   ##           ,######,      #####,      #          
            '#,     ,#'  ##    ##  '#,     ,#' ,#      #,     #,   #      #          
             '#######'   ##     ##  '#######'  #'      '#     '####' #    #          



                #########################################################
                #                        -***-                          #
                #          Department of theory and spectroscopy        #
                #                                                       #
                #                      Frank Neese                      #
                #                                                       #
                #     Directorship, Architecture, Infrastructure        #
                #                    SHARK, DRIVERS                     #
                #        Core code/Algorithms in most modules           #
                #                                                       #
                #        Max Planck Institute fuer Kohlenforschung      #
                #                Kaiser Wilhelm Platz 1                 #
                #                 D-45470 Muelheim/Ruhr                 #
                #                      Germany                          #
                #                                                       #
                #                  All rights reserved                  #
                #                        -***-                          #
                #########################################################


                         Program Version 6.1.1  -  RELEASE   -
                                (GIT: $487d211c$)
                          ($2025-11-21 10:33:24 +0100$)


 With contributions from (in alphabetic order):
[Max-Planck-Institut fuer Kohlenforschung]                               
  Daniel Aravena         : Magnetic Suceptibility                        
  Michael Atanasov       : Ab Initio Ligand Field Theory (pilot matlab implementation)
  Alexander A. Auer      : GIAO ZORA, VPT2 properties, NMR spectrum      
  Ute Becker             : All parallelization in ORCA, NUMFREQ, NUMCALC 
  Giovanni Bistoni       : ED, misc. LED, open-shell LED, HFLD           
  Dmytro Bykov           : pre 5.0 version of the SCF Hessian            
  Marcos Casanova-Páez   : Triplet and SCS-CIS(D). UHF-(DLPNO)-IP/EA/STEOM-CCSD. UHF-CVS-IP/STEOM-CCSD   
  Vijay G. Chilkuri      : MRCI spin determinant printing, contributions to CSF-ICE 
  Pauline Colinet        : FMM embedding                                 
  Dipayan Datta          : RHF DLPNO-CCSD density                        
  Achintya Kumar Dutta   : EOM-CC, STEOM-CC                              
  Nicolas Foglia         : Exact transition moments, OPA infrastructure, MCD improvements    
  Dmitry Ganyushin       : Spin-Orbit,Spin-Spin,Magnetic field MRCI      
  Miquel Garcia-Rates    : C-PCM and meta-GGA Hessian, CCSD/C-PCM, Gaussian charge scheme 
  Tiago L. C. Gouveia    : GS-ROHF, GS-ROCIS                             
  Yang Guo               : DLPNO-NEVPT2, F12-NEVPT2, CIM, IAO-localization        
  Andreas Hansen         : Spin unrestricted coupled pair/coupled cluster methods 
  Ingolf Harden          : AUTO-CI MPn and infrastructure                
  Benjamin Helmich-Paris : MC-RPA, TRAH-(SCF,CASSCF), AVAS, COSX integrals, SCF dyn. polar., MC-PDFT, srDFT 
  Lee Huntington         : MR-EOM, pCC                                   
  Robert Izsak           : Overlap fitted RIJCOSX, COSX-SCS-MP3, EOM     
  Riya Kayal             : Wick's Theorem for AUTO-CI, AUTO-CI UHF-CCSDT 
  Emily Kempfer          : AUTO-CI RHF CISDT and CCSDT, approximate NEVPT4
  Christian Kollmar      : KDIIS, OOCD, Brueckner-CCSD(T), CCSD density, CASPT2, CASPT2-K, improved NEVPT2 
  Axel Koslowski         : Symmetry handling                             
  Simone Kossmann        : meta-GGA functionals, TD-DFT gradient, OOMP2, (MP2 Hessian; deprecated post 5.0) 
  Lucas Lang             : DCDCAS, Hyperfine gauge corrections, ICE-SOC+SSC
  Marvin Lechner         : AUTO-CI (C++ implementation), FIC-MRCC        
  Spencer Leger          : CASSCF response                               
  Dagmar Lenk            : GEPOL surface, SMD, ORCA-2-JSON               
  Dimitrios Liakos       : Extrapolation schemes; Compound Job, Property file
  Dimitrios Manganas     : Further ROCIS development; embedding schemes. LFT, Crystal Embedding 
  Dimitrios Pantazis     : SARC Basis sets                               
  Anastasios Papadopoulos: AUTO-CI, single reference methods and gradients 
  Taras Petrenko         : pre 6.0 DFT Hessian and TD-DFT gradient,  ECA, NRVS 
  Petra Pikulova         : Analytic Raman intensities                    
  Peter Pinski           : DLPNO-MP2, DLPNO-MP2 Gradient                 
  Shashank Vittal Rao    : ES-AILFT, MagRelax                            
  Christoph Reimann      : Effective Core Potentials                     
  Marius Retegan         : Local ZFS, SOC                                
  Christoph Riplinger    : Optimizer, TS searches, QM/MM, DLPNO-CCSD(T), (RO)-DLPNO pert. Triples 
  Michael Roemelt        : Original ROCIS implementation, recursive CI coupling coefficients
  Masaaki Saitow         : Open-shell DLPNO-CCSD energy and density      
  Barbara Sandhoefer     : DKH picture change effects                    
  Yorick L. A. Schmerwitz: GMF and freeze-and-release deltaSCF, NEB S-IDPP initial path                    
  Kantharuban Sivalingam : CASSCF convergence/infrastructure, NEVPT2, NEVPT3, NEVPT4(SD), FIC-MRCI and CEPA variants
  Bernardo de Souza      : ESD, SOC TD-DFT                               
  Georgi L. Stoychev     : AutoAux, RI-MP2 NMR, DLPNO-MP2 response, X2C  
  Van Anh Tran           : RI-MP2 g-tensors                              
  Willem Van den Heuvel  : Paramagnetic NMR                              
  Zikuan Wang            : NOTCH, Electric field optimization            
  Frank Wennmohs         : Technical directorship and infrastructure     
  Hang Xu                : AUTO-CI-Response properties                   
                                                                         
[FACCTs GmbH]                                                            
  Markus Bursch, Nicolas Foglia, Miquel Garcia-Rates, Ingolf Harden, Hagen Neugebauer, Anastasios Papadopoulos, 
  Christoph Riplinger, Bernardo de Souza, Georgi L. Stoychev                                                    
                                                                 
  APM, various basis sets, CI-OPT, improved COSX, DLPNO-Multilevel,           
  DOCKER, DRACO, updates on ESD, Fragmentator, GOAT, IRC, LR-CPCM, L-BFGS, MBIS, meta-GGA TD-DFT gradient, ML-optimized integration grids, 
  MM, NACMEs, nearIR, NEB, NEB-TS, NL-DFT gradient (VV10), 2- and 3-layer-ONIOM, interface openCOSMO-RS, QMMM,   
  Crystal-QMMM, RESP, rigid body optimization, SF, symmetry and pop. for TD-DFT, various functionals, SOLVATOR                                   
                                                                         
[Other institutions]                                                     
  V. Asgeirsson          : NEB                                           
  Christoph Bannwarth    : sTDA-DFT, sTD-DFT, PBEh-3c, B97-3c, D3        
  Giovanni Bistoni       : ETS/NOCV, ADLD/ADEX, COVALED                  
  Martin Brehm           : Molecular dynamics                            
  Ronald Cardenas        : ETS/NOCV                                      
  Martina Colucci        : COVALED                                       
  Sebastian Ehlert       : rSCAN, r2SCAN, r2SCAN-3c, D4, dhf basis sets  
  Marvin Friede          : D4 for Fr, Ra, Ac-Lr                          
  Lars Goerigk           : TD-DFT with DH, B97 family of functionals     
  Stefan Grimme          : VdW corrections, initial TS optimization, DFT functionals, gCP, sTDA/sTD-DF 
  Waldemar Hujo          : DFT-NL                                        
  H. Jonsson             : NEB                                           
  Holger Kruse           : gCP                                           
  Marcel Mueller         : wB97X-3c, vDZP basis set                      
  Hagen Neugebauer       : wr2SCAN, Native XTB                           
  Gianluca Regni         : ADLD/ADEX                                     
  Tobias Risthaus        : pre 6.0 range-separated hybrid DFT and stability analysis
  Lukas Wittmann         : regularized MP2, r2SCAN double-hybrids, wr2SCAN        
                                                                         
We gratefully acknowledge several colleagues who have allowed us to      
interface, adapt or use parts of their codes:                            
  Ed Valeev, F. Pavosevic, A. Kumar             : LibInt (2-el integral package), F12 methods 
  Garnet Chan, S. Sharma, J. Yang, R. Olivares  : DMRG                   
  Ulf Ekstrom                                   : XCFun DFT Library      
  Mihaly Kallay                                 : mrcc  (arbitrary order and MRCC methods)
  Frank Weinhold                                : gennbo (NPA and NBO analysis)           
  Simon Mueller                                 : openCOSMO-RS                            
  Christopher J. Cramer and Donald G. Truhlar   : smd solvation model                     
  S Lehtola, MJT Oliveira, MAL Marques          : LibXC Library                           
  Liviu Ungur et al                             : ANISO software                          


 Your calculation uses the libint2 library for the computation of 2-el integrals
 For citations please refer to: http://libint.valeyev.net

 Your ORCA version has been built with support for libXC version: 7.0.0
 For citations please refer to: https://libxc.gitlab.io

 This ORCA versions uses:
   CBLAS   interface :  Fast vector & matrix operations
   LAPACKE interface :  Fast linear algebra routines
   SCALAPACK package :  Parallel linear algebra routines
   Shared memory     :  Shared parallel matrices
   BLAS/LAPACK       :  OpenBLAS 0.3.29  USE64BITINT DYNAMIC_ARCH NO_AFFINITY Cooperlake SINGLE_THREADED
        Core in use  :  Cooperlake
   Copyright (c) 2011-2014, The OpenBLAS Project


  ***********************************
  * Starting time: Wed May 20 12:41:47 2026
  * Host name:     c1-5
  * Process ID:    1010974
  * Working dir.:  /cluster/projects/nn14654k/ylvaos/basis_set_n_funcs/functionals/lda_x/SiH2/out
  ***********************************

Using LibXC functional ID   1 : Slater exchange
[ 1]  P. A. M. Dirac.,  Math. Proc. Cambridge Philos. Soc. 26, 376 (1930)
[ 2]  F. Bloch.,  Z. Phys. 57, 545 (1929)
Using LibXC functional ID   1 : Slater exchange
[ 1]  P. A. M. Dirac.,  Math. Proc. Cambridge Philos. Soc. 26, 376 (1930)
[ 2]  F. Bloch.,  Z. Phys. 57, 545 (1929)
Your calculation utilizes LibXC
by S. Lehtola, C. Steigemann, M. J. T. Oliveira & M. A. L. Marques
Please cite in your paper:
Lehtola, S.; Steigemann, C.; Oliveira, M.J.T.; Marques, M. A. L. Software X, 7, (2018), 1.
   

================================================================================

----- Orbital basis set information -----
Your calculation utilizes the basis: cc-pVQZ 
       H, B-Ne : Obtained from the ccRepo (grant-hill.group.shef.ac.uk/ccrepo) Feb. 2017
                 T. H. Dunning, Jr., J. Chem. Phys. 90, 1007 (1989)
            He : Obtained from the ccRepo (grant-hill.group.shef.ac.uk/ccrepo) Feb. 2017
                 D. E. Woon, T. H. Dunning, Jr., J. Chem. Phys. 100, 2975 (1994)
  Li-Be, Na-Mg : Obtained from the ccRepo (grant-hill.group.shef.ac.uk/ccrepo) Feb. 2017
                 B. P. Prascher, D. E. Woon, K. A. Peterson, T. H. Dunning, Jr., A. K. Wilson, Theor. Chem. Acc. 128, 69 (2011)
         Al-Ar : Obtained from the ccRepo (grant-hill.group.shef.ac.uk/ccrepo) Feb. 2017
                 D. E. Woon, T. H. Dunning, Jr., J. Chem. Phys. 98, 1358 (1993)
            Ca : Obtained from the Peterson Research Group Website (tyr0.chem.wsu.edu/~kipeters) Feb. 2017
                 J. Koput, K. A. Peterson, J. Phys. Chem. 106, 9595 (2002)
         Sc-Zn : Obtained from the ccRepo (grant-hill.group.shef.ac.uk/ccrepo) Feb. 2017
                 N. B. Balabanov, K. A. Peterson, J. Chem. Phys. 123, 064107 (2005)
                 N. B. Balabanov, K. A. Peterson, J. Chem. Phys. 125, 074110 (2006)
         Ga-Kr : Obtained from the ccRepo (grant-hill.group.shef.ac.uk/ccrepo) Feb. 2017
                 A. K. Wilson, D. E. Woon, K. A. Peterson, T. H. Dunning, Jr., J. Chem. Phys. 110, 7667 (1999)

================================================================================
                                        WARNINGS
                       Please study these warnings very carefully!
================================================================================


================================================================================
                                       INPUT FILE
================================================================================
NAME = /cluster/projects/nn14654k/ylvaos/basis_set_n_funcs/functionals/lda_x/SiH2/inp/SiH2_lda_x_ccpvqz.inp
|  1> ! dft cc-pVQZ TightSCF
|  2> %pal nprocs 8 end
|  3> 
|  4> %loc
|  5>   LocMet NewBoys
|  6>   Occ true
|  7> end
|  8> 
|  9> %method
| 10>   exchange lda_x
| 11>   correlation None
| 12> end
| 13> 
| 14> %elprop
| 15>   Dipole true
| 16>   Quadrupole true
| 17> end
| 18> 
| 19> * xyz 0 1
| 20> Si    0.000000000000   0.000000000000   0.000000000000
| 21> H    0.000000000000   0.000000000000  -1.514100000000
| 22> H    0.000000000000   1.513200000000   0.052800000000
| 23> *
| 24> 
| 25> 
| 26>                          ****END OF INPUT****
================================================================================

                       ****************************
                       * Single Point Calculation *
                       ****************************

---------------------------------
CARTESIAN COORDINATES (ANGSTROEM)
---------------------------------
  Si     0.000000    0.000000    0.000000
  H      0.000000    0.000000   -1.514100
  H      0.000000    1.513200    0.052800

----------------------------
CARTESIAN COORDINATES (A.U.)
----------------------------
  NO LB      ZA    FRAG     MASS         X           Y           Z
   0 Si   14.0000    0    28.086    0.000000    0.000000    0.000000
   1 H     1.0000    0     1.008    0.000000    0.000000   -2.861234
   2 H     1.0000    0     1.008    0.000000    2.859534    0.099778

--------------------------------
INTERNAL COORDINATES (ANGSTROEM)
--------------------------------
 Si     0   0   0     0.000000000000     0.00000000     0.00000000
 H      1   0   0     1.514100000000     0.00000000     0.00000000
 H      1   2   0     1.514120893456    91.99840755     0.00000000

---------------------------
INTERNAL COORDINATES (A.U.)
---------------------------
 Si     0   0   0     0.000000000000     0.00000000     0.00000000
 H      1   0   0     2.861234339370     0.00000000     0.00000000
 H      1   2   0     2.861273822280    91.99840755     0.00000000

---------------------
BASIS SET INFORMATION
---------------------
There are 2 groups of distinct atoms

 Group   1 Type Si  : 42s19p3d2f1g contracted to 6s5p3d2f1g pattern {131313111/88111/111/11/1}
 Group   2 Type H   : 6s3p2d1f contracted to 4s3p2d1f pattern {3111/111/11/1}

Atom   0Si   basis set group =>   1
Atom   1H    basis set group =>   2
Atom   2H    basis set group =>   2


           ************************************************************
           *        Program running with 8 parallel MPI-processes     *
           *              working on a common directory               *
           ************************************************************
------------------------------------------------------------------------------
                             ORCA STARTUP CALCULATIONS
------------------------------------------------------------------------------
------------------------------------------------------------------------------
                   ___                                                        
                  /   \      - P O W E R E D   B Y -                         
                 /     \                                                     
                 |  |  |   _    _      __       _____    __    __             
                 |  |  |  | |  | |    /  \     |  _  \  |  |  /  |          
                  \  \/   | |  | |   /    \    | | | |  |  | /  /          
                 / \  \   | |__| |  /  /\  \   | |_| |  |  |/  /          
                |  |  |   |  __  | /  /__\  \  |    /   |      \           
                |  |  |   | |  | | |   __   |  |    \   |  |\   \          
                \     /   | |  | | |  |  |  |  | |\  \  |  | \   \       
                 \___/    |_|  |_| |__|  |__|  |_| \__\ |__|  \__/        
                                                                              
                      - O R C A' S   B I G   F R I E N D -                    
                                      &                                       
                       - I N T E G R A L  F E E D E R -                       
                                                                              
 v1 FN, 2020, v2 2021, v3 2022-2024                                           
------------------------------------------------------------------------------


----------------------
SHARK INTEGRAL PACKAGE
----------------------

Number of atoms                             ...      3
Number of basis functions                   ...    147
Number of shells                            ...     53
Maximum angular momentum                    ...      4
Integral batch strategy                     ... SHARK/LIBINT Hybrid
RI-J (if used) integral strategy            ... SPLIT-RIJ (Revised 2003 algorithm where possible)
Printlevel                                  ...      1
Contraction scheme used                     ... PARTIAL GENERAL contraction
Prescreening option                         ... SCHWARTZ
   Thresh                                   ... 2.500e-11
   Tcut                                     ... 2.500e-12
   Tpresel                                  ... 2.500e-12 
Coulomb Range Separation                    ... NOT USED
Exchange Range Separation                   ... NOT USED
Multipole approximations                    ... NOT USED
Finite Nucleus Model                        ... NOT USED
CABS basis                                  ... NOT available
Auxiliary Coulomb fitting basis             ... NOT available
Auxiliary J/K fitting basis                 ... NOT available
Auxiliary Correlation fitting basis         ... NOT available
Auxiliary 'external' fitting basis          ... NOT available

Checking pre-screening integrals            ... done (  0.0 sec) Dimension = 53
Save PGC pre-screening integrals            ... done (  0.0 sec) Dimension = 53
Calculate PGC overlap integrals             ... done (  0.0 sec) Dimension = 37
Calculating pre-screening integrals (ORCA)  ... done (  0.1 sec) Dimension = 37
Shell pair information
Shell pair cut-off parameter TPreSel        ...   2.5e-12
Total number of shell pairs                 ...      1431
Shell pairs after pre-screening             ...      1422
Total number of primitive shell pairs       ...      1659
Primitive shell pairs kept                  ...      1568
          la=0 lb=0:    296 shell pairs
          la=1 lb=0:    408 shell pairs
          la=1 lb=1:    153 shell pairs
          la=2 lb=0:    168 shell pairs
          la=2 lb=1:    119 shell pairs
          la=2 lb=2:     28 shell pairs
          la=3 lb=0:     94 shell pairs
          la=3 lb=1:     68 shell pairs
          la=3 lb=2:     28 shell pairs
          la=3 lb=3:     10 shell pairs
          la=4 lb=0:     21 shell pairs
          la=4 lb=1:     17 shell pairs
          la=4 lb=2:      7 shell pairs
          la=4 lb=3:      4 shell pairs
          la=4 lb=4:      1 shell pairs

Checking whether 4 symmetric matrices of dimension 147 fit in memory
:Max Core in MB      =   4096.00
 MB in use           =      4.74
 MB left             =   4091.26
 MB needed           =      0.33
 Data fit in memory  = YES
Calculating Nuclear repulsion               ... done (  0.0 sec) ENN=     10.028851096195 Eh

Diagonalization of the overlap matrix:
Smallest eigenvalue                        ... 1.764e-04
Time for diagonalization                   ...    0.001 sec
Threshold for overlap eigenvalues          ... 1.000e-07
Number of eigenvalues below threshold      ... 0
Time for construction of square roots      ...    0.002 sec
Total time needed                          ...    0.005 sec

-------------------
DFT GRID GENERATION
-------------------

General Integration Accuracy     IntAcc      ... 4.388
Radial Grid Type                 RadialGrid  ... OptM3 with GC (2021)
Angular Grid (max. ang.)         AngularGrid ... 4 (Lebedev-302)
Angular grid pruning method      GridPruning ... 4 (adaptive)
Weight generation scheme         WeightScheme... mBecke (2022)
Basis function cutoff            BFCut       ... 1.0000e-11
Integration weight cutoff        WCut        ... 1.0000e-14
Partially contracted basis set               ... off
Rotationally invariant grid construction     ... off
Angular grids for H and He will be reduced by one unit

Total number of grid points                  ...    13986
Total number of batches                      ...      220
Average number of points per batch           ...       63
Average number of grid points per atom       ...     4662

---------------------
SHARK GRID GENERATION
---------------------

General Integration Accuracy     IntAcc      ... 4.388
Radial Grid Type                 RadialGrid  ... OptM3 with GC (2021)
Angular Grid (max. ang.)         AngularGrid ... 4 (Lebedev-302)
Angular grid pruning method      GridPruning ... 4 (adaptive)
Weight generation scheme         WeightScheme... mBecke (2022)
Basis function cutoff            BFCut       ... 1.0000e-11
Integration weight cutoff        WCut        ... 1.0000e-14
Partially contracted basis set               ... off
Rotationally invariant grid construction     ... off
Angular grids for H and He will be reduced by one unit
Core-polarized basis detected: some atoms will have their core
                               angular grid increased.
Steep s-basis detected: some atoms will have their radial
                        grid points doubled.

Total number of grid points                  ...    25951
Total number of batches                      ...      407
Average number of points per batch           ...       63
Average number of grid points per atom       ...     8650
Grids setup in   0.2 sec
Initializing property integral containers    ... done (  0.0 sec)

SHARK setup successfully completed in   0.4 seconds

Maximum memory used throughout the entire STARTUP-calculation: 58.2 MB


           ************************************************************
           *        Program running with 8 parallel MPI-processes     *
           *              working on a common directory               *
           ************************************************************
-------------------------------------------------------------------------------
                                 ORCA GUESS
                   Start orbitals & Density for SCF / CASSCF
-------------------------------------------------------------------------------

------------
SCF SETTINGS
------------
Hamiltonian:
 Density Functional     Method          .... DFT(GTOs)
  Functional kind                       .... Exchange
  Functional name                       .... Slater exchange
  Functional family                     .... LDA
  Functional refs                              
    [ 0] P. A. M. Dirac.,  Math. Proc. Cambridge Philos. Soc. 26, 376 (1930), doi: 10.1017/S0305004100016108
    [ 1] F. Bloch.,  Z. Phys. 57, 545 (1929), doi: 10.1007/BF01340281
  Functional external parameters        .... 0
 Correlation Functional Correlation     .... No Correlation
 Gradients option       PostSCFGGA      .... off


General Settings:
 Integral files         IntName         .... /cluster/projects/nn14654k/ylvaos/basis_set_n_funcs/functionals/lda_x/SiH2/inp/SiH2_lda_x_ccpvqz
 Hartree-Fock type      HFTyp           .... RHF
 Total Charge           Charge          ....    0
 Multiplicity           Mult            ....    1
 Number of Electrons    NEL             ....   16
 Basis Dimension        Dim             ....  119
 Nuclear Repulsion      ENuc            ....     10.0288510962 Eh

Convergence Acceleration:
 AO-DIIS                CNVDIIS         .... on
   Start iteration      DIISMaxIt       ....    12
   Startup error        DIISStart       ....  0.200000
   # of expansion vecs  DIISMaxEq       ....     5
   Bias factor          DIISBfac        ....   1.050
   Max. coefficient     DIISMaxC        ....  10.000
 MO-DIIS                CNVKDIIS        .... off
 Trust-Rad. Augm. Hess. CNVTRAH         .... auto
   Auto Start mean grad. ratio tolernc. ....  1.125000
   Auto Start start iteration           ....    50
   Auto Start num. interpolation iter.  ....    10
   Max. Number of Micro iterations      ....    24
   Max. Number of Macro iterations      .... Maxiter - #DIIS iter
   Number of Davidson start vectors     ....     2
   Converg. threshold    (grad. norm)   ....   1.000e-05
   Grad. Scal. Fac. for Micro threshold ....   0.100
   Minimum threshold for Micro iter.    ....   1.000e-02
   NR start threshold (gradient norm)   ....   1.000e-04
   Initial trust radius                 ....   0.400
   Minimum AH scaling param. (alpha)    ....   1.000
   Maximum AH scaling param. (alpha)    .... 1000.000
   Quad. conv. algorithm                .... NR
   White noise on init. David. guess    .... on
   Maximum white noise                  ....   0.010
   Pseudo random numbers                .... off
   Inactive MOs                         .... canonical
   Orbital update algorithm             .... Taylor
   Preconditioner                       .... Diag
   Full preconditioner red. dimension   ....   250
 SOSCF                 CNVSOSCF           .... on
   Start iteration     SOSCFMaxIt         ....   150
   Startup grad/error  SOSCFStart         ....  0.003300
   Hessian update      SOSCFHessUp        .... L-BFGS
   Autom. constraints  SOSCFAutoConstrain .... off
 Level Shifting         CNVShift        .... on
   Level shift para.    LevelShift      ....    0.2500
   Turn off err/grad.   ShiftErr        ....    0.0010
 Zerner damping         CNVZerner       .... off
 Static damping         CNVDamp         .... on
   Fraction old density DampFac         ....    0.7000
   Max. Damping (<1)    DampMax         ....    0.9800
   Min. Damping (>=0)   DampMin         ....    0.0000
   Turn off err/grad.   DampErr         ....    0.1000

SCF Procedure:
 Maximum # iterations   MaxIter         ....   125
 SCF integral mode      SCFMode         .... Direct
   Integral package                     .... SHARK and LIBINT hybrid scheme
 Reset frequency        DirectResetFreq ....    20
 Integral Threshold     Thresh          ....  2.500e-11 Eh
 Primitive CutOff       TCut            ....  2.500e-12 Eh

Convergence Tolerance:
 Convergence Check Mode ConvCheckMode   .... Total+1el-Energy
 Convergence forced     ConvForced      .... 0
 Energy Change          TolE            ....  1.000e-08 Eh
 1-El. energy change                    ....  1.000e-05 Eh
 Orbital Gradient       TolG            ....  1.000e-05
 Orbital Rotation angle TolX            ....  1.000e-05
 DIIS Error             TolErr          ....  5.000e-07

------------------------------
INITIAL GUESS: MODEL POTENTIAL
------------------------------
Loading Hartree-Fock densities                     ... done
Calculating cut-offs                               ... done
Initializing the effective Hamiltonian             ... done
Setting up the integral package (SHARK)            ... done
Starting the Coulomb interaction                   ... done (   0.0 sec)
Making the grid                                    ... done (   0.0 sec)
Mapping shells                                     ... done
Starting the XC term evaluation                    ... done (   0.0 sec)
  promolecular density results
     # of electrons  =     16.000312466
     EX              =    -19.119471482
     EC              =      0.000000000
     EX+EC           =    -19.119471482
Transforming the Hamiltonian                       ... done (   0.0 sec)
Diagonalizing the Hamiltonian                      ... done (   0.0 sec)
Back transforming the eigenvectors                 ... done (   0.0 sec)
Now organizing SCF variables                       ... done
                      ------------------
                      INITIAL GUESS DONE (   0.0 sec)
                      ------------------
             **** ENERGY FILE WAS UPDATED (/cluster/projects/nn14654k/ylvaos/basis_set_n_funcs/functionals/lda_x/SiH2/inp/SiH2_lda_x_ccpvqz.en.tmp) ****
Finished Guess after   0.1 sec
Maximum memory used throughout the entire GUESS-calculation: 10.5 MB


           ************************************************************
           *        Program running with 8 parallel MPI-processes     *
           *              working on a common directory               *
           ************************************************************

-------------------------------------------------------------------------------------------
                                      ORCA LEAN-SCF
                              memory conserving SCF solver
-------------------------------------------------------------------------------------------

----------------------------------------D-I-I-S--------------------------------------------
Iteration    Energy (Eh)           Delta-E    RMSDP     MaxDP     DIISErr   Damp  Time(sec)
-------------------------------------------------------------------------------------------
               ***  Starting incremental Fock matrix formation  ***
    1    -288.2666391533861088     0.00e+00  3.71e-03  4.89e-02  6.17e-02  0.700   0.2
Warning: op=0 Small HOMO/LUMO gap (   0.050) - skipping pre-diagonalization
         Will do a full diagonalization
    2    -288.2707222104437506    -4.08e-03  2.54e-03  2.97e-02  4.12e-02  0.700   0.2
                               ***Turning on AO-DIIS***
    3    -288.2732161953520631    -2.49e-03  1.26e-03  1.32e-02  2.22e-02  0.700   0.3
    4    -288.2746754279518768    -1.46e-03  2.83e-03  3.29e-02  1.35e-02  0.000   0.2
                              *** Initializing SOSCF ***
---------------------------------------S-O-S-C-F--------------------------------------
Iteration    Energy (Eh)           Delta-E    RMSDP     MaxDP     MaxGrad    Time(sec)
--------------------------------------------------------------------------------------
    5    -288.2776348415746384    -2.96e-03  2.67e-04  3.33e-03  1.65e-03     0.2
               *** Restarting incremental Fock matrix formation ***
    6    -288.2776504323787208    -1.56e-05  1.77e-04  1.80e-03  3.65e-04     0.1
    7    -288.2776520369218360    -1.60e-06  4.87e-05  4.95e-04  1.04e-04     0.1
    8    -288.2776521951847144    -1.58e-07  1.46e-05  1.78e-04  5.22e-05     0.2
    9    -288.2776522159305159    -2.07e-08  3.92e-06  3.80e-05  9.50e-06     0.1
   10    -288.2776522178120331    -1.88e-09  9.22e-07  1.25e-05  1.84e-06     0.2
                 **** Energy Check signals convergence ****

               *****************************************************
               *                     SUCCESS                       *
               *           SCF CONVERGED AFTER  10 CYCLES          *
               *****************************************************

             **** ENERGY FILE WAS UPDATED (/cluster/projects/nn14654k/ylvaos/basis_set_n_funcs/functionals/lda_x/SiH2/inp/SiH2_lda_x_ccpvqz.en.tmp) ****

----------------
TOTAL SCF ENERGY
----------------

Total Energy       :       -288.27765221793800 Eh           -7844.43372 eV

Components:
Nuclear Repulsion  :         10.02885109619548 Eh             272.89891 eV
Electronic Energy  :       -298.30650331413347 Eh           -8117.33263 eV
One Electron Energy:       -421.40883458371013 Eh          -11467.11737 eV
Two Electron Energy:        123.10233126957665 Eh            3349.78473 eV

Virial components:
Potential Energy   :       -577.18847356405649 Eh          -15706.09685 eV
Kinetic Energy     :        288.91082134611850 Eh            7861.66313 eV
Virial Ratio       :          1.99780842709446

DFT components:
N(Alpha)           :        8.000001602454 electrons
N(Beta)            :        8.000001602454 electrons
N(Total)           :       16.000003204908 electrons
E(X)               :      -19.134434077871 Eh       
E(C)               :        0.000000000000 Eh       
E(XC)              :      -19.134434077871 Eh       

---------------
SCF CONVERGENCE
---------------

  Last Energy change         ...    1.8815e-09  Tolerance :   1.0000e-08
  Last MAX-Density change    ...    1.2474e-05  Tolerance :   1.0000e-07
  Last RMS-Density change    ...    9.2161e-07  Tolerance :   5.0000e-09
  Last DIIS Error            ...    1.6522e-03  Tolerance :   5.0000e-07
  Last Orbital Gradient      ...    1.8448e-06  Tolerance :   1.0000e-05
  Last Orbital Rotation      ...    3.0844e-06  Tolerance :   1.0000e-05


----------------
ORBITAL ENERGIES
----------------

  NO   OCC          E(Eh)            E(eV) 
   0   2.0000     -65.089743     -1771.1819 
   1   2.0000      -4.990393      -135.7955 
   2   2.0000      -3.440362       -93.6170 
   3   2.0000      -3.429304       -93.3161 
   4   2.0000      -3.426630       -93.2433 
   5   2.0000      -0.422396       -11.4940 
   6   2.0000      -0.250936        -6.8283 
   7   2.0000      -0.174178        -4.7396 
   8   0.0000      -0.119216        -3.2440 
   9   0.0000       0.031592         0.8597 
  10   0.0000       0.056064         1.5256 
  11   0.0000       0.101930         2.7737 
  12   0.0000       0.121955         3.3186 
  13   0.0000       0.137612         3.7446 
  14   0.0000       0.139098         3.7851 
  15   0.0000       0.150153         4.0859 
  16   0.0000       0.150547         4.0966 
  17   0.0000       0.154981         4.2172 
  18   0.0000       0.237496         6.4626 
*Only the first 10 virtual orbitals were printed.

                    ********************************
                    * MULLIKEN POPULATION ANALYSIS *
                    ********************************

-----------------------
MULLIKEN ATOMIC CHARGES
-----------------------
   0 Si:   -0.060553
   1 H :    0.030276
   2 H :    0.030277
Sum of atomic charges:    0.0000000

--------------------------------
MULLIKEN REDUCED ORBITAL CHARGES
--------------------------------
  0 Sis       :     5.799235  s :     5.799235
      pz      :     3.051560  p :     8.115924
      px      :     1.999708
      py      :     3.064656
      dz2     :     0.081468  d :     0.133384
      dxz     :     0.000001
      dyz     :     0.001416
      dx2y2   :     0.050500
      dxy     :     0.000001
      f0      :     0.005161  f :     0.010273
      f+1     :     0.000000
      f-1     :     0.002630
      f+2     :     0.000022
      f-2     :     0.000000
      f+3     :     0.000000
      f-3     :     0.002460
      g0      :     0.000997  g :     0.001737
      g+1     :    -0.000000
      g-1     :     0.000009
      g+2     :     0.000301
      g-2     :    -0.000000
      g+3     :     0.000000
      g-3     :     0.000004
      g+4     :     0.000427
      g-4     :    -0.000000

  1 H s       :     0.943245  s :     0.943245
      pz      :     0.015618  p :     0.024079
      px      :     0.000060
      py      :     0.008400
      dz2     :     0.001536  d :     0.002302
      dxz     :     0.000076
      dyz     :     0.000659
      dx2y2   :     0.000030
      dxy     :     0.000000
      f0      :     0.000070  f :     0.000098
      f+1     :     0.000009
      f-1     :     0.000018
      f+2     :     0.000002
      f-2     :     0.000000
      f+3     :    -0.000000
      f-3     :    -0.000000

  2 H s       :     0.943251  s :     0.943251
      pz      :     0.008190  p :     0.024072
      px      :     0.000060
      py      :     0.015822
      dz2     :     0.000445  d :     0.002301
      dxz     :     0.000000
      dyz     :     0.000648
      dx2y2   :     0.001132
      dxy     :     0.000076
      f0      :     0.000007  f :     0.000098
      f+1     :     0.000001
      f-1     :     0.000026
      f+2     :     0.000011
      f-2     :     0.000000
      f+3     :     0.000008
      f-3     :     0.000045



                     *******************************
                     * LOEWDIN POPULATION ANALYSIS *
                     *******************************

----------------------
LOEWDIN ATOMIC CHARGES
----------------------
   0 Si:    0.290600
   1 H :   -0.145305
   2 H :   -0.145296

-------------------------------
LOEWDIN REDUCED ORBITAL CHARGES
-------------------------------
  0 Sis       :     5.314827  s :     5.314827
      pz      :     3.079253  p :     8.172860
      px      :     1.999488
      py      :     3.094119
      dz2     :     0.110775  d :     0.178776
      dxz     :     0.000004
      dyz     :     0.000644
      dx2y2   :     0.067349
      dxy     :     0.000004
      f0      :     0.017957  f :     0.037419
      f+1     :     0.000001
      f-1     :     0.010260
      f+2     :     0.000834
      f-2     :     0.000000
      f+3     :     0.000002
      f-3     :     0.008366
      g0      :     0.002829  g :     0.005518
      g+1     :     0.000003
      g-1     :     0.000209
      g+2     :     0.000905
      g-2     :     0.000000
      g+3     :     0.000000
      g-3     :     0.000128
      g+4     :     0.001441
      g-4     :     0.000003

  1 H s       :     0.995260  s :     0.995260
      pz      :     0.086565  p :     0.128902
      px      :     0.000113
      py      :     0.042223
      dz2     :     0.011635  d :     0.020033
      dxz     :     0.000121
      dyz     :     0.008133
      dx2y2   :     0.000144
      dxy     :     0.000000
      f0      :     0.000741  f :     0.001110
      f+1     :     0.000013
      f-1     :     0.000341
      f+2     :     0.000015
      f-2     :     0.000000
      f+3     :     0.000000
      f-3     :     0.000000

  2 H s       :     0.995257  s :     0.995257
      pz      :     0.041259  p :     0.128896
      px      :     0.000113
      py      :     0.087524
      dz2     :     0.003579  d :     0.020032
      dxz     :     0.000000
      dyz     :     0.007866
      dx2y2   :     0.008466
      dxy     :     0.000121
      f0      :     0.000118  f :     0.001110
      f+1     :     0.000001
      f-1     :     0.000324
      f+2     :     0.000207
      f-2     :     0.000000
      f+3     :     0.000012
      f-3     :     0.000448



                      *****************************
                      * MAYER POPULATION ANALYSIS *
                      *****************************

  NA   - Mulliken gross atomic population
  ZA   - Total nuclear charge
  QA   - Mulliken gross atomic charge
  VA   - Mayer's total valence
  BVA  - Mayer's bonded valence
  FA   - Mayer's free valence

  ATOM       NA         ZA         QA         VA         BVA        FA
  0 Si    14.0606    14.0000    -0.0606     1.9962     1.9962     0.0000
  1 H      0.9697     1.0000     0.0303     1.0058     1.0058     0.0000
  2 H      0.9697     1.0000     0.0303     1.0058     1.0058     0.0000

  Mayer bond orders larger than 0.100000
B(  0-Si,  1-H ) :   0.9981 B(  0-Si,  2-H ) :   0.9981 

-------
TIMINGS
-------

Total SCF time: 0 days 0 hours 0 min 2 sec 

Total time                  ....       2.190 sec
Sum of individual times     ....       1.998 sec  ( 91.2%)

SCF preparation             ....       0.078 sec  (  3.6%)
Fock matrix formation       ....       1.397 sec  ( 63.8%)
  Startup                   ....       0.013 sec  (  1.0% of F)
  Coulomb formation         ....       0.976 sec  ( 69.9% of F)
  XC integration            ....       0.335 sec  ( 24.0% of F)
    XC Preparation          ....       0.000 sec  (  0.0% of XC)
    Basis function eval.    ....       0.015 sec  (  4.4% of XC)
    Density eval.           ....       0.011 sec  (  3.3% of XC)
    XC-Functional eval.     ....       0.004 sec  (  1.1% of XC)
    XC-Potential eval.      ....       0.018 sec  (  5.5% of XC)
Diagonalization             ....       0.000 sec  (  0.0%)
Density matrix formation    ....       0.093 sec  (  4.2%)
Total Energy calculation    ....       0.013 sec  (  0.6%)
Population analysis         ....       0.019 sec  (  0.9%)
Orbital Transformation      ....       0.041 sec  (  1.9%)
Orbital Orthonormalization  ....       0.000 sec  (  0.0%)
DIIS solution               ....       0.264 sec  ( 12.1%)
SOSCF solution              ....       0.093 sec  (  4.2%)
Finished LeanSCF after   2.3 sec

Maximum memory used throughout the entire LEANSCF-calculation: 20.3 MB


           ************************************************************
           *        Program running with 8 parallel MPI-processes     *
           *              working on a common directory               *
           ************************************************************

------------------------------------------------------------------------------
                         ORCA PROPERTY INTEGRAL CALCULATIONS
------------------------------------------------------------------------------

GBWName                                   ... /cluster/projects/nn14654k/ylvaos/basis_set_n_funcs/functionals/lda_x/SiH2/inp/SiH2_lda_x_ccpvqz.gbw
Number of atoms                           ...      3
Number of basis functions                 ...    147
Max core memory                           ...   4096 MB

Dipole integrals                          ... YES
Quadrupole integrals                      ... YES
Linear momentum integrals                 ...  NO
Angular momentum integrals                ...  NO
Higher moments length integrals           ...  NO
Higher moments velocity integrals         ...  NO
Kinetic energy integrals                  ...  NO
GIAO right hand sides                     ...  NO
GIAO dipole derivative integrals          ...  NO
SOC integrals                             ...  NO
EPR diamagnetic integrals (GIAO)          ...  NO
EPR gauge integrals                       ...  NO
Field gradient integrals                  ...  NO (   0 nuclei)
Spin-dipole/Fermi contact integrals       ...  NO (   0 nuclei)
Contact density integrals                 ...  NO (   0 nuclei)
Nucleus-orbit integrals                   ...  NO (   0 nuclei)
Geometric perturbations                   ...  NO (   3 nuclei)

Choice of electric origin   ... Center of mass
Position of electric origin ... (  0.0000,  0.0958, -0.0925) 
Choice of magnetic origin   ... GIAO
Position of magnetic origin ... (  0.0000,  0.0000,  0.0000) 

Calculating integrals                     ... Electric Dipole (Length)     done (  0.0 sec)
Calculating integrals                     ... Electric Quadrupole (Length) done (  0.0 sec)

Property integrals calculated in   0.0 sec

Maximum memory used throughout the entire PROPINT-calculation: 11.0 MB
------------------------------------------------------------------------------
                           ORCA ORBITAL LOCALIZATION
------------------------------------------------------------------------------

Input orbitals are from                  ... /cluster/projects/nn14654k/ylvaos/basis_set_n_funcs/functionals/lda_x/SiH2/inp/SiH2_lda_x_ccpvqz.gbw
Output orbitals are to                   ... /cluster/projects/nn14654k/ylvaos/basis_set_n_funcs/functionals/lda_x/SiH2/inp/SiH2_lda_x_ccpvqz.loc
Max. number of iterations                ... 128
Localizations seeded randomly            ... on
Convergence tolerance                    ... 1.000e-06
Threshold for strong local MOs           ... 9.500e-01
Threshold for bond MOs                   ... 8.500e-01
Operator                                 ... 0
Orbital range for localization           ... 1 to 7
Localization criterion                   ... NEW-BOYS
Doing the dipole integrals               ... o.k.
Initial value of the localization sum :     4.612251
ITERATION   0 : L=   10.1188914676 DL=  5.51e+00 (AVERGE_DL)=    0.5120751860 
ITERATION   1 : L=   10.4250091217 DL=  3.06e-01 (AVERGE_DL)=    0.1207353765 
ITERATION   2 : L=   10.4308984586 DL=  5.89e-03 (AVERGE_DL)=    0.0167464808 
ITERATION   3 : L=   10.4309763584 DL=  7.79e-05 (AVERGE_DL)=    0.0019260099 
ITERATION   4 : L=   10.4310029801 DL=  2.66e-05 (AVERGE_DL)=    0.0011259199 
ITERATION   5 : L=   10.4310319938 DL=  2.90e-05 (AVERGE_DL)=    0.0011754174 
ITERATION   6 : L=   10.4310611792 DL=  2.92e-05 (AVERGE_DL)=    0.0011788893 
ITERATION   7 : L=   10.4310911253 DL=  2.99e-05 (AVERGE_DL)=    0.0011941542 
ITERATION   8 : L=   10.4311215843 DL=  3.05e-05 (AVERGE_DL)=    0.0012043391 
ITERATION   9 : L=   10.4311525068 DL=  3.09e-05 (AVERGE_DL)=    0.0012134661 
ITERATION  10 : L=   10.4311837851 DL=  3.13e-05 (AVERGE_DL)=    0.0012204256 
ITERATION  11 : L=   10.4312153186 DL=  3.15e-05 (AVERGE_DL)=    0.0012253966 
ITERATION  12 : L=   10.4312469993 DL=  3.17e-05 (AVERGE_DL)=    0.0012282526 
ITERATION  13 : L=   10.4312787170 DL=  3.17e-05 (AVERGE_DL)=    0.0012289697 
ITERATION  14 : L=   10.4313103595 DL=  3.16e-05 (AVERGE_DL)=    0.0012275119 
ITERATION  15 : L=   10.4313418143 DL=  3.15e-05 (AVERGE_DL)=    0.0012238658 
ITERATION  16 : L=   10.4313729716 DL=  3.12e-05 (AVERGE_DL)=    0.0012180642 
ITERATION  17 : L=   10.4314037232 DL=  3.08e-05 (AVERGE_DL)=    0.0012101095 
ITERATION  18 : L=   10.4314339670 DL=  3.02e-05 (AVERGE_DL)=    0.0012000755 
ITERATION  19 : L=   10.4314636051 DL=  2.96e-05 (AVERGE_DL)=    0.0011879963 
ITERATION  20 : L=   10.4314925482 DL=  2.89e-05 (AVERGE_DL)=    0.0011739859 
ITERATION  21 : L=   10.4315207141 DL=  2.82e-05 (AVERGE_DL)=    0.0011581175 
ITERATION  22 : L=   10.4315480296 DL=  2.73e-05 (AVERGE_DL)=    0.0011404992 
ITERATION  23 : L=   10.4315744319 DL=  2.64e-05 (AVERGE_DL)=    0.0011212729 
ITERATION  24 : L=   10.4315998675 DL=  2.54e-05 (AVERGE_DL)=    0.0011005533 
ITERATION  25 : L=   10.4316242925 DL=  2.44e-05 (AVERGE_DL)=    0.0010784690 
ITERATION  26 : L=   10.4316476739 DL=  2.34e-05 (AVERGE_DL)=    0.0010551770 
ITERATION  27 : L=   10.4316699880 DL=  2.23e-05 (AVERGE_DL)=    0.0010308144 
ITERATION  28 : L=   10.4316912207 DL=  2.12e-05 (AVERGE_DL)=    0.0010055252 
ITERATION  29 : L=   10.4317113667 DL=  2.01e-05 (AVERGE_DL)=    0.0009794556 
ITERATION  30 : L=   10.4317304290 DL=  1.91e-05 (AVERGE_DL)=    0.0009527477 
ITERATION  31 : L=   10.4317484180 DL=  1.80e-05 (AVERGE_DL)=    0.0009255375 
ITERATION  32 : L=   10.4317653509 DL=  1.69e-05 (AVERGE_DL)=    0.0008979575 
ITERATION  33 : L=   10.4317812507 DL=  1.59e-05 (AVERGE_DL)=    0.0008701347 
ITERATION  34 : L=   10.4317961457 DL=  1.49e-05 (AVERGE_DL)=    0.0008421897 
ITERATION  35 : L=   10.4318100675 DL=  1.39e-05 (AVERGE_DL)=    0.0008142139 
ITERATION  36 : L=   10.4318230523 DL=  1.30e-05 (AVERGE_DL)=    0.0007863359 
ITERATION  37 : L=   10.4318351384 DL=  1.21e-05 (AVERGE_DL)=    0.0007586339 
ITERATION  38 : L=   10.4318463659 DL=  1.12e-05 (AVERGE_DL)=    0.0007311951 
ITERATION  39 : L=   10.4318567767 DL=  1.04e-05 (AVERGE_DL)=    0.0007040944 
ITERATION  40 : L=   10.4318664133 DL=  9.64e-06 (AVERGE_DL)=    0.0006774132 
ITERATION  41 : L=   10.4318753179 DL=  8.90e-06 (AVERGE_DL)=    0.0006511732 
ITERATION  42 : L=   10.4318835334 DL=  8.22e-06 (AVERGE_DL)=    0.0006254735 
ITERATION  43 : L=   10.4318911016 DL=  7.57e-06 (AVERGE_DL)=    0.0006003255 
ITERATION  44 : L=   10.4318980634 DL=  6.96e-06 (AVERGE_DL)=    0.0005757714 
ITERATION  45 : L=   10.4319044588 DL=  6.40e-06 (AVERGE_DL)=    0.0005518521 
ITERATION  46 : L=   10.4319103262 DL=  5.87e-06 (AVERGE_DL)=    0.0005285868 
ITERATION  47 : L=   10.4319157026 DL=  5.38e-06 (AVERGE_DL)=    0.0005059793 
ITERATION  48 : L=   10.4319206234 DL=  4.92e-06 (AVERGE_DL)=    0.0004840707 
ITERATION  49 : L=   10.4319251223 DL=  4.50e-06 (AVERGE_DL)=    0.0004628566 
ITERATION  50 : L=   10.4319292309 DL=  4.11e-06 (AVERGE_DL)=    0.0004423200 
ITERATION  51 : L=   10.4319329797 DL=  3.75e-06 (AVERGE_DL)=    0.0004225057 
ITERATION  52 : L=   10.4319363967 DL=  3.42e-06 (AVERGE_DL)=    0.0004033842 
ITERATION  53 : L=   10.4319395086 DL=  3.11e-06 (AVERGE_DL)=    0.0003849476 
ITERATION  54 : L=   10.4319423402 DL=  2.83e-06 (AVERGE_DL)=    0.0003672015 
ITERATION  55 : L=   10.4319449146 DL=  2.57e-06 (AVERGE_DL)=    0.0003501287 
ITERATION  56 : L=   10.4319472533 DL=  2.34e-06 (AVERGE_DL)=    0.0003337164 
ITERATION  57 : L=   10.4319493764 DL=  2.12e-06 (AVERGE_DL)=    0.0003179652 
ITERATION  58 : L=   10.4319513025 DL=  1.93e-06 (AVERGE_DL)=    0.0003028512 
ITERATION  59 : L=   10.4319530487 DL=  1.75e-06 (AVERGE_DL)=    0.0002883571 
ITERATION  60 : L=   10.4319546305 DL=  1.58e-06 (AVERGE_DL)=    0.0002744525 
ITERATION  61 : L=   10.4319560628 DL=  1.43e-06 (AVERGE_DL)=    0.0002611577 
ITERATION  62 : L=   10.4319573588 DL=  1.30e-06 (AVERGE_DL)=    0.0002484292 
ITERATION  63 : L=   10.4319585310 DL=  1.17e-06 (AVERGE_DL)=    0.0002362592 
ITERATION  64 : L=   10.4319595905 DL=  1.06e-06 (AVERGE_DL)=    0.0002246130 
ITERATION  65 : L=   10.4319605477 DL=  9.57e-07 (AVERGE_DL)=    0.0002134968 
LOCALIZATION SUM CONVERGED


--------------------------------------------------------------------------------
                    LOCALIZED MOLECULAR ORBITAL COMPOSITIONS
--------------------------------------------------------------------------------

The Mulliken populations for each LMO on each atom are computed
The LMO`s will be ordered according to atom index and type
  (A) Strongly localized MO`s have populations of >=0.950 on one atom
  (B) Two center bond orbitals have populations of >=0.850 on two atoms
  (C) Other MO`s are considered to be `delocalized`

FOUND  -   5 strongly local MO`s
       -   2 two center bond MO`s
       -   0 significantly delocalized MO`s

Rather strongly localized orbitals:
MO   5:   0Si -   1.011658
MO   4:   0Si -   0.997352
MO   3:   0Si -   0.996398
MO   2:   0Si -   0.994116
MO   1:   0Si -   1.000547
Bond-like localized orbitals:
MO   7:   2H  -   0.489127  and   0Si -   0.515069
MO   6:   1H  -   0.489164  and   0Si -   0.515046
Localized MO's were stored in: /cluster/projects/nn14654k/ylvaos/basis_set_n_funcs/functionals/lda_x/SiH2/inp/SiH2_lda_x_ccpvqz.loc

-------------------------   --------------------
FINAL SINGLE POINT ENERGY      -288.277652217938
-------------------------   --------------------



           ************************************************************
           *        Program running with 8 parallel MPI-processes     *
           *              working on a common directory               *
           ************************************************************

------------------------------------------------------------------------------
                              ORCA PROPERTY CALCULATIONS
------------------------------------------------------------------------------

GBWName                                 ... /cluster/projects/nn14654k/ylvaos/basis_set_n_funcs/functionals/lda_x/SiH2/inp/SiH2_lda_x_ccpvqz.gbw
Number of atoms                         ...      3
Number of basis functions               ...    147
Max core memory                         ...   4096 MB

Electric properties:
Dipole moment                           ... YES
Quadrupole moment                       ... YES
Static polarizability (Dipole/Dipole)   ...  NO
Static polarizability (Dipole/Quad.)    ...  NO
Static polarizability (Quad./Quad.)     ...  NO
Static polarizability (Velocity)        ...  NO
Static hyperpolarizability              ...  NO

Atomic electric properties:
Dipole moment                           ...  NO
Quadrupole moment                       ...  NO
Static polarizability                   ...  NO

Choice of electric origin               ... Center of mass
Position of electric origin             ...     0.000000     0.095755    -0.092471

General magnetic properties:
Magnetizability                         ...  NO

EPR properties:
g-Tensor (aka g-matrix)                 ...  NO
Zero-Field splitting spin-orbit         ...  NO
Zero-field splitting spin-spin          ...  NO
Hyperfine couplings                     ...  NO (   0 nuclei)
Quadrupole couplings                    ...  NO (   0 nuclei)
Contact density                         ...  NO (   0 nuclei)

NMR properties:
Chemical shifts                         ...  NO (   0 nuclei)
Spin-rotation constants                 ...  NO (   0 nuclei)
Spin-spin couplings                     ...  NO (   0 nuclei,    0 pairs)

Choice of magnetic origin               ... GIAO
Position of magnetic origin             ...     0.000000     0.000000     0.000000

Properties with geometric perturbations:
SCF Hessian                             ...  NO
IR spectrum                             ...  NO
VCD spectrum                            ...  NO
X-ray spectroscopy properties:
SCF XES/XAS/RIXS spectra                ...  NO

SCF SOC stabilization energy            ...  NO
Diagonal Born-Oppenheimer correction    ...  NO

-------------
DIPOLE MOMENT
-------------

Method             : SCF
Type of density    : Electron Density
Multiplicity       :   1
Irrep              :   0
Energy             :  -288.2776522179379981 Eh
Basis              : AO
                                X                 Y                 Z
Electronic contribution:     -0.000000000      -1.241771118       1.199162167
Nuclear contribution   :      0.000000000       1.327457389      -1.281928022
                        -----------------------------------------
Total Dipole Moment    :     -0.000000000       0.085686271      -0.082765855
                        -----------------------------------------
Magnitude (a.u.)       :      0.119131540
Magnitude (Debye)      :      0.302808309



--------------------
Rotational spectrum 
--------------------
 
Rotational constants in cm-1:             8.101050             7.049111             3.769280 
Rotational constants in MHz :        242863.361200        211327.036298        113000.174884 

Dipole components along the rotational axes: 
x,y,z [a.u.] :     0.000001    -0.119132    -0.000000 
x,y,z [Debye]:     0.000002    -0.302808    -0.000000 

 

Dipole moment calculation done in   0.0 sec 

-----------------
QUADRUPOLE MOMENT
-----------------

Method             : SCF
Type of density    : Electron Density
Multiplicity       :   1
Irrep              :   0
Energy             :  -288.2776522179379981 Eh
Basis              : AO

                XX              YY              ZZ              XY              XZ              YZ
  NUC        0.000000000     7.776008003     7.822723490     0.000000000     0.000000000     0.672490579
  EL        -9.661903594   -20.875145589   -20.869517534     0.000000002     0.000000003     0.077244664
  TOT       -9.661903594   -13.099137586   -13.046794044     0.000000002     0.000000003     0.749735243 (a.u.)
           -12.995590772   -17.618788044   -17.548384190     0.000000002     0.000000005     1.008419542 (Buckingham)

diagonalized tensor:
           -13.823157721   -12.322773909    -9.661903594 (a.u.)
           -18.592619887   -16.574552347   -12.995590772 (Buckingham)
            -7.615096656    -1.560894035     9.175990691 (traceless form in Buckingham)

            -0.000000000    -0.000000001     1.000000000
            -0.719335377     0.694662951     0.000000001
             0.694662951     0.719335377     0.000000001
        
Isotropic quadrupole :   -11.935945075

Quadrupole moment calculation done in   0.0 sec (  0.0 sec for integrals)

Maximum memory used throughout the entire PROP-calculation: 5.6 MB

--------------------------------
SUGGESTED CITATIONS FOR THIS RUN
--------------------------------

Below you find a list of papers that are relevant to this ORCA run
We neither can nor want to force you to cite these papers, but we appreciate if you do
You receive ORCA, which is the product of decades of hard work by many enthusiastic individuals, for free
The only thing we kindly ask in return is that you cite our papers,
We deeply appreciate it, if you show your appreciation for ORCA by not just citing the generic ORCA reference.

Please note that relegating all ORCA citations to the supporting information does *not* help us.
SI sections are not indexed - citations you put there will not count into any citation statistics
But we need these citations in order to attract the funding resources that allow us to do what we are doing

Therefore, if you are a happy ORCA user, please consider citing a few of the papers listed below in the main body of your paper

In addition to the list printed below, the program has created the file /cluster/projects/nn14654k/ylvaos/basis_set_n_funcs/functionals/lda_x/SiH2/inp/SiH2_lda_x_ccpvqz.bibtex that contains the list in bibtex format
You can import this file easily into all common literature databanks and citation aid programs

It goes without saying that in many instances, there are alternative algorithms to achieve similar
results as the ones you have gotten from ORCA. It is, of course, also the case that in some instances
ORCA just re-implements algorithms worked out by others. We are fully aware of that and we are also
fully appreciative of our colleagues work. Hence this citation list should not be read as indicating
that the listed papers, which are focused on our own work, are the only ones worth citing. It simply
meant to make it easier for users to cite ORCA specific papers. It is not a substitute for doing your
own literature research and citing the relevant literature in a scientifically appropriate manner.

List of essential papers. We consider these as the minimum necessary citations

  1. Neese, F.
     Software update: the ORCA program system, version 6.0
     WIRES Comput. Molec. Sci. 2025 15(1), e70019
     doi.org/10.1002/wcms.70019

List of papers to cite with high priority. The work reported in these papers was absolutely
necessary for this run to complete.
Our perspective: the developers of density functionals and basis sets usually get cited in chemistry papers
Good! But without the algorithms to do something with them, the functionals or basis sets would not do anything.
Hence, in our opinion, the algorithm design and method developments papers are equally worthy of getting cited

  1. Lehtola, S.; Steigemann, C.; Oliveira, M.; Marques, M.
     Recent developments in Libxc - A comprehensive library of functionals for density functional theory
     Software X 2018 7 , 
     doi.org/10.1016/j.softx.2017.11.002
  2. Neese, F.
     The SHARK Integral Generation and Digestion System
     J. Comp. Chem. 2022 44(3), 381
     doi.org/10.1002/jcc.26942

List of suggested additional citations. These are papers that are important in the 'surrounding' of 
of this run, or papers that preceded the highly important papers. If you like your results we are grateful for a citation.

  1. Neese, F.
     The ORCA program system
     WIRES Comput. Molec. Sci. 2012 2(1), 73-78
     doi.org/10.1002/wcms.81
  2. Neese, F.
     Software update: the ORCA program system, version 4.0
     WIRES Comput. Molec. Sci. 2018 8(1), 1-6
     doi.org/10.1002/wcms.1327
  3. Neese, F.; Wennmohs, F.; Becker, U.; Riplinger, C.
     The ORCA quantum chemistry program package
     J. Chem. Phys. 2020 152(22), 224108
     doi.org/10.1063/5.0004608
  4. Neese, F.
     Software update: The ORCA program system—Version 5.0
     WIRES Comput. Molec. Sci. 2022 12(1), e1606
     doi.org/10.1002/wcms.1606

List of optional additional citations

  1. Neese, F.
     Approximate second-order SCF convergence for spin unrestricted wavefunctions
     Chem. Phys. Lett. 2000 325(1-3), 93-98
     doi.org/10.1016/s0009-2614(00)00662-x

Timings for individual modules:

Sum of individual times          ...        3.902 sec (=   0.065 min)
Startup calculation              ...        0.620 sec (=   0.010 min)  15.9 %
SCF iterations                   ...        2.758 sec (=   0.046 min)  70.7 %
Property integrals               ...        0.269 sec (=   0.004 min)   6.9 %
Property calculations            ...        0.249 sec (=   0.004 min)   6.4 %
Orbital localization             ...        0.006 sec (=   0.000 min)   0.2 %
                             ****ORCA TERMINATED NORMALLY****
TOTAL RUN TIME: 0 days 0 hours 0 minutes 4 seconds 897 msec
