
                                 *****************
                                 * O   R   C   A *
                                 *****************

                                            #,                                       
                                            ###                                      
                                            ####                                     
                                            #####                                    
                                            ######                                   
                                           ########,                                 
                                     ,,################,,,,,                         
                               ,,#################################,,                 
                          ,,##########################################,,             
                       ,#########################################, ''#####,          
                    ,#############################################,,   '####,        
                  ,##################################################,,,,####,       
                ,###########''''           ''''###############################       
              ,#####''   ,,,,##########,,,,          '''####'''          '####       
            ,##' ,,,,###########################,,,                        '##       
           ' ,,###''''                  '''############,,,                           
         ,,##''                                '''############,,,,        ,,,,,,###''
      ,#''                                            '''#######################'''  
     '                                                          ''''####''''         
             ,#######,   #######,   ,#######,      ##                                
            ,#'     '#,  ##    ##  ,#'     '#,    #''#        ,####,    ,#,          
            ##       ##  ##   ,#'  ##            #'  '#       #'       ,# #          
            ##       ##  #######   ##           ,######,      #####,      #          
            '#,     ,#'  ##    ##  '#,     ,#' ,#      #,     #,   #      #          
             '#######'   ##     ##  '#######'  #'      '#     '####' #    #          



                #########################################################
                #                        -***-                          #
                #          Department of theory and spectroscopy        #
                #                                                       #
                #                      Frank Neese                      #
                #                                                       #
                #     Directorship, Architecture, Infrastructure        #
                #                    SHARK, DRIVERS                     #
                #        Core code/Algorithms in most modules           #
                #                                                       #
                #        Max Planck Institute fuer Kohlenforschung      #
                #                Kaiser Wilhelm Platz 1                 #
                #                 D-45470 Muelheim/Ruhr                 #
                #                      Germany                          #
                #                                                       #
                #                  All rights reserved                  #
                #                        -***-                          #
                #########################################################


                         Program Version 6.1.1  -  RELEASE   -
                                (GIT: $487d211c$)
                          ($2025-11-21 10:33:24 +0100$)


 With contributions from (in alphabetic order):
[Max-Planck-Institut fuer Kohlenforschung]                               
  Daniel Aravena         : Magnetic Suceptibility                        
  Michael Atanasov       : Ab Initio Ligand Field Theory (pilot matlab implementation)
  Alexander A. Auer      : GIAO ZORA, VPT2 properties, NMR spectrum      
  Ute Becker             : All parallelization in ORCA, NUMFREQ, NUMCALC 
  Giovanni Bistoni       : ED, misc. LED, open-shell LED, HFLD           
  Dmytro Bykov           : pre 5.0 version of the SCF Hessian            
  Marcos Casanova-Páez   : Triplet and SCS-CIS(D). UHF-(DLPNO)-IP/EA/STEOM-CCSD. UHF-CVS-IP/STEOM-CCSD   
  Vijay G. Chilkuri      : MRCI spin determinant printing, contributions to CSF-ICE 
  Pauline Colinet        : FMM embedding                                 
  Dipayan Datta          : RHF DLPNO-CCSD density                        
  Achintya Kumar Dutta   : EOM-CC, STEOM-CC                              
  Nicolas Foglia         : Exact transition moments, OPA infrastructure, MCD improvements    
  Dmitry Ganyushin       : Spin-Orbit,Spin-Spin,Magnetic field MRCI      
  Miquel Garcia-Rates    : C-PCM and meta-GGA Hessian, CCSD/C-PCM, Gaussian charge scheme 
  Tiago L. C. Gouveia    : GS-ROHF, GS-ROCIS                             
  Yang Guo               : DLPNO-NEVPT2, F12-NEVPT2, CIM, IAO-localization        
  Andreas Hansen         : Spin unrestricted coupled pair/coupled cluster methods 
  Ingolf Harden          : AUTO-CI MPn and infrastructure                
  Benjamin Helmich-Paris : MC-RPA, TRAH-(SCF,CASSCF), AVAS, COSX integrals, SCF dyn. polar., MC-PDFT, srDFT 
  Lee Huntington         : MR-EOM, pCC                                   
  Robert Izsak           : Overlap fitted RIJCOSX, COSX-SCS-MP3, EOM     
  Riya Kayal             : Wick's Theorem for AUTO-CI, AUTO-CI UHF-CCSDT 
  Emily Kempfer          : AUTO-CI RHF CISDT and CCSDT, approximate NEVPT4
  Christian Kollmar      : KDIIS, OOCD, Brueckner-CCSD(T), CCSD density, CASPT2, CASPT2-K, improved NEVPT2 
  Axel Koslowski         : Symmetry handling                             
  Simone Kossmann        : meta-GGA functionals, TD-DFT gradient, OOMP2, (MP2 Hessian; deprecated post 5.0) 
  Lucas Lang             : DCDCAS, Hyperfine gauge corrections, ICE-SOC+SSC
  Marvin Lechner         : AUTO-CI (C++ implementation), FIC-MRCC        
  Spencer Leger          : CASSCF response                               
  Dagmar Lenk            : GEPOL surface, SMD, ORCA-2-JSON               
  Dimitrios Liakos       : Extrapolation schemes; Compound Job, Property file
  Dimitrios Manganas     : Further ROCIS development; embedding schemes. LFT, Crystal Embedding 
  Dimitrios Pantazis     : SARC Basis sets                               
  Anastasios Papadopoulos: AUTO-CI, single reference methods and gradients 
  Taras Petrenko         : pre 6.0 DFT Hessian and TD-DFT gradient,  ECA, NRVS 
  Petra Pikulova         : Analytic Raman intensities                    
  Peter Pinski           : DLPNO-MP2, DLPNO-MP2 Gradient                 
  Shashank Vittal Rao    : ES-AILFT, MagRelax                            
  Christoph Reimann      : Effective Core Potentials                     
  Marius Retegan         : Local ZFS, SOC                                
  Christoph Riplinger    : Optimizer, TS searches, QM/MM, DLPNO-CCSD(T), (RO)-DLPNO pert. Triples 
  Michael Roemelt        : Original ROCIS implementation, recursive CI coupling coefficients
  Masaaki Saitow         : Open-shell DLPNO-CCSD energy and density      
  Barbara Sandhoefer     : DKH picture change effects                    
  Yorick L. A. Schmerwitz: GMF and freeze-and-release deltaSCF, NEB S-IDPP initial path                    
  Kantharuban Sivalingam : CASSCF convergence/infrastructure, NEVPT2, NEVPT3, NEVPT4(SD), FIC-MRCI and CEPA variants
  Bernardo de Souza      : ESD, SOC TD-DFT                               
  Georgi L. Stoychev     : AutoAux, RI-MP2 NMR, DLPNO-MP2 response, X2C  
  Van Anh Tran           : RI-MP2 g-tensors                              
  Willem Van den Heuvel  : Paramagnetic NMR                              
  Zikuan Wang            : NOTCH, Electric field optimization            
  Frank Wennmohs         : Technical directorship and infrastructure     
  Hang Xu                : AUTO-CI-Response properties                   
                                                                         
[FACCTs GmbH]                                                            
  Markus Bursch, Nicolas Foglia, Miquel Garcia-Rates, Ingolf Harden, Hagen Neugebauer, Anastasios Papadopoulos, 
  Christoph Riplinger, Bernardo de Souza, Georgi L. Stoychev                                                    
                                                                 
  APM, various basis sets, CI-OPT, improved COSX, DLPNO-Multilevel,           
  DOCKER, DRACO, updates on ESD, Fragmentator, GOAT, IRC, LR-CPCM, L-BFGS, MBIS, meta-GGA TD-DFT gradient, ML-optimized integration grids, 
  MM, NACMEs, nearIR, NEB, NEB-TS, NL-DFT gradient (VV10), 2- and 3-layer-ONIOM, interface openCOSMO-RS, QMMM,   
  Crystal-QMMM, RESP, rigid body optimization, SF, symmetry and pop. for TD-DFT, various functionals, SOLVATOR                                   
                                                                         
[Other institutions]                                                     
  V. Asgeirsson          : NEB                                           
  Christoph Bannwarth    : sTDA-DFT, sTD-DFT, PBEh-3c, B97-3c, D3        
  Giovanni Bistoni       : ETS/NOCV, ADLD/ADEX, COVALED                  
  Martin Brehm           : Molecular dynamics                            
  Ronald Cardenas        : ETS/NOCV                                      
  Martina Colucci        : COVALED                                       
  Sebastian Ehlert       : rSCAN, r2SCAN, r2SCAN-3c, D4, dhf basis sets  
  Marvin Friede          : D4 for Fr, Ra, Ac-Lr                          
  Lars Goerigk           : TD-DFT with DH, B97 family of functionals     
  Stefan Grimme          : VdW corrections, initial TS optimization, DFT functionals, gCP, sTDA/sTD-DF 
  Waldemar Hujo          : DFT-NL                                        
  H. Jonsson             : NEB                                           
  Holger Kruse           : gCP                                           
  Marcel Mueller         : wB97X-3c, vDZP basis set                      
  Hagen Neugebauer       : wr2SCAN, Native XTB                           
  Gianluca Regni         : ADLD/ADEX                                     
  Tobias Risthaus        : pre 6.0 range-separated hybrid DFT and stability analysis
  Lukas Wittmann         : regularized MP2, r2SCAN double-hybrids, wr2SCAN        
                                                                         
We gratefully acknowledge several colleagues who have allowed us to      
interface, adapt or use parts of their codes:                            
  Ed Valeev, F. Pavosevic, A. Kumar             : LibInt (2-el integral package), F12 methods 
  Garnet Chan, S. Sharma, J. Yang, R. Olivares  : DMRG                   
  Ulf Ekstrom                                   : XCFun DFT Library      
  Mihaly Kallay                                 : mrcc  (arbitrary order and MRCC methods)
  Frank Weinhold                                : gennbo (NPA and NBO analysis)           
  Simon Mueller                                 : openCOSMO-RS                            
  Christopher J. Cramer and Donald G. Truhlar   : smd solvation model                     
  S Lehtola, MJT Oliveira, MAL Marques          : LibXC Library                           
  Liviu Ungur et al                             : ANISO software                          


 Your calculation uses the libint2 library for the computation of 2-el integrals
 For citations please refer to: http://libint.valeyev.net

 Your ORCA version has been built with support for libXC version: 7.0.0
 For citations please refer to: https://libxc.gitlab.io

 This ORCA versions uses:
   CBLAS   interface :  Fast vector & matrix operations
   LAPACKE interface :  Fast linear algebra routines
   SCALAPACK package :  Parallel linear algebra routines
   Shared memory     :  Shared parallel matrices
   BLAS/LAPACK       :  OpenBLAS 0.3.29  USE64BITINT DYNAMIC_ARCH NO_AFFINITY Cooperlake SINGLE_THREADED
        Core in use  :  Cooperlake
   Copyright (c) 2011-2014, The OpenBLAS Project


  ***********************************
  * Starting time: Wed May 20 12:41:47 2026
  * Host name:     c1-5
  * Process ID:    1010973
  * Working dir.:  /cluster/projects/nn14654k/ylvaos/basis_set_n_funcs/functionals/lda_x/SiH2/out
  ***********************************

Using LibXC functional ID   1 : Slater exchange
[ 1]  P. A. M. Dirac.,  Math. Proc. Cambridge Philos. Soc. 26, 376 (1930)
[ 2]  F. Bloch.,  Z. Phys. 57, 545 (1929)
Using LibXC functional ID   1 : Slater exchange
[ 1]  P. A. M. Dirac.,  Math. Proc. Cambridge Philos. Soc. 26, 376 (1930)
[ 2]  F. Bloch.,  Z. Phys. 57, 545 (1929)
Your calculation utilizes LibXC
by S. Lehtola, C. Steigemann, M. J. T. Oliveira & M. A. L. Marques
Please cite in your paper:
Lehtola, S.; Steigemann, C.; Oliveira, M.J.T.; Marques, M. A. L. Software X, 7, (2018), 1.
   

================================================================================

----- Orbital basis set information -----
Your calculation utilizes the basis: cc-pVDZ 
       H, B-Ne : Obtained from the ccRepo (grant-hill.group.shef.ac.uk/ccrepo) Feb. 2017
                 T. H. Dunning, Jr., J. Chem. Phys. 90, 1007 (1989)
            He : Obtained from the ccRepo (grant-hill.group.shef.ac.uk/ccrepo) Feb. 2017
                 D. E. Woon, T. H. Dunning, Jr., J. Chem. Phys. 100, 2975 (1994)
  Li-Be, Na-Mg : Obtained from the ccRepo (grant-hill.group.shef.ac.uk/ccrepo) Feb. 2017
                 B. P. Prascher, D. E. Woon, K. A. Peterson, T. H. Dunning, Jr., A. K. Wilson, Theor. Chem. Acc. 128, 69 (2011)
         Al-Ar : Obtained from the ccRepo (grant-hill.group.shef.ac.uk/ccrepo) Feb. 2017
                 D. E. Woon, T. H. Dunning, Jr., J. Chem. Phys. 98, 1358 (1993)
            Ca : Obtained from the Peterson Research Group Website (tyr0.chem.wsu.edu/~kipeters) Feb. 2017
                 J. Koput, K. A. Peterson, J. Phys. Chem. 106, 9595 (2002)
         Sc-Zn : Obtained from the ccRepo (grant-hill.group.shef.ac.uk/ccrepo) Feb. 2017
                 N. B. Balabanov, K. A. Peterson, J. Chem. Phys. 123, 064107 (2005)
                 N. B. Balabanov, K. A. Peterson, J. Chem. Phys. 125, 074110 (2006)
         Ga-Kr : Obtained from the ccRepo (grant-hill.group.shef.ac.uk/ccrepo) Feb. 2017
                 A. K. Wilson, D. E. Woon, K. A. Peterson, T. H. Dunning, Jr., J. Chem. Phys. 110, 7667 (1999)

================================================================================
                                        WARNINGS
                       Please study these warnings very carefully!
================================================================================


================================================================================
                                       INPUT FILE
================================================================================
NAME = /cluster/projects/nn14654k/ylvaos/basis_set_n_funcs/functionals/lda_x/SiH2/inp/SiH2_lda_x_ccpvdz.inp
|  1> ! dft cc-pVDZ TightSCF
|  2> %pal nprocs 8 end
|  3> 
|  4> %loc
|  5>   LocMet NewBoys
|  6>   Occ true
|  7> end
|  8> 
|  9> %method
| 10>   exchange lda_x
| 11>   correlation None
| 12> end
| 13> 
| 14> %elprop
| 15>   Dipole true
| 16>   Quadrupole true
| 17> end
| 18> 
| 19> * xyz 0 1
| 20> Si    0.000000000000   0.000000000000   0.000000000000
| 21> H    0.000000000000   0.000000000000  -1.514100000000
| 22> H    0.000000000000   1.513200000000   0.052800000000
| 23> *
| 24> 
| 25> 
| 26>                          ****END OF INPUT****
================================================================================

                       ****************************
                       * Single Point Calculation *
                       ****************************

---------------------------------
CARTESIAN COORDINATES (ANGSTROEM)
---------------------------------
  Si     0.000000    0.000000    0.000000
  H      0.000000    0.000000   -1.514100
  H      0.000000    1.513200    0.052800

----------------------------
CARTESIAN COORDINATES (A.U.)
----------------------------
  NO LB      ZA    FRAG     MASS         X           Y           Z
   0 Si   14.0000    0    28.086    0.000000    0.000000    0.000000
   1 H     1.0000    0     1.008    0.000000    0.000000   -2.861234
   2 H     1.0000    0     1.008    0.000000    2.859534    0.099778

--------------------------------
INTERNAL COORDINATES (ANGSTROEM)
--------------------------------
 Si     0   0   0     0.000000000000     0.00000000     0.00000000
 H      1   0   0     1.514100000000     0.00000000     0.00000000
 H      1   2   0     1.514120893456    91.99840755     0.00000000

---------------------------
INTERNAL COORDINATES (A.U.)
---------------------------
 Si     0   0   0     0.000000000000     0.00000000     0.00000000
 H      1   0   0     2.861234339370     0.00000000     0.00000000
 H      1   2   0     2.861273822280    91.99840755     0.00000000

---------------------
BASIS SET INFORMATION
---------------------
There are 2 groups of distinct atoms

 Group   1 Type Si  : 34s15p1d contracted to 4s3p1d pattern {1111111/771/1}
 Group   2 Type H   : 4s1p contracted to 2s1p pattern {31/1}

Atom   0Si   basis set group =>   1
Atom   1H    basis set group =>   2
Atom   2H    basis set group =>   2


           ************************************************************
           *        Program running with 8 parallel MPI-processes     *
           *              working on a common directory               *
           ************************************************************
------------------------------------------------------------------------------
                             ORCA STARTUP CALCULATIONS
------------------------------------------------------------------------------
------------------------------------------------------------------------------
                   ___                                                        
                  /   \      - P O W E R E D   B Y -                         
                 /     \                                                     
                 |  |  |   _    _      __       _____    __    __             
                 |  |  |  | |  | |    /  \     |  _  \  |  |  /  |          
                  \  \/   | |  | |   /    \    | | | |  |  | /  /          
                 / \  \   | |__| |  /  /\  \   | |_| |  |  |/  /          
                |  |  |   |  __  | /  /__\  \  |    /   |      \           
                |  |  |   | |  | | |   __   |  |    \   |  |\   \          
                \     /   | |  | | |  |  |  |  | |\  \  |  | \   \       
                 \___/    |_|  |_| |__|  |__|  |_| \__\ |__|  \__/        
                                                                              
                      - O R C A' S   B I G   F R I E N D -                    
                                      &                                       
                       - I N T E G R A L  F E E D E R -                       
                                                                              
 v1 FN, 2020, v2 2021, v3 2022-2024                                           
------------------------------------------------------------------------------


----------------------
SHARK INTEGRAL PACKAGE
----------------------

Number of atoms                             ...      3
Number of basis functions                   ...     51
Number of shells                            ...     27
Maximum angular momentum                    ...      2
Integral batch strategy                     ... SHARK/LIBINT Hybrid
RI-J (if used) integral strategy            ... SPLIT-RIJ (Revised 2003 algorithm where possible)
Printlevel                                  ...      1
Contraction scheme used                     ... PARTIAL GENERAL contraction
Prescreening option                         ... SCHWARTZ
   Thresh                                   ... 2.500e-11
   Tcut                                     ... 2.500e-12
   Tpresel                                  ... 2.500e-12 
Coulomb Range Separation                    ... NOT USED
Exchange Range Separation                   ... NOT USED
Multipole approximations                    ... NOT USED
Finite Nucleus Model                        ... NOT USED
CABS basis                                  ... NOT available
Auxiliary Coulomb fitting basis             ... NOT available
Auxiliary J/K fitting basis                 ... NOT available
Auxiliary Correlation fitting basis         ... NOT available
Auxiliary 'external' fitting basis          ... NOT available

Checking pre-screening integrals            ... done (  0.0 sec) Dimension = 27
Save PGC pre-screening integrals            ... done (  0.0 sec) Dimension = 27
Calculate PGC overlap integrals             ... done (  0.0 sec) Dimension = 14
Calculating pre-screening integrals (ORCA)  ... done (  0.0 sec) Dimension = 14
Shell pair information
Shell pair cut-off parameter TPreSel        ...   2.5e-12
Total number of shell pairs                 ...       378
Shell pairs after pre-screening             ...       378
Total number of primitive shell pairs       ...       502
Primitive shell pairs kept                  ...       475
          la=0 lb=0:    136 shell pairs
          la=1 lb=0:    160 shell pairs
          la=1 lb=1:     55 shell pairs
          la=2 lb=0:     16 shell pairs
          la=2 lb=1:     10 shell pairs
          la=2 lb=2:      1 shell pairs

Checking whether 4 symmetric matrices of dimension 51 fit in memory
:Max Core in MB      =   4096.00
 MB in use           =      1.56
 MB left             =   4094.44
 MB needed           =      0.04
 Data fit in memory  = YES
Calculating Nuclear repulsion               ... done (  0.0 sec) ENN=     10.028851096195 Eh

Diagonalization of the overlap matrix:
Smallest eigenvalue                        ... 2.153e-02
Time for diagonalization                   ...    0.000 sec
Threshold for overlap eigenvalues          ... 1.000e-07
Number of eigenvalues below threshold      ... 0
Time for construction of square roots      ...    0.002 sec
Total time needed                          ...    0.005 sec

-------------------
DFT GRID GENERATION
-------------------

General Integration Accuracy     IntAcc      ... 4.388
Radial Grid Type                 RadialGrid  ... OptM3 with GC (2021)
Angular Grid (max. ang.)         AngularGrid ... 4 (Lebedev-302)
Angular grid pruning method      GridPruning ... 4 (adaptive)
Weight generation scheme         WeightScheme... mBecke (2022)
Basis function cutoff            BFCut       ... 1.0000e-11
Integration weight cutoff        WCut        ... 1.0000e-14
Partially contracted basis set               ... off
Rotationally invariant grid construction     ... off
Angular grids for H and He will be reduced by one unit

Total number of grid points                  ...    13986
Total number of batches                      ...      220
Average number of points per batch           ...       63
Average number of grid points per atom       ...     4662

---------------------
SHARK GRID GENERATION
---------------------

General Integration Accuracy     IntAcc      ... 4.388
Radial Grid Type                 RadialGrid  ... OptM3 with GC (2021)
Angular Grid (max. ang.)         AngularGrid ... 4 (Lebedev-302)
Angular grid pruning method      GridPruning ... 4 (adaptive)
Weight generation scheme         WeightScheme... mBecke (2022)
Basis function cutoff            BFCut       ... 1.0000e-11
Integration weight cutoff        WCut        ... 1.0000e-14
Partially contracted basis set               ... off
Rotationally invariant grid construction     ... off
Angular grids for H and He will be reduced by one unit
Core-polarized basis detected: some atoms will have their core
                               angular grid increased.
Steep s-basis detected: some atoms will have their radial
                        grid points doubled.

Total number of grid points                  ...    25951
Total number of batches                      ...      407
Average number of points per batch           ...       63
Average number of grid points per atom       ...     8650
Grids setup in   0.2 sec
Initializing property integral containers    ... done (  0.0 sec)

SHARK setup successfully completed in   0.3 seconds

Maximum memory used throughout the entire STARTUP-calculation: 24.8 MB


           ************************************************************
           *        Program running with 8 parallel MPI-processes     *
           *              working on a common directory               *
           ************************************************************
-------------------------------------------------------------------------------
                                 ORCA GUESS
                   Start orbitals & Density for SCF / CASSCF
-------------------------------------------------------------------------------

------------
SCF SETTINGS
------------
Hamiltonian:
 Density Functional     Method          .... DFT(GTOs)
  Functional kind                       .... Exchange
  Functional name                       .... Slater exchange
  Functional family                     .... LDA
  Functional refs                              
    [ 0] P. A. M. Dirac.,  Math. Proc. Cambridge Philos. Soc. 26, 376 (1930), doi: 10.1017/S0305004100016108
    [ 1] F. Bloch.,  Z. Phys. 57, 545 (1929), doi: 10.1007/BF01340281
  Functional external parameters        .... 0
 Correlation Functional Correlation     .... No Correlation
 Gradients option       PostSCFGGA      .... off


General Settings:
 Integral files         IntName         .... /cluster/projects/nn14654k/ylvaos/basis_set_n_funcs/functionals/lda_x/SiH2/inp/SiH2_lda_x_ccpvdz
 Hartree-Fock type      HFTyp           .... RHF
 Total Charge           Charge          ....    0
 Multiplicity           Mult            ....    1
 Number of Electrons    NEL             ....   16
 Basis Dimension        Dim             ....   28
 Nuclear Repulsion      ENuc            ....     10.0288510962 Eh

Convergence Acceleration:
 AO-DIIS                CNVDIIS         .... on
   Start iteration      DIISMaxIt       ....    12
   Startup error        DIISStart       ....  0.200000
   # of expansion vecs  DIISMaxEq       ....     5
   Bias factor          DIISBfac        ....   1.050
   Max. coefficient     DIISMaxC        ....  10.000
 MO-DIIS                CNVKDIIS        .... off
 Trust-Rad. Augm. Hess. CNVTRAH         .... auto
   Auto Start mean grad. ratio tolernc. ....  1.125000
   Auto Start start iteration           ....    50
   Auto Start num. interpolation iter.  ....    10
   Max. Number of Micro iterations      ....    24
   Max. Number of Macro iterations      .... Maxiter - #DIIS iter
   Number of Davidson start vectors     ....     2
   Converg. threshold    (grad. norm)   ....   1.000e-05
   Grad. Scal. Fac. for Micro threshold ....   0.100
   Minimum threshold for Micro iter.    ....   1.000e-02
   NR start threshold (gradient norm)   ....   1.000e-04
   Initial trust radius                 ....   0.400
   Minimum AH scaling param. (alpha)    ....   1.000
   Maximum AH scaling param. (alpha)    .... 1000.000
   Quad. conv. algorithm                .... NR
   White noise on init. David. guess    .... on
   Maximum white noise                  ....   0.010
   Pseudo random numbers                .... off
   Inactive MOs                         .... canonical
   Orbital update algorithm             .... Taylor
   Preconditioner                       .... Diag
   Full preconditioner red. dimension   ....   250
 SOSCF                 CNVSOSCF           .... on
   Start iteration     SOSCFMaxIt         ....   150
   Startup grad/error  SOSCFStart         ....  0.003300
   Hessian update      SOSCFHessUp        .... L-BFGS
   Autom. constraints  SOSCFAutoConstrain .... off
 Level Shifting         CNVShift        .... on
   Level shift para.    LevelShift      ....    0.2500
   Turn off err/grad.   ShiftErr        ....    0.0010
 Zerner damping         CNVZerner       .... off
 Static damping         CNVDamp         .... on
   Fraction old density DampFac         ....    0.7000
   Max. Damping (<1)    DampMax         ....    0.9800
   Min. Damping (>=0)   DampMin         ....    0.0000
   Turn off err/grad.   DampErr         ....    0.1000

SCF Procedure:
 Maximum # iterations   MaxIter         ....   125
 SCF integral mode      SCFMode         .... Direct
   Integral package                     .... SHARK and LIBINT hybrid scheme
 Reset frequency        DirectResetFreq ....    20
 Integral Threshold     Thresh          ....  2.500e-11 Eh
 Primitive CutOff       TCut            ....  2.500e-12 Eh

Convergence Tolerance:
 Convergence Check Mode ConvCheckMode   .... Total+1el-Energy
 Convergence forced     ConvForced      .... 0
 Energy Change          TolE            ....  1.000e-08 Eh
 1-El. energy change                    ....  1.000e-05 Eh
 Orbital Gradient       TolG            ....  1.000e-05
 Orbital Rotation angle TolX            ....  1.000e-05
 DIIS Error             TolErr          ....  5.000e-07

------------------------------
INITIAL GUESS: MODEL POTENTIAL
------------------------------
Loading Hartree-Fock densities                     ... done
Calculating cut-offs                               ... done
Initializing the effective Hamiltonian             ... done
Setting up the integral package (SHARK)            ... done
Starting the Coulomb interaction                   ... done (   0.0 sec)
Making the grid                                    ... done (   0.0 sec)
Mapping shells                                     ... done
Starting the XC term evaluation                    ... done (   0.0 sec)
  promolecular density results
     # of electrons  =     16.000308000
     EX              =    -19.119471475
     EC              =      0.000000000
     EX+EC           =    -19.119471475
Transforming the Hamiltonian                       ... done (   0.0 sec)
Diagonalizing the Hamiltonian                      ... done (   0.0 sec)
Back transforming the eigenvectors                 ... done (   0.0 sec)
Now organizing SCF variables                       ... done
                      ------------------
                      INITIAL GUESS DONE (   0.0 sec)
                      ------------------
             **** ENERGY FILE WAS UPDATED (/cluster/projects/nn14654k/ylvaos/basis_set_n_funcs/functionals/lda_x/SiH2/inp/SiH2_lda_x_ccpvdz.en.tmp) ****
Finished Guess after   0.1 sec
Maximum memory used throughout the entire GUESS-calculation: 3.8 MB


           ************************************************************
           *        Program running with 8 parallel MPI-processes     *
           *              working on a common directory               *
           ************************************************************

-------------------------------------------------------------------------------------------
                                      ORCA LEAN-SCF
                              memory conserving SCF solver
-------------------------------------------------------------------------------------------

----------------------------------------D-I-I-S--------------------------------------------
Iteration    Energy (Eh)           Delta-E    RMSDP     MaxDP     DIISErr   Damp  Time(sec)
-------------------------------------------------------------------------------------------
               ***  Starting incremental Fock matrix formation  ***
    1    -288.2466998966957590     0.00e+00  7.02e-03  2.64e-02  5.49e-02  0.700   0.1
Warning: op=0 Small HOMO/LUMO gap (   0.049) - skipping pre-diagonalization
         Will do a full diagonalization
    2    -288.2498607751687700    -3.16e-03  6.71e-03  2.30e-02  3.72e-02  0.700   0.1
                               ***Turning on AO-DIIS***
    3    -288.2518150350053361    -1.95e-03  3.68e-03  1.11e-02  2.03e-02  0.700   0.1
    4    -288.2529766666041269    -1.16e-03  7.58e-03  2.43e-02  1.29e-02  0.000   0.1
                              *** Initializing SOSCF ***
---------------------------------------S-O-S-C-F--------------------------------------
Iteration    Energy (Eh)           Delta-E    RMSDP     MaxDP     MaxGrad    Time(sec)
--------------------------------------------------------------------------------------
    5    -288.2553570422489884    -2.38e-03  9.13e-04  2.66e-03  1.09e-03     0.1
               *** Restarting incremental Fock matrix formation ***
    6    -288.2553657311972302    -8.69e-06  4.40e-04  1.00e-03  2.86e-04     0.1
    7    -288.2553664251195187    -6.94e-07  8.23e-05  2.58e-04  9.73e-05     0.1
    8    -288.2553665099545128    -8.48e-08  4.26e-05  1.92e-04  3.97e-05     0.1
    9    -288.2553665191850882    -9.23e-09  9.60e-06  3.81e-05  7.61e-06     0.1
                 **** Energy Check signals convergence ****

               *****************************************************
               *                     SUCCESS                       *
               *           SCF CONVERGED AFTER   9 CYCLES          *
               *****************************************************

             **** ENERGY FILE WAS UPDATED (/cluster/projects/nn14654k/ylvaos/basis_set_n_funcs/functionals/lda_x/SiH2/inp/SiH2_lda_x_ccpvdz.en.tmp) ****

----------------
TOTAL SCF ENERGY
----------------

Total Energy       :       -288.25536651974653 Eh           -7843.82730 eV

Components:
Nuclear Repulsion  :         10.02885109619548 Eh             272.89891 eV
Electronic Energy  :       -298.28421761594200 Eh           -8116.72621 eV
One Electron Energy:       -421.57356174530099 Eh          -11471.59982 eV
Two Electron Energy:        123.28934412935898 Eh            3354.87361 eV

Virial components:
Potential Energy   :       -577.60796674825485 Eh          -15717.51184 eV
Kinetic Energy     :        289.35260022850832 Eh            7873.68454 eV
Virial Ratio       :          1.99620797011019

DFT components:
N(Alpha)           :        8.000001627005 electrons
N(Beta)            :        8.000001627005 electrons
N(Total)           :       16.000003254010 electrons
E(X)               :      -19.169534297053 Eh       
E(C)               :        0.000000000000 Eh       
E(XC)              :      -19.169534297053 Eh       

---------------
SCF CONVERGENCE
---------------

  Last Energy change         ...    9.2306e-09  Tolerance :   1.0000e-08
  Last MAX-Density change    ...    3.8144e-05  Tolerance :   1.0000e-07
  Last RMS-Density change    ...    9.5953e-06  Tolerance :   5.0000e-09
  Last DIIS Error            ...    1.0902e-03  Tolerance :   5.0000e-07
  Last Orbital Gradient      ...    7.6147e-06  Tolerance :   1.0000e-05
  Last Orbital Rotation      ...    1.1453e-05  Tolerance :   1.0000e-05


----------------
ORBITAL ENERGIES
----------------

  NO   OCC          E(Eh)            E(eV) 
   0   2.0000     -65.052322     -1770.1637 
   1   2.0000      -4.975160      -135.3810 
   2   2.0000      -3.423934       -93.1700 
   3   2.0000      -3.413211       -92.8782 
   4   2.0000      -3.410413       -92.8021 
   5   2.0000      -0.419338       -11.4108 
   6   2.0000      -0.245756        -6.6874 
   7   2.0000      -0.167459        -4.5568 
   8   0.0000      -0.114174        -3.1068 
   9   0.0000       0.050529         1.3750 
  10   0.0000       0.087154         2.3716 
  11   0.0000       0.246707         6.7132 
  12   0.0000       0.274939         7.4815 
  13   0.0000       0.310484         8.4487 
  14   0.0000       0.312957         8.5160 
  15   0.0000       0.343944         9.3592 
  16   0.0000       0.346690         9.4339 
  17   0.0000       0.351929         9.5765 
  18   0.0000       0.443434        12.0664 
*Only the first 10 virtual orbitals were printed.

                    ********************************
                    * MULLIKEN POPULATION ANALYSIS *
                    ********************************

-----------------------
MULLIKEN ATOMIC CHARGES
-----------------------
   0 Si:    0.033583
   1 H :   -0.016790
   2 H :   -0.016792
Sum of atomic charges:    0.0000000

--------------------------------
MULLIKEN REDUCED ORBITAL CHARGES
--------------------------------
  0 Sis       :     5.848256  s :     5.848256
      pz      :     3.010573  p :     8.033193
      px      :     2.000028
      py      :     3.022592
      dz2     :     0.052630  d :     0.084968
      dxz     :     0.000000
      dyz     :     0.001295
      dx2y2   :     0.031042
      dxy     :     0.000001

  1 H s       :     1.007508  s :     1.007508
      pz      :     0.007024  p :     0.009282
      px      :    -0.000014
      py      :     0.002272

  2 H s       :     1.007511  s :     1.007511
      pz      :     0.002231  p :     0.009282
      px      :    -0.000014
      py      :     0.007065



                     *******************************
                     * LOEWDIN POPULATION ANALYSIS *
                     *******************************

----------------------
LOEWDIN ATOMIC CHARGES
----------------------
   0 Si:    0.117215
   1 H :   -0.058609
   2 H :   -0.058607

-------------------------------
LOEWDIN REDUCED ORBITAL CHARGES
-------------------------------
  0 Sis       :     5.567182  s :     5.567182
      pz      :     3.087952  p :     8.189855
      px      :     1.999898
      py      :     3.102005
      dz2     :     0.078001  d :     0.125747
      dxz     :     0.000000
      dyz     :     0.000868
      dx2y2   :     0.046879
      dxy     :     0.000000

  1 H s       :     1.023904  s :     1.023904
      pz      :     0.028105  p :     0.034705
      px      :     0.000051
      py      :     0.006549

  2 H s       :     1.023904  s :     1.023904
      pz      :     0.006396  p :     0.034703
      px      :     0.000051
      py      :     0.028256



                      *****************************
                      * MAYER POPULATION ANALYSIS *
                      *****************************

  NA   - Mulliken gross atomic population
  ZA   - Total nuclear charge
  QA   - Mulliken gross atomic charge
  VA   - Mayer's total valence
  BVA  - Mayer's bonded valence
  FA   - Mayer's free valence

  ATOM       NA         ZA         QA         VA         BVA        FA
  0 Si    13.9664    14.0000     0.0336     1.9085     1.9085     0.0000
  1 H      1.0168     1.0000    -0.0168     0.9521     0.9521     0.0000
  2 H      1.0168     1.0000    -0.0168     0.9521     0.9521     0.0000

  Mayer bond orders larger than 0.100000
B(  0-Si,  1-H ) :   0.9543 B(  0-Si,  2-H ) :   0.9543 

-------
TIMINGS
-------

Total SCF time: 0 days 0 hours 0 min 1 sec 

Total time                  ....       1.064 sec
Sum of individual times     ....       0.952 sec  ( 89.5%)

SCF preparation             ....       0.125 sec  ( 11.8%)
Fock matrix formation       ....       0.496 sec  ( 46.6%)
  Startup                   ....       0.011 sec  (  2.2% of F)
  Coulomb formation         ....       0.023 sec  (  4.7% of F)
  XC integration            ....       0.335 sec  ( 67.5% of F)
    Basis function eval.    ....       0.011 sec  (  3.4% of XC)
    Density eval.           ....       0.002 sec  (  0.6% of XC)
    XC-Functional eval.     ....       0.005 sec  (  1.4% of XC)
    XC-Potential eval.      ....       0.002 sec  (  0.7% of XC)
Diagonalization             ....       0.000 sec  (  0.0%)
Density matrix formation    ....       0.079 sec  (  7.5%)
Total Energy calculation    ....       0.020 sec  (  1.9%)
Population analysis         ....       0.010 sec  (  1.0%)
Orbital Transformation      ....       0.011 sec  (  1.1%)
Orbital Orthonormalization  ....       0.000 sec  (  0.0%)
DIIS solution               ....       0.137 sec  ( 12.9%)
SOSCF solution              ....       0.073 sec  (  6.9%)
Finished LeanSCF after   1.1 sec

Maximum memory used throughout the entire LEANSCF-calculation: 5.7 MB


           ************************************************************
           *        Program running with 8 parallel MPI-processes     *
           *              working on a common directory               *
           ************************************************************

------------------------------------------------------------------------------
                         ORCA PROPERTY INTEGRAL CALCULATIONS
------------------------------------------------------------------------------

GBWName                                   ... /cluster/projects/nn14654k/ylvaos/basis_set_n_funcs/functionals/lda_x/SiH2/inp/SiH2_lda_x_ccpvdz.gbw
Number of atoms                           ...      3
Number of basis functions                 ...     51
Max core memory                           ...   4096 MB

Dipole integrals                          ... YES
Quadrupole integrals                      ... YES
Linear momentum integrals                 ...  NO
Angular momentum integrals                ...  NO
Higher moments length integrals           ...  NO
Higher moments velocity integrals         ...  NO
Kinetic energy integrals                  ...  NO
GIAO right hand sides                     ...  NO
GIAO dipole derivative integrals          ...  NO
SOC integrals                             ...  NO
EPR diamagnetic integrals (GIAO)          ...  NO
EPR gauge integrals                       ...  NO
Field gradient integrals                  ...  NO (   0 nuclei)
Spin-dipole/Fermi contact integrals       ...  NO (   0 nuclei)
Contact density integrals                 ...  NO (   0 nuclei)
Nucleus-orbit integrals                   ...  NO (   0 nuclei)
Geometric perturbations                   ...  NO (   3 nuclei)

Choice of electric origin   ... Center of mass
Position of electric origin ... (  0.0000,  0.0958, -0.0925) 
Choice of magnetic origin   ... GIAO
Position of magnetic origin ... (  0.0000,  0.0000,  0.0000) 

Calculating integrals                     ... Electric Dipole (Length)     done (  0.0 sec)
Calculating integrals                     ... Electric Quadrupole (Length) done (  0.0 sec)

Property integrals calculated in   0.0 sec

Maximum memory used throughout the entire PROPINT-calculation: 3.9 MB
------------------------------------------------------------------------------
                           ORCA ORBITAL LOCALIZATION
------------------------------------------------------------------------------

Input orbitals are from                  ... /cluster/projects/nn14654k/ylvaos/basis_set_n_funcs/functionals/lda_x/SiH2/inp/SiH2_lda_x_ccpvdz.gbw
Output orbitals are to                   ... /cluster/projects/nn14654k/ylvaos/basis_set_n_funcs/functionals/lda_x/SiH2/inp/SiH2_lda_x_ccpvdz.loc
Max. number of iterations                ... 128
Localizations seeded randomly            ... on
Convergence tolerance                    ... 1.000e-06
Threshold for strong local MOs           ... 9.500e-01
Threshold for bond MOs                   ... 8.500e-01
Operator                                 ... 0
Orbital range for localization           ... 1 to 7
Localization criterion                   ... NEW-BOYS
Doing the dipole integrals               ... o.k.
Initial value of the localization sum :     9.646140
ITERATION   0 : L=   10.3769116845 DL=  7.31e-01 (AVERGE_DL)=    0.1865439899 
ITERATION   1 : L=   10.3898251562 DL=  1.29e-02 (AVERGE_DL)=    0.0247977262 
ITERATION   2 : L=   10.3903786544 DL=  5.53e-04 (AVERGE_DL)=    0.0051339125 
ITERATION   3 : L=   10.3904711418 DL=  9.25e-05 (AVERGE_DL)=    0.0020986093 
ITERATION   4 : L=   10.3905148627 DL=  4.37e-05 (AVERGE_DL)=    0.0014428957 
ITERATION   5 : L=   10.3905636038 DL=  4.87e-05 (AVERGE_DL)=    0.0015234839 
ITERATION   6 : L=   10.3906130547 DL=  4.95e-05 (AVERGE_DL)=    0.0015345377 
ITERATION   7 : L=   10.3906647378 DL=  5.17e-05 (AVERGE_DL)=    0.0015687888 
ITERATION   8 : L=   10.3907180789 DL=  5.33e-05 (AVERGE_DL)=    0.0015937549 
ITERATION   9 : L=   10.3907729545 DL=  5.49e-05 (AVERGE_DL)=    0.0016165154 
ITERATION  10 : L=   10.3908290824 DL=  5.61e-05 (AVERGE_DL)=    0.0016348571 
ITERATION  11 : L=   10.3908861830 DL=  5.71e-05 (AVERGE_DL)=    0.0016489614 
ITERATION  12 : L=   10.3909439444 DL=  5.78e-05 (AVERGE_DL)=    0.0016584763 
ITERATION  13 : L=   10.3910020400 DL=  5.81e-05 (AVERGE_DL)=    0.0016632668 
ITERATION  14 : L=   10.3910601303 DL=  5.81e-05 (AVERGE_DL)=    0.0016631920 
ITERATION  15 : L=   10.3911178747 DL=  5.77e-05 (AVERGE_DL)=    0.0016582321 
ITERATION  16 : L=   10.3911749369 DL=  5.71e-05 (AVERGE_DL)=    0.0016484076 
ITERATION  17 : L=   10.3912309934 DL=  5.61e-05 (AVERGE_DL)=    0.0016338170 
ITERATION  18 : L=   10.3912857406 DL=  5.47e-05 (AVERGE_DL)=    0.0016146225 
ITERATION  19 : L=   10.3913389018 DL=  5.32e-05 (AVERGE_DL)=    0.0015910643 
ITERATION  20 : L=   10.3913902311 DL=  5.13e-05 (AVERGE_DL)=    0.0015634106 
ITERATION  21 : L=   10.3914395183 DL=  4.93e-05 (AVERGE_DL)=    0.0015319964 
ITERATION  22 : L=   10.3914865910 DL=  4.71e-05 (AVERGE_DL)=    0.0014971818 
ITERATION  23 : L=   10.3915313155 DL=  4.47e-05 (AVERGE_DL)=    0.0014593633 
ITERATION  24 : L=   10.3915735967 DL=  4.23e-05 (AVERGE_DL)=    0.0014189396 
ITERATION  25 : L=   10.3916133769 DL=  3.98e-05 (AVERGE_DL)=    0.0013763334 
ITERATION  26 : L=   10.3916506325 DL=  3.73e-05 (AVERGE_DL)=    0.0013319460 
ITERATION  27 : L=   10.3916853724 DL=  3.47e-05 (AVERGE_DL)=    0.0012861873 
ITERATION  28 : L=   10.3917176323 DL=  3.23e-05 (AVERGE_DL)=    0.0012394308 
ITERATION  29 : L=   10.3917474729 DL=  2.98e-05 (AVERGE_DL)=    0.0011920474 
ITERATION  30 : L=   10.3917749736 DL=  2.75e-05 (AVERGE_DL)=    0.0011443602 
ITERATION  31 : L=   10.3918002308 DL=  2.53e-05 (AVERGE_DL)=    0.0010966871 
ITERATION  32 : L=   10.3918233518 DL=  2.31e-05 (AVERGE_DL)=    0.0010492864 
ITERATION  33 : L=   10.3918444534 DL=  2.11e-05 (AVERGE_DL)=    0.0010024140 
ITERATION  34 : L=   10.3918636570 DL=  1.92e-05 (AVERGE_DL)=    0.0009562731 
ITERATION  35 : L=   10.3918810871 DL=  1.74e-05 (AVERGE_DL)=    0.0009110469 
ITERATION  36 : L=   10.3918968685 DL=  1.58e-05 (AVERGE_DL)=    0.0008668872 
ITERATION  37 : L=   10.3919111239 DL=  1.43e-05 (AVERGE_DL)=    0.0008239122 
ITERATION  38 : L=   10.3919239738 DL=  1.28e-05 (AVERGE_DL)=    0.0007822390 
ITERATION  39 : L=   10.3919355332 DL=  1.16e-05 (AVERGE_DL)=    0.0007419237 
ITERATION  40 : L=   10.3919459128 DL=  1.04e-05 (AVERGE_DL)=    0.0007030411 
ITERATION  41 : L=   10.3919552164 DL=  9.30e-06 (AVERGE_DL)=    0.0006656030 
ITERATION  42 : L=   10.3919635427 DL=  8.33e-06 (AVERGE_DL)=    0.0006296749 
ITERATION  43 : L=   10.3919709827 DL=  7.44e-06 (AVERGE_DL)=    0.0005952164 
ITERATION  44 : L=   10.3919776217 DL=  6.64e-06 (AVERGE_DL)=    0.0005622664 
ITERATION  45 : L=   10.3919835381 DL=  5.92e-06 (AVERGE_DL)=    0.0005307865 
ITERATION  46 : L=   10.3919888043 DL=  5.27e-06 (AVERGE_DL)=    0.0005007703 
ITERATION  47 : L=   10.3919934860 DL=  4.68e-06 (AVERGE_DL)=    0.0004721659 
ITERATION  48 : L=   10.3919976442 DL=  4.16e-06 (AVERGE_DL)=    0.0004449798 
ITERATION  49 : L=   10.3920013333 DL=  3.69e-06 (AVERGE_DL)=    0.0004191332 
ITERATION  50 : L=   10.3920046032 DL=  3.27e-06 (AVERGE_DL)=    0.0003946010 
ITERATION  51 : L=   10.3920074991 DL=  2.90e-06 (AVERGE_DL)=    0.0003713481 
ITERATION  52 : L=   10.3920100616 DL=  2.56e-06 (AVERGE_DL)=    0.0003493212 
ITERATION  53 : L=   10.3920123271 DL=  2.27e-06 (AVERGE_DL)=    0.0003284529 
ITERATION  54 : L=   10.3920143290 DL=  2.00e-06 (AVERGE_DL)=    0.0003087491 
ITERATION  55 : L=   10.3920160961 DL=  1.77e-06 (AVERGE_DL)=    0.0002900819 
ITERATION  56 : L=   10.3920176553 DL=  1.56e-06 (AVERGE_DL)=    0.0002724848 
ITERATION  57 : L=   10.3920190299 DL=  1.37e-06 (AVERGE_DL)=    0.0002558496 
ITERATION  58 : L=   10.3920202413 DL=  1.21e-06 (AVERGE_DL)=    0.0002401786 
ITERATION  59 : L=   10.3920213080 DL=  1.07e-06 (AVERGE_DL)=    0.0002253762 
ITERATION  60 : L=   10.3920222468 DL=  9.39e-07 (AVERGE_DL)=    0.0002114381 
LOCALIZATION SUM CONVERGED


--------------------------------------------------------------------------------
                    LOCALIZED MOLECULAR ORBITAL COMPOSITIONS
--------------------------------------------------------------------------------

The Mulliken populations for each LMO on each atom are computed
The LMO`s will be ordered according to atom index and type
  (A) Strongly localized MO`s have populations of >=0.950 on one atom
  (B) Two center bond orbitals have populations of >=0.850 on two atoms
  (C) Other MO`s are considered to be `delocalized`

FOUND  -   5 strongly local MO`s
       -   2 two center bond MO`s
       -   0 significantly delocalized MO`s

Rather strongly localized orbitals:
MO   5:   0Si -   1.019893
MO   4:   0Si -   1.000638
MO   3:   0Si -   1.000769
MO   2:   0Si -   0.998667
MO   1:   0Si -   1.000558
Bond-like localized orbitals:
MO   7:   2H  -   0.526230  and   0Si -   0.481343
MO   6:   1H  -   0.526228  and   0Si -   0.481344
Localized MO's were stored in: /cluster/projects/nn14654k/ylvaos/basis_set_n_funcs/functionals/lda_x/SiH2/inp/SiH2_lda_x_ccpvdz.loc

-------------------------   --------------------
FINAL SINGLE POINT ENERGY      -288.255366519747
-------------------------   --------------------



           ************************************************************
           *        Program running with 8 parallel MPI-processes     *
           *              working on a common directory               *
           ************************************************************

------------------------------------------------------------------------------
                              ORCA PROPERTY CALCULATIONS
------------------------------------------------------------------------------

GBWName                                 ... /cluster/projects/nn14654k/ylvaos/basis_set_n_funcs/functionals/lda_x/SiH2/inp/SiH2_lda_x_ccpvdz.gbw
Number of atoms                         ...      3
Number of basis functions               ...     51
Max core memory                         ...   4096 MB

Electric properties:
Dipole moment                           ... YES
Quadrupole moment                       ... YES
Static polarizability (Dipole/Dipole)   ...  NO
Static polarizability (Dipole/Quad.)    ...  NO
Static polarizability (Quad./Quad.)     ...  NO
Static polarizability (Velocity)        ...  NO
Static hyperpolarizability              ...  NO

Atomic electric properties:
Dipole moment                           ...  NO
Quadrupole moment                       ...  NO
Static polarizability                   ...  NO

Choice of electric origin               ... Center of mass
Position of electric origin             ...     0.000000     0.095755    -0.092471

General magnetic properties:
Magnetizability                         ...  NO

EPR properties:
g-Tensor (aka g-matrix)                 ...  NO
Zero-Field splitting spin-orbit         ...  NO
Zero-field splitting spin-spin          ...  NO
Hyperfine couplings                     ...  NO (   0 nuclei)
Quadrupole couplings                    ...  NO (   0 nuclei)
Contact density                         ...  NO (   0 nuclei)

NMR properties:
Chemical shifts                         ...  NO (   0 nuclei)
Spin-rotation constants                 ...  NO (   0 nuclei)
Spin-spin couplings                     ...  NO (   0 nuclei,    0 pairs)

Choice of magnetic origin               ... GIAO
Position of magnetic origin             ...     0.000000     0.000000     0.000000

Properties with geometric perturbations:
SCF Hessian                             ...  NO
IR spectrum                             ...  NO
VCD spectrum                            ...  NO
X-ray spectroscopy properties:
SCF XES/XAS/RIXS spectra                ...  NO

SCF SOC stabilization energy            ...  NO
Diagonal Born-Oppenheimer correction    ...  NO

-------------
DIPOLE MOMENT
-------------

Method             : SCF
Type of density    : Electron Density
Multiplicity       :   1
Irrep              :   0
Energy             :  -288.2553665197465307 Eh
Basis              : AO
                                X                 Y                 Z
Electronic contribution:     -0.000000002      -1.193895608       1.152930302
Nuclear contribution   :      0.000000000       1.327457389      -1.281928022
                        -----------------------------------------
Total Dipole Moment    :     -0.000000002       0.133561781      -0.128997720
                        -----------------------------------------
Magnitude (a.u.)       :      0.185685651
Magnitude (Debye)      :      0.471975417



--------------------
Rotational spectrum 
--------------------
 
Rotational constants in cm-1:             8.101050             7.049111             3.769280 
Rotational constants in MHz :        242863.361200        211327.036298        113000.174884 

Dipole components along the rotational axes: 
x,y,z [a.u.] :    -0.000008    -0.185686    -0.000000 
x,y,z [Debye]:    -0.000019    -0.471975    -0.000000 

 

Dipole moment calculation done in   0.0 sec 

-----------------
QUADRUPOLE MOMENT
-----------------

Method             : SCF
Type of density    : Electron Density
Multiplicity       :   1
Irrep              :   0
Energy             :  -288.2553665197465307 Eh
Basis              : AO

                XX              YY              ZZ              XY              XZ              YZ
  NUC        0.000000000     7.776008003     7.822723490     0.000000000     0.000000000     0.672490579
  EL        -9.387372476   -20.584150024   -20.583754929     0.000000003    -0.000000002     0.002301440
  TOT       -9.387372476   -12.808142021   -12.761031439     0.000000003    -0.000000002     0.674792019 (a.u.)
           -12.626337028   -17.227389056   -17.164023713     0.000000004    -0.000000003     0.907618344 (Buckingham)

diagonalized tensor:
           -13.459789752   -12.109383708    -9.387372476 (a.u.)
           -18.103877541   -16.287535228   -12.626337028 (Buckingham)
            -7.293882826    -1.844855887     9.138738713 (traceless form in Buckingham)

             0.000000001    -0.000000000     1.000000000
            -0.719335191     0.694663144     0.000000001
             0.694663144     0.719335191    -0.000000000
        
Isotropic quadrupole :   -11.652181979

Quadrupole moment calculation done in   0.0 sec (  0.0 sec for integrals)

Maximum memory used throughout the entire PROP-calculation: 1.6 MB

--------------------------------
SUGGESTED CITATIONS FOR THIS RUN
--------------------------------

Below you find a list of papers that are relevant to this ORCA run
We neither can nor want to force you to cite these papers, but we appreciate if you do
You receive ORCA, which is the product of decades of hard work by many enthusiastic individuals, for free
The only thing we kindly ask in return is that you cite our papers,
We deeply appreciate it, if you show your appreciation for ORCA by not just citing the generic ORCA reference.

Please note that relegating all ORCA citations to the supporting information does *not* help us.
SI sections are not indexed - citations you put there will not count into any citation statistics
But we need these citations in order to attract the funding resources that allow us to do what we are doing

Therefore, if you are a happy ORCA user, please consider citing a few of the papers listed below in the main body of your paper

In addition to the list printed below, the program has created the file /cluster/projects/nn14654k/ylvaos/basis_set_n_funcs/functionals/lda_x/SiH2/inp/SiH2_lda_x_ccpvdz.bibtex that contains the list in bibtex format
You can import this file easily into all common literature databanks and citation aid programs

It goes without saying that in many instances, there are alternative algorithms to achieve similar
results as the ones you have gotten from ORCA. It is, of course, also the case that in some instances
ORCA just re-implements algorithms worked out by others. We are fully aware of that and we are also
fully appreciative of our colleagues work. Hence this citation list should not be read as indicating
that the listed papers, which are focused on our own work, are the only ones worth citing. It simply
meant to make it easier for users to cite ORCA specific papers. It is not a substitute for doing your
own literature research and citing the relevant literature in a scientifically appropriate manner.

List of essential papers. We consider these as the minimum necessary citations

  1. Neese, F.
     Software update: the ORCA program system, version 6.0
     WIRES Comput. Molec. Sci. 2025 15(1), e70019
     doi.org/10.1002/wcms.70019

List of papers to cite with high priority. The work reported in these papers was absolutely
necessary for this run to complete.
Our perspective: the developers of density functionals and basis sets usually get cited in chemistry papers
Good! But without the algorithms to do something with them, the functionals or basis sets would not do anything.
Hence, in our opinion, the algorithm design and method developments papers are equally worthy of getting cited

  1. Lehtola, S.; Steigemann, C.; Oliveira, M.; Marques, M.
     Recent developments in Libxc - A comprehensive library of functionals for density functional theory
     Software X 2018 7 , 
     doi.org/10.1016/j.softx.2017.11.002
  2. Neese, F.
     The SHARK Integral Generation and Digestion System
     J. Comp. Chem. 2022 44(3), 381
     doi.org/10.1002/jcc.26942

List of suggested additional citations. These are papers that are important in the 'surrounding' of 
of this run, or papers that preceded the highly important papers. If you like your results we are grateful for a citation.

  1. Neese, F.
     The ORCA program system
     WIRES Comput. Molec. Sci. 2012 2(1), 73-78
     doi.org/10.1002/wcms.81
  2. Neese, F.
     Software update: the ORCA program system, version 4.0
     WIRES Comput. Molec. Sci. 2018 8(1), 1-6
     doi.org/10.1002/wcms.1327
  3. Neese, F.; Wennmohs, F.; Becker, U.; Riplinger, C.
     The ORCA quantum chemistry program package
     J. Chem. Phys. 2020 152(22), 224108
     doi.org/10.1063/5.0004608
  4. Neese, F.
     Software update: The ORCA program system—Version 5.0
     WIRES Comput. Molec. Sci. 2022 12(1), e1606
     doi.org/10.1002/wcms.1606

List of optional additional citations

  1. Neese, F.
     Approximate second-order SCF convergence for spin unrestricted wavefunctions
     Chem. Phys. Lett. 2000 325(1-3), 93-98
     doi.org/10.1016/s0009-2614(00)00662-x

Timings for individual modules:

Sum of individual times          ...        2.753 sec (=   0.046 min)
Startup calculation              ...        0.573 sec (=   0.010 min)  20.8 %
SCF iterations                   ...        1.639 sec (=   0.027 min)  59.6 %
Property integrals               ...        0.282 sec (=   0.005 min)  10.2 %
Property calculations            ...        0.254 sec (=   0.004 min)   9.2 %
Orbital localization             ...        0.004 sec (=   0.000 min)   0.2 %
                             ****ORCA TERMINATED NORMALLY****
TOTAL RUN TIME: 0 days 0 hours 0 minutes 3 seconds 805 msec
