
                                 *****************
                                 * O   R   C   A *
                                 *****************

                                            #,                                       
                                            ###                                      
                                            ####                                     
                                            #####                                    
                                            ######                                   
                                           ########,                                 
                                     ,,################,,,,,                         
                               ,,#################################,,                 
                          ,,##########################################,,             
                       ,#########################################, ''#####,          
                    ,#############################################,,   '####,        
                  ,##################################################,,,,####,       
                ,###########''''           ''''###############################       
              ,#####''   ,,,,##########,,,,          '''####'''          '####       
            ,##' ,,,,###########################,,,                        '##       
           ' ,,###''''                  '''############,,,                           
         ,,##''                                '''############,,,,        ,,,,,,###''
      ,#''                                            '''#######################'''  
     '                                                          ''''####''''         
             ,#######,   #######,   ,#######,      ##                                
            ,#'     '#,  ##    ##  ,#'     '#,    #''#        ,####,    ,#,          
            ##       ##  ##   ,#'  ##            #'  '#       #'       ,# #          
            ##       ##  #######   ##           ,######,      #####,      #          
            '#,     ,#'  ##    ##  '#,     ,#' ,#      #,     #,   #      #          
             '#######'   ##     ##  '#######'  #'      '#     '####' #    #          



                #########################################################
                #                        -***-                          #
                #          Department of theory and spectroscopy        #
                #                                                       #
                #                      Frank Neese                      #
                #                                                       #
                #     Directorship, Architecture, Infrastructure        #
                #                    SHARK, DRIVERS                     #
                #        Core code/Algorithms in most modules           #
                #                                                       #
                #        Max Planck Institute fuer Kohlenforschung      #
                #                Kaiser Wilhelm Platz 1                 #
                #                 D-45470 Muelheim/Ruhr                 #
                #                      Germany                          #
                #                                                       #
                #                  All rights reserved                  #
                #                        -***-                          #
                #########################################################


                         Program Version 6.1.1  -  RELEASE   -
                                (GIT: $487d211c$)
                          ($2025-11-21 10:33:24 +0100$)


 With contributions from (in alphabetic order):
[Max-Planck-Institut fuer Kohlenforschung]                               
  Daniel Aravena         : Magnetic Suceptibility                        
  Michael Atanasov       : Ab Initio Ligand Field Theory (pilot matlab implementation)
  Alexander A. Auer      : GIAO ZORA, VPT2 properties, NMR spectrum      
  Ute Becker             : All parallelization in ORCA, NUMFREQ, NUMCALC 
  Giovanni Bistoni       : ED, misc. LED, open-shell LED, HFLD           
  Dmytro Bykov           : pre 5.0 version of the SCF Hessian            
  Marcos Casanova-Páez   : Triplet and SCS-CIS(D). UHF-(DLPNO)-IP/EA/STEOM-CCSD. UHF-CVS-IP/STEOM-CCSD   
  Vijay G. Chilkuri      : MRCI spin determinant printing, contributions to CSF-ICE 
  Pauline Colinet        : FMM embedding                                 
  Dipayan Datta          : RHF DLPNO-CCSD density                        
  Achintya Kumar Dutta   : EOM-CC, STEOM-CC                              
  Nicolas Foglia         : Exact transition moments, OPA infrastructure, MCD improvements    
  Dmitry Ganyushin       : Spin-Orbit,Spin-Spin,Magnetic field MRCI      
  Miquel Garcia-Rates    : C-PCM and meta-GGA Hessian, CCSD/C-PCM, Gaussian charge scheme 
  Tiago L. C. Gouveia    : GS-ROHF, GS-ROCIS                             
  Yang Guo               : DLPNO-NEVPT2, F12-NEVPT2, CIM, IAO-localization        
  Andreas Hansen         : Spin unrestricted coupled pair/coupled cluster methods 
  Ingolf Harden          : AUTO-CI MPn and infrastructure                
  Benjamin Helmich-Paris : MC-RPA, TRAH-(SCF,CASSCF), AVAS, COSX integrals, SCF dyn. polar., MC-PDFT, srDFT 
  Lee Huntington         : MR-EOM, pCC                                   
  Robert Izsak           : Overlap fitted RIJCOSX, COSX-SCS-MP3, EOM     
  Riya Kayal             : Wick's Theorem for AUTO-CI, AUTO-CI UHF-CCSDT 
  Emily Kempfer          : AUTO-CI RHF CISDT and CCSDT, approximate NEVPT4
  Christian Kollmar      : KDIIS, OOCD, Brueckner-CCSD(T), CCSD density, CASPT2, CASPT2-K, improved NEVPT2 
  Axel Koslowski         : Symmetry handling                             
  Simone Kossmann        : meta-GGA functionals, TD-DFT gradient, OOMP2, (MP2 Hessian; deprecated post 5.0) 
  Lucas Lang             : DCDCAS, Hyperfine gauge corrections, ICE-SOC+SSC
  Marvin Lechner         : AUTO-CI (C++ implementation), FIC-MRCC        
  Spencer Leger          : CASSCF response                               
  Dagmar Lenk            : GEPOL surface, SMD, ORCA-2-JSON               
  Dimitrios Liakos       : Extrapolation schemes; Compound Job, Property file
  Dimitrios Manganas     : Further ROCIS development; embedding schemes. LFT, Crystal Embedding 
  Dimitrios Pantazis     : SARC Basis sets                               
  Anastasios Papadopoulos: AUTO-CI, single reference methods and gradients 
  Taras Petrenko         : pre 6.0 DFT Hessian and TD-DFT gradient,  ECA, NRVS 
  Petra Pikulova         : Analytic Raman intensities                    
  Peter Pinski           : DLPNO-MP2, DLPNO-MP2 Gradient                 
  Shashank Vittal Rao    : ES-AILFT, MagRelax                            
  Christoph Reimann      : Effective Core Potentials                     
  Marius Retegan         : Local ZFS, SOC                                
  Christoph Riplinger    : Optimizer, TS searches, QM/MM, DLPNO-CCSD(T), (RO)-DLPNO pert. Triples 
  Michael Roemelt        : Original ROCIS implementation, recursive CI coupling coefficients
  Masaaki Saitow         : Open-shell DLPNO-CCSD energy and density      
  Barbara Sandhoefer     : DKH picture change effects                    
  Yorick L. A. Schmerwitz: GMF and freeze-and-release deltaSCF, NEB S-IDPP initial path                    
  Kantharuban Sivalingam : CASSCF convergence/infrastructure, NEVPT2, NEVPT3, NEVPT4(SD), FIC-MRCI and CEPA variants
  Bernardo de Souza      : ESD, SOC TD-DFT                               
  Georgi L. Stoychev     : AutoAux, RI-MP2 NMR, DLPNO-MP2 response, X2C  
  Van Anh Tran           : RI-MP2 g-tensors                              
  Willem Van den Heuvel  : Paramagnetic NMR                              
  Zikuan Wang            : NOTCH, Electric field optimization            
  Frank Wennmohs         : Technical directorship and infrastructure     
  Hang Xu                : AUTO-CI-Response properties                   
                                                                         
[FACCTs GmbH]                                                            
  Markus Bursch, Nicolas Foglia, Miquel Garcia-Rates, Ingolf Harden, Hagen Neugebauer, Anastasios Papadopoulos, 
  Christoph Riplinger, Bernardo de Souza, Georgi L. Stoychev                                                    
                                                                 
  APM, various basis sets, CI-OPT, improved COSX, DLPNO-Multilevel,           
  DOCKER, DRACO, updates on ESD, Fragmentator, GOAT, IRC, LR-CPCM, L-BFGS, MBIS, meta-GGA TD-DFT gradient, ML-optimized integration grids, 
  MM, NACMEs, nearIR, NEB, NEB-TS, NL-DFT gradient (VV10), 2- and 3-layer-ONIOM, interface openCOSMO-RS, QMMM,   
  Crystal-QMMM, RESP, rigid body optimization, SF, symmetry and pop. for TD-DFT, various functionals, SOLVATOR                                   
                                                                         
[Other institutions]                                                     
  V. Asgeirsson          : NEB                                           
  Christoph Bannwarth    : sTDA-DFT, sTD-DFT, PBEh-3c, B97-3c, D3        
  Giovanni Bistoni       : ETS/NOCV, ADLD/ADEX, COVALED                  
  Martin Brehm           : Molecular dynamics                            
  Ronald Cardenas        : ETS/NOCV                                      
  Martina Colucci        : COVALED                                       
  Sebastian Ehlert       : rSCAN, r2SCAN, r2SCAN-3c, D4, dhf basis sets  
  Marvin Friede          : D4 for Fr, Ra, Ac-Lr                          
  Lars Goerigk           : TD-DFT with DH, B97 family of functionals     
  Stefan Grimme          : VdW corrections, initial TS optimization, DFT functionals, gCP, sTDA/sTD-DF 
  Waldemar Hujo          : DFT-NL                                        
  H. Jonsson             : NEB                                           
  Holger Kruse           : gCP                                           
  Marcel Mueller         : wB97X-3c, vDZP basis set                      
  Hagen Neugebauer       : wr2SCAN, Native XTB                           
  Gianluca Regni         : ADLD/ADEX                                     
  Tobias Risthaus        : pre 6.0 range-separated hybrid DFT and stability analysis
  Lukas Wittmann         : regularized MP2, r2SCAN double-hybrids, wr2SCAN        
                                                                         
We gratefully acknowledge several colleagues who have allowed us to      
interface, adapt or use parts of their codes:                            
  Ed Valeev, F. Pavosevic, A. Kumar             : LibInt (2-el integral package), F12 methods 
  Garnet Chan, S. Sharma, J. Yang, R. Olivares  : DMRG                   
  Ulf Ekstrom                                   : XCFun DFT Library      
  Mihaly Kallay                                 : mrcc  (arbitrary order and MRCC methods)
  Frank Weinhold                                : gennbo (NPA and NBO analysis)           
  Simon Mueller                                 : openCOSMO-RS                            
  Christopher J. Cramer and Donald G. Truhlar   : smd solvation model                     
  S Lehtola, MJT Oliveira, MAL Marques          : LibXC Library                           
  Liviu Ungur et al                             : ANISO software                          


 Your calculation uses the libint2 library for the computation of 2-el integrals
 For citations please refer to: http://libint.valeyev.net

 Your ORCA version has been built with support for libXC version: 7.0.0
 For citations please refer to: https://libxc.gitlab.io

 This ORCA versions uses:
   CBLAS   interface :  Fast vector & matrix operations
   LAPACKE interface :  Fast linear algebra routines
   SCALAPACK package :  Parallel linear algebra routines
   Shared memory     :  Shared parallel matrices
   BLAS/LAPACK       :  OpenBLAS 0.3.29  USE64BITINT DYNAMIC_ARCH NO_AFFINITY Cooperlake SINGLE_THREADED
        Core in use  :  Cooperlake
   Copyright (c) 2011-2014, The OpenBLAS Project


  ***********************************
  * Starting time: Wed May 20 12:41:47 2026
  * Host name:     c1-37
  * Process ID:    730591
  * Working dir.:  /cluster/projects/nn14654k/ylvaos/basis_set_n_funcs/functionals/lda_x/SiH2/out
  ***********************************

Using LibXC functional ID   1 : Slater exchange
[ 1]  P. A. M. Dirac.,  Math. Proc. Cambridge Philos. Soc. 26, 376 (1930)
[ 2]  F. Bloch.,  Z. Phys. 57, 545 (1929)
Using LibXC functional ID   1 : Slater exchange
[ 1]  P. A. M. Dirac.,  Math. Proc. Cambridge Philos. Soc. 26, 376 (1930)
[ 2]  F. Bloch.,  Z. Phys. 57, 545 (1929)
Your calculation utilizes LibXC
by S. Lehtola, C. Steigemann, M. J. T. Oliveira & M. A. L. Marques
Please cite in your paper:
Lehtola, S.; Steigemann, C.; Oliveira, M.J.T.; Marques, M. A. L. Software X, 7, (2018), 1.
   

================================================================================

----- Orbital basis set information -----
Your calculation utilizes the basis: pc-2
   H, C-F              : F. Jensen, J. Chem. Phys. 115, 9113 (2001).
                         F. Jensen, J. Chem. Phys. 116, 7372 (2002).
                         F. Jensen, J. Chem. Phys. 117, 9234 (2002).
   Si-Cl               : F. Jensen, T. Helgaker, J. Chem. Phys. 121, 3463 (2004).
   He-B, Ne-Mg, Al, Ar : F. Jensen, J. Phys. Chem. A 111, 11198 (2007).
   K, Ca, Ga-Kr        : F. Jensen, J. Chem. Phys. 136, 094110 (2012).
   Sc-Zn               : F. Jensen, J. Chem. Phys. 138, 014107 (2013).

================================================================================
                                        WARNINGS
                       Please study these warnings very carefully!
================================================================================


================================================================================
                                       INPUT FILE
================================================================================
NAME = /cluster/projects/nn14654k/ylvaos/basis_set_n_funcs/functionals/lda_x/SiH2/inp/SiH2_lda_x_pc2.inp
|  1> ! dft pc-2 TightSCF
|  2> %pal nprocs 8 end
|  3> 
|  4> %loc
|  5>   LocMet NewBoys
|  6>   Occ true
|  7> end
|  8> 
|  9> %method
| 10>   exchange lda_x
| 11>   correlation None
| 12> end
| 13> 
| 14> %elprop
| 15>   Dipole true
| 16>   Quadrupole true
| 17> end
| 18> 
| 19> * xyz 0 1
| 20> Si    0.000000000000   0.000000000000   0.000000000000
| 21> H    0.000000000000   0.000000000000  -1.514100000000
| 22> H    0.000000000000   1.513200000000   0.052800000000
| 23> *
| 24> 
| 25> 
| 26>                          ****END OF INPUT****
================================================================================

                       ****************************
                       * Single Point Calculation *
                       ****************************

---------------------------------
CARTESIAN COORDINATES (ANGSTROEM)
---------------------------------
  Si     0.000000    0.000000    0.000000
  H      0.000000    0.000000   -1.514100
  H      0.000000    1.513200    0.052800

----------------------------
CARTESIAN COORDINATES (A.U.)
----------------------------
  NO LB      ZA    FRAG     MASS         X           Y           Z
   0 Si   14.0000    0    28.086    0.000000    0.000000    0.000000
   1 H     1.0000    0     1.008    0.000000    0.000000   -2.861234
   2 H     1.0000    0     1.008    0.000000    2.859534    0.099778

--------------------------------
INTERNAL COORDINATES (ANGSTROEM)
--------------------------------
 Si     0   0   0     0.000000000000     0.00000000     0.00000000
 H      1   0   0     1.514100000000     0.00000000     0.00000000
 H      1   2   0     1.514120893456    91.99840755     0.00000000

---------------------------
INTERNAL COORDINATES (A.U.)
---------------------------
 Si     0   0   0     0.000000000000     0.00000000     0.00000000
 H      1   0   0     2.861234339370     0.00000000     0.00000000
 H      1   2   0     2.861273822280    91.99840755     0.00000000

---------------------
BASIS SET INFORMATION
---------------------
There are 2 groups of distinct atoms

 Group   1 Type Si  : 29s16p2d1f contracted to 5s4p2d1f pattern {99911/7711/11/1}
 Group   2 Type H   : 6s2p1d contracted to 3s2p1d pattern {411/11/1}

Atom   0Si   basis set group =>   1
Atom   1H    basis set group =>   2
Atom   2H    basis set group =>   2


           ************************************************************
           *        Program running with 8 parallel MPI-processes     *
           *              working on a common directory               *
           ************************************************************
------------------------------------------------------------------------------
                             ORCA STARTUP CALCULATIONS
------------------------------------------------------------------------------
------------------------------------------------------------------------------
                   ___                                                        
                  /   \      - P O W E R E D   B Y -                         
                 /     \                                                     
                 |  |  |   _    _      __       _____    __    __             
                 |  |  |  | |  | |    /  \     |  _  \  |  |  /  |          
                  \  \/   | |  | |   /    \    | | | |  |  | /  /          
                 / \  \   | |__| |  /  /\  \   | |_| |  |  |/  /          
                |  |  |   |  __  | /  /__\  \  |    /   |      \           
                |  |  |   | |  | | |   __   |  |    \   |  |\   \          
                \     /   | |  | | |  |  |  |  | |\  \  |  | \   \       
                 \___/    |_|  |_| |__|  |__|  |_| \__\ |__|  \__/        
                                                                              
                      - O R C A' S   B I G   F R I E N D -                    
                                      &                                       
                       - I N T E G R A L  F E E D E R -                       
                                                                              
 v1 FN, 2020, v2 2021, v3 2022-2024                                           
------------------------------------------------------------------------------


----------------------
SHARK INTEGRAL PACKAGE
----------------------

Number of atoms                             ...      3
Number of basis functions                   ...     62
Number of shells                            ...     24
Maximum angular momentum                    ...      3
Integral batch strategy                     ... SHARK/LIBINT Hybrid
RI-J (if used) integral strategy            ... SPLIT-RIJ (Revised 2003 algorithm where possible)
Printlevel                                  ...      1
Contraction scheme used                     ... SEGMENTED contraction
Prescreening option                         ... SCHWARTZ
   Thresh                                   ... 2.500e-11
   Tcut                                     ... 2.500e-12
   Tpresel                                  ... 2.500e-12 
Coulomb Range Separation                    ... NOT USED
Exchange Range Separation                   ... NOT USED
Multipole approximations                    ... NOT USED
Finite Nucleus Model                        ... NOT USED
CABS basis                                  ... NOT available
Auxiliary Coulomb fitting basis             ... NOT available
Auxiliary J/K fitting basis                 ... NOT available
Auxiliary Correlation fitting basis         ... NOT available
Auxiliary 'external' fitting basis          ... NOT available

Checking pre-screening integrals            ... done (  0.0 sec) Dimension = 24
   => SHARK Basis and OBASIS are compatible. Storing Pre-screening
Shell pair information
Shell pair cut-off parameter TPreSel        ...   2.5e-12
Total number of shell pairs                 ...       300
Shell pairs after pre-screening             ...       300
Total number of primitive shell pairs       ...      2373
Primitive shell pairs kept                  ...      2233
          la=0 lb=0:     66 shell pairs
          la=1 lb=0:     88 shell pairs
          la=1 lb=1:     36 shell pairs
          la=2 lb=0:     44 shell pairs
          la=2 lb=1:     32 shell pairs
          la=2 lb=2:     10 shell pairs
          la=3 lb=0:     11 shell pairs
          la=3 lb=1:      8 shell pairs
          la=3 lb=2:      4 shell pairs
          la=3 lb=3:      1 shell pairs

Checking whether 4 symmetric matrices of dimension 62 fit in memory
:Max Core in MB      =   4096.00
 MB in use           =      2.46
 MB left             =   4093.54
 MB needed           =      0.06
 Data fit in memory  = YES
Calculating Nuclear repulsion               ... done (  0.0 sec) ENN=     10.028851096195 Eh

Diagonalization of the overlap matrix:
Smallest eigenvalue                        ... 1.094e-02
Time for diagonalization                   ...    0.001 sec
Threshold for overlap eigenvalues          ... 1.000e-07
Number of eigenvalues below threshold      ... 0
Time for construction of square roots      ...    0.001 sec
Total time needed                          ...    0.004 sec

-------------------
DFT GRID GENERATION
-------------------

General Integration Accuracy     IntAcc      ... 4.388
Radial Grid Type                 RadialGrid  ... OptM3 with GC (2021)
Angular Grid (max. ang.)         AngularGrid ... 4 (Lebedev-302)
Angular grid pruning method      GridPruning ... 4 (adaptive)
Weight generation scheme         WeightScheme... mBecke (2022)
Basis function cutoff            BFCut       ... 1.0000e-11
Integration weight cutoff        WCut        ... 1.0000e-14
Partially contracted basis set               ... off
Rotationally invariant grid construction     ... off
Angular grids for H and He will be reduced by one unit

Total number of grid points                  ...    13986
Total number of batches                      ...      220
Average number of points per batch           ...       63
Average number of grid points per atom       ...     4662
Grids setup in   0.0 sec
Initializing property integral containers    ... done (  0.0 sec)

SHARK setup successfully completed in   0.1 seconds

Maximum memory used throughout the entire STARTUP-calculation: 19.1 MB


           ************************************************************
           *        Program running with 8 parallel MPI-processes     *
           *              working on a common directory               *
           ************************************************************
-------------------------------------------------------------------------------
                                 ORCA GUESS
                   Start orbitals & Density for SCF / CASSCF
-------------------------------------------------------------------------------

------------
SCF SETTINGS
------------
Hamiltonian:
 Density Functional     Method          .... DFT(GTOs)
  Functional kind                       .... Exchange
  Functional name                       .... Slater exchange
  Functional family                     .... LDA
  Functional refs                              
    [ 0] P. A. M. Dirac.,  Math. Proc. Cambridge Philos. Soc. 26, 376 (1930), doi: 10.1017/S0305004100016108
    [ 1] F. Bloch.,  Z. Phys. 57, 545 (1929), doi: 10.1007/BF01340281
  Functional external parameters        .... 0
 Correlation Functional Correlation     .... No Correlation
 Gradients option       PostSCFGGA      .... off


General Settings:
 Integral files         IntName         .... /cluster/projects/nn14654k/ylvaos/basis_set_n_funcs/functionals/lda_x/SiH2/inp/SiH2_lda_x_pc2
 Hartree-Fock type      HFTyp           .... RHF
 Total Charge           Charge          ....    0
 Multiplicity           Mult            ....    1
 Number of Electrons    NEL             ....   16
 Basis Dimension        Dim             ....   62
 Nuclear Repulsion      ENuc            ....     10.0288510962 Eh

Convergence Acceleration:
 AO-DIIS                CNVDIIS         .... on
   Start iteration      DIISMaxIt       ....    12
   Startup error        DIISStart       ....  0.200000
   # of expansion vecs  DIISMaxEq       ....     5
   Bias factor          DIISBfac        ....   1.050
   Max. coefficient     DIISMaxC        ....  10.000
 MO-DIIS                CNVKDIIS        .... off
 Trust-Rad. Augm. Hess. CNVTRAH         .... auto
   Auto Start mean grad. ratio tolernc. ....  1.125000
   Auto Start start iteration           ....    50
   Auto Start num. interpolation iter.  ....    10
   Max. Number of Micro iterations      ....    24
   Max. Number of Macro iterations      .... Maxiter - #DIIS iter
   Number of Davidson start vectors     ....     2
   Converg. threshold    (grad. norm)   ....   1.000e-05
   Grad. Scal. Fac. for Micro threshold ....   0.100
   Minimum threshold for Micro iter.    ....   1.000e-02
   NR start threshold (gradient norm)   ....   1.000e-04
   Initial trust radius                 ....   0.400
   Minimum AH scaling param. (alpha)    ....   1.000
   Maximum AH scaling param. (alpha)    .... 1000.000
   Quad. conv. algorithm                .... NR
   White noise on init. David. guess    .... on
   Maximum white noise                  ....   0.010
   Pseudo random numbers                .... off
   Inactive MOs                         .... canonical
   Orbital update algorithm             .... Taylor
   Preconditioner                       .... Diag
   Full preconditioner red. dimension   ....   250
 SOSCF                 CNVSOSCF           .... on
   Start iteration     SOSCFMaxIt         ....   150
   Startup grad/error  SOSCFStart         ....  0.003300
   Hessian update      SOSCFHessUp        .... L-BFGS
   Autom. constraints  SOSCFAutoConstrain .... off
 Level Shifting         CNVShift        .... on
   Level shift para.    LevelShift      ....    0.2500
   Turn off err/grad.   ShiftErr        ....    0.0010
 Zerner damping         CNVZerner       .... off
 Static damping         CNVDamp         .... on
   Fraction old density DampFac         ....    0.7000
   Max. Damping (<1)    DampMax         ....    0.9800
   Min. Damping (>=0)   DampMin         ....    0.0000
   Turn off err/grad.   DampErr         ....    0.1000

SCF Procedure:
 Maximum # iterations   MaxIter         ....   125
 SCF integral mode      SCFMode         .... Direct
   Integral package                     .... SHARK and LIBINT hybrid scheme
 Reset frequency        DirectResetFreq ....    20
 Integral Threshold     Thresh          ....  2.500e-11 Eh
 Primitive CutOff       TCut            ....  2.500e-12 Eh

Convergence Tolerance:
 Convergence Check Mode ConvCheckMode   .... Total+1el-Energy
 Convergence forced     ConvForced      .... 0
 Energy Change          TolE            ....  1.000e-08 Eh
 1-El. energy change                    ....  1.000e-05 Eh
 Orbital Gradient       TolG            ....  1.000e-05
 Orbital Rotation angle TolX            ....  1.000e-05
 DIIS Error             TolErr          ....  5.000e-07

------------------------------
INITIAL GUESS: MODEL POTENTIAL
------------------------------
Loading Hartree-Fock densities                     ... done
Calculating cut-offs                               ... done
Initializing the effective Hamiltonian             ... done
Setting up the integral package (SHARK)            ... done
Starting the Coulomb interaction                   ... done (   0.0 sec)
Making the grid                                    ... done (   0.0 sec)
Mapping shells                                     ... done
Starting the XC term evaluation                    ... done (   0.0 sec)
  promolecular density results
     # of electrons  =     16.000312466
     EX              =    -19.119471482
     EC              =      0.000000000
     EX+EC           =    -19.119471482
Transforming the Hamiltonian                       ... done (   0.0 sec)
Diagonalizing the Hamiltonian                      ... done (   0.0 sec)
Back transforming the eigenvectors                 ... done (   0.0 sec)
Now organizing SCF variables                       ... done
                      ------------------
                      INITIAL GUESS DONE (   0.0 sec)
                      ------------------
             **** ENERGY FILE WAS UPDATED (/cluster/projects/nn14654k/ylvaos/basis_set_n_funcs/functionals/lda_x/SiH2/inp/SiH2_lda_x_pc2.en.tmp) ****
Finished Guess after   0.1 sec
Maximum memory used throughout the entire GUESS-calculation: 6.1 MB


           ************************************************************
           *        Program running with 8 parallel MPI-processes     *
           *              working on a common directory               *
           ************************************************************

-------------------------------------------------------------------------------------------
                                      ORCA LEAN-SCF
                              memory conserving SCF solver
-------------------------------------------------------------------------------------------

----------------------------------------D-I-I-S--------------------------------------------
Iteration    Energy (Eh)           Delta-E    RMSDP     MaxDP     DIISErr   Damp  Time(sec)
-------------------------------------------------------------------------------------------
               ***  Starting incremental Fock matrix formation  ***
    1    -288.2689980356619799     0.00e+00  3.16e-03  1.51e-02  6.14e-02  0.700   0.1
Warning: op=0 Small HOMO/LUMO gap (   0.049) - skipping pre-diagonalization
         Will do a full diagonalization
    2    -288.2726870363719627    -3.69e-03  3.35e-03  1.61e-02  4.16e-02  0.700   0.1
                               ***Turning on AO-DIIS***
    3    -288.2749826213409960    -2.30e-03  1.99e-03  1.25e-02  2.27e-02  0.700   0.1
    4    -288.2763249797972094    -1.34e-03  4.25e-03  3.11e-02  1.40e-02  0.000   0.1
                              *** Initializing SOSCF ***
---------------------------------------S-O-S-C-F--------------------------------------
Iteration    Energy (Eh)           Delta-E    RMSDP     MaxDP     MaxGrad    Time(sec)
--------------------------------------------------------------------------------------
    5    -288.2790422328324098    -2.72e-03  4.98e-04  3.06e-03  1.59e-03     0.1
               *** Restarting incremental Fock matrix formation ***
    6    -288.2790559336485785    -1.37e-05  3.26e-04  1.77e-03  3.39e-04     0.1
    7    -288.2790574066037266    -1.47e-06  6.89e-05  3.12e-04  1.23e-04     0.1
    8    -288.2790575646782258    -1.58e-07  3.18e-05  2.71e-04  4.63e-05     0.1
    9    -288.2790575802272315    -1.55e-08  8.21e-06  6.81e-05  9.14e-06     0.1
   10    -288.2790575816234764    -1.40e-09  1.65e-06  1.41e-05  2.36e-06     0.1
                 **** Energy Check signals convergence ****

               *****************************************************
               *                     SUCCESS                       *
               *           SCF CONVERGED AFTER  10 CYCLES          *
               *****************************************************

             **** ENERGY FILE WAS UPDATED (/cluster/projects/nn14654k/ylvaos/basis_set_n_funcs/functionals/lda_x/SiH2/inp/SiH2_lda_x_pc2.en.tmp) ****

----------------
TOTAL SCF ENERGY
----------------

Total Energy       :       -288.27905758168549 Eh           -7844.47196 eV

Components:
Nuclear Repulsion  :         10.02885109619548 Eh             272.89891 eV
Electronic Energy  :       -298.30790867788096 Eh           -8117.37087 eV
One Electron Energy:       -421.64623342283090 Eh          -11473.57732 eV
Two Electron Energy:        123.33832474494992 Eh            3356.20644 eV

Virial components:
Potential Energy   :       -577.95948102513421 Eh          -15727.07703 eV
Kinetic Energy     :        289.68042344344877 Eh            7882.60507 eV
Virial Ratio       :          1.99516237291735

DFT components:
N(Alpha)           :        8.000000371522 electrons
N(Beta)            :        8.000000371522 electrons
N(Total)           :       16.000000743043 electrons
E(X)               :      -19.168298591611 Eh       
E(C)               :        0.000000000000 Eh       
E(XC)              :      -19.168298591611 Eh       

---------------
SCF CONVERGENCE
---------------

  Last Energy change         ...    1.3962e-09  Tolerance :   1.0000e-08
  Last MAX-Density change    ...    1.4135e-05  Tolerance :   1.0000e-07
  Last RMS-Density change    ...    1.6512e-06  Tolerance :   5.0000e-09
  Last DIIS Error            ...    1.5939e-03  Tolerance :   5.0000e-07
  Last Orbital Gradient      ...    2.3557e-06  Tolerance :   1.0000e-05
  Last Orbital Rotation      ...    3.4056e-06  Tolerance :   1.0000e-05


----------------
ORBITAL ENERGIES
----------------

  NO   OCC          E(Eh)            E(eV) 
   0   2.0000     -65.030194     -1769.5615 
   1   2.0000      -4.975611      -135.3932 
   2   2.0000      -3.422686       -93.1360 
   3   2.0000      -3.411690       -92.8368 
   4   2.0000      -3.408939       -92.7620 
   5   2.0000      -0.422401       -11.4941 
   6   2.0000      -0.251191        -6.8352 
   7   2.0000      -0.172648        -4.6980 
   8   0.0000      -0.119102        -3.2409 
   9   0.0000       0.030037         0.8174 
  10   0.0000       0.040521         1.1026 
  11   0.0000       0.117339         3.1930 
  12   0.0000       0.119134         3.2418 
  13   0.0000       0.136595         3.7169 
  14   0.0000       0.190029         5.1709 
  15   0.0000       0.244176         6.6444 
  16   0.0000       0.373105        10.1527 
  17   0.0000       0.400492        10.8979 
  18   0.0000       0.406496        11.0613 
*Only the first 10 virtual orbitals were printed.

                    ********************************
                    * MULLIKEN POPULATION ANALYSIS *
                    ********************************

-----------------------
MULLIKEN ATOMIC CHARGES
-----------------------
   0 Si:    0.180357
   1 H :   -0.090178
   2 H :   -0.090180
Sum of atomic charges:    0.0000000

--------------------------------
MULLIKEN REDUCED ORBITAL CHARGES
--------------------------------
  0 Sis       :     5.833614  s :     5.833614
      pz      :     2.951938  p :     7.917819
      px      :     1.999977
      py      :     2.965904
      dz2     :     0.041973  d :     0.066088
      dxz     :     0.000002
      dyz     :     0.000702
      dx2y2   :     0.023409
      dxy     :     0.000002
      f0      :     0.001055  f :     0.002121
      f+1     :     0.000000
      f-1     :     0.000671
      f+2     :     0.000005
      f-2     :     0.000000
      f+3     :     0.000000
      f-3     :     0.000390

  1 H s       :     1.073808  s :     1.073808
      pz      :     0.009287  p :     0.016021
      px      :     0.000010
      py      :     0.006724
      dz2     :     0.000187  d :     0.000349
      dxz     :    -0.000000
      dyz     :     0.000156
      dx2y2   :     0.000007
      dxy     :     0.000000

  2 H s       :     1.073811  s :     1.073811
      pz      :     0.006703  p :     0.016020
      px      :     0.000010
      py      :     0.009306
      dz2     :     0.000084  d :     0.000349
      dxz     :     0.000000
      dyz     :     0.000155
      dx2y2   :     0.000111
      dxy     :    -0.000000



                     *******************************
                     * LOEWDIN POPULATION ANALYSIS *
                     *******************************

----------------------
LOEWDIN ATOMIC CHARGES
----------------------
   0 Si:    0.371653
   1 H :   -0.185829
   2 H :   -0.185824

-------------------------------
LOEWDIN REDUCED ORBITAL CHARGES
-------------------------------
  0 Sis       :     5.354287  s :     5.354287
      pz      :     3.077559  p :     8.171681
      px      :     1.999934
      py      :     3.094187
      dz2     :     0.056194  d :     0.091642
      dxz     :     0.000003
      dyz     :     0.000223
      dx2y2   :     0.035220
      dxy     :     0.000003
      f0      :     0.005308  f :     0.010737
      f+1     :     0.000000
      f-1     :     0.002539
      f+2     :     0.000103
      f-2     :     0.000000
      f+3     :     0.000000
      f-3     :     0.002787

  1 H s       :     1.108751  s :     1.108751
      pz      :     0.057555  p :     0.073522
      px      :     0.000030
      py      :     0.015937
      dz2     :     0.002362  d :     0.003555
      dxz     :     0.000000
      dyz     :     0.001172
      dx2y2   :     0.000021
      dxy     :     0.000000

  2 H s       :     1.108750  s :     1.108750
      pz      :     0.015455  p :     0.073519
      px      :     0.000030
      py      :     0.058034
      dz2     :     0.000722  d :     0.003555
      dxz     :     0.000000
      dyz     :     0.001122
      dx2y2   :     0.001711
      dxy     :     0.000000



                      *****************************
                      * MAYER POPULATION ANALYSIS *
                      *****************************

  NA   - Mulliken gross atomic population
  ZA   - Total nuclear charge
  QA   - Mulliken gross atomic charge
  VA   - Mayer's total valence
  BVA  - Mayer's bonded valence
  FA   - Mayer's free valence

  ATOM       NA         ZA         QA         VA         BVA        FA
  0 Si    13.8196    14.0000     0.1804     1.8966     1.8966     0.0000
  1 H      1.0902     1.0000    -0.0902     0.9403     0.9403    -0.0000
  2 H      1.0902     1.0000    -0.0902     0.9403     0.9403     0.0000

  Mayer bond orders larger than 0.100000
B(  0-Si,  1-H ) :   0.9483 B(  0-Si,  2-H ) :   0.9483 

-------
TIMINGS
-------

Total SCF time: 0 days 0 hours 0 min 1 sec 

Total time                  ....       1.204 sec
Sum of individual times     ....       1.064 sec  ( 88.4%)

SCF preparation             ....       0.076 sec  (  6.3%)
Fock matrix formation       ....       0.809 sec  ( 67.2%)
  Startup                   ....       0.012 sec  (  1.4% of F)
  Coulomb formation         ....       0.306 sec  ( 37.8% of F)
  XC integration            ....       0.377 sec  ( 46.6% of F)
    XC Preparation          ....       0.000 sec  (  0.0% of XC)
    Basis function eval.    ....       0.008 sec  (  2.2% of XC)
    Density eval.           ....       0.003 sec  (  0.8% of XC)
    XC-Functional eval.     ....       0.003 sec  (  0.8% of XC)
    XC-Potential eval.      ....       0.005 sec  (  1.2% of XC)
Diagonalization             ....       0.000 sec  (  0.0%)
Density matrix formation    ....       0.069 sec  (  5.7%)
Total Energy calculation    ....       0.012 sec  (  1.0%)
Population analysis         ....       0.009 sec  (  0.7%)
Orbital Transformation      ....       0.014 sec  (  1.2%)
Orbital Orthonormalization  ....       0.000 sec  (  0.0%)
DIIS solution               ....       0.036 sec  (  3.0%)
SOSCF solution              ....       0.041 sec  (  3.4%)
Finished LeanSCF after   1.3 sec

Maximum memory used throughout the entire LEANSCF-calculation: 18.3 MB


           ************************************************************
           *        Program running with 8 parallel MPI-processes     *
           *              working on a common directory               *
           ************************************************************

------------------------------------------------------------------------------
                         ORCA PROPERTY INTEGRAL CALCULATIONS
------------------------------------------------------------------------------

GBWName                                   ... /cluster/projects/nn14654k/ylvaos/basis_set_n_funcs/functionals/lda_x/SiH2/inp/SiH2_lda_x_pc2.gbw
Number of atoms                           ...      3
Number of basis functions                 ...     62
Max core memory                           ...   4096 MB

Dipole integrals                          ... YES
Quadrupole integrals                      ... YES
Linear momentum integrals                 ...  NO
Angular momentum integrals                ...  NO
Higher moments length integrals           ...  NO
Higher moments velocity integrals         ...  NO
Kinetic energy integrals                  ...  NO
GIAO right hand sides                     ...  NO
GIAO dipole derivative integrals          ...  NO
SOC integrals                             ...  NO
EPR diamagnetic integrals (GIAO)          ...  NO
EPR gauge integrals                       ...  NO
Field gradient integrals                  ...  NO (   0 nuclei)
Spin-dipole/Fermi contact integrals       ...  NO (   0 nuclei)
Contact density integrals                 ...  NO (   0 nuclei)
Nucleus-orbit integrals                   ...  NO (   0 nuclei)
Geometric perturbations                   ...  NO (   3 nuclei)

Choice of electric origin   ... Center of mass
Position of electric origin ... (  0.0000,  0.0958, -0.0925) 
Choice of magnetic origin   ... GIAO
Position of magnetic origin ... (  0.0000,  0.0000,  0.0000) 

Calculating integrals                     ... Electric Dipole (Length)     done (  0.0 sec)
Calculating integrals                     ... Electric Quadrupole (Length) done (  0.0 sec)

Property integrals calculated in   0.0 sec

Maximum memory used throughout the entire PROPINT-calculation: 6.3 MB
------------------------------------------------------------------------------
                           ORCA ORBITAL LOCALIZATION
------------------------------------------------------------------------------

Input orbitals are from                  ... /cluster/projects/nn14654k/ylvaos/basis_set_n_funcs/functionals/lda_x/SiH2/inp/SiH2_lda_x_pc2.gbw
Output orbitals are to                   ... /cluster/projects/nn14654k/ylvaos/basis_set_n_funcs/functionals/lda_x/SiH2/inp/SiH2_lda_x_pc2.loc
Max. number of iterations                ... 128
Localizations seeded randomly            ... on
Convergence tolerance                    ... 1.000e-06
Threshold for strong local MOs           ... 9.500e-01
Threshold for bond MOs                   ... 8.500e-01
Operator                                 ... 0
Orbital range for localization           ... 1 to 7
Localization criterion                   ... NEW-BOYS
Doing the dipole integrals               ... o.k.
Initial value of the localization sum :     8.854622
ITERATION   0 : L=   10.4586599643 DL=  1.60e+00 (AVERGE_DL)=    0.2763742693 
ITERATION   1 : L=   10.5035402541 DL=  4.49e-02 (AVERGE_DL)=    0.0462293917 
ITERATION   2 : L=   10.5079299455 DL=  4.39e-03 (AVERGE_DL)=    0.0144579710 
ITERATION   3 : L=   10.5082242028 DL=  2.94e-04 (AVERGE_DL)=    0.0037432941 
ITERATION   4 : L=   10.5082376444 DL=  1.34e-05 (AVERGE_DL)=    0.0008000488 
ITERATION   5 : L=   10.5082430816 DL=  5.44e-06 (AVERGE_DL)=    0.0005088352 
ITERATION   6 : L=   10.5082462037 DL=  3.12e-06 (AVERGE_DL)=    0.0003855835 
ITERATION   7 : L=   10.5082500099 DL=  3.81e-06 (AVERGE_DL)=    0.0004257273 
ITERATION   8 : L=   10.5082540654 DL=  4.06e-06 (AVERGE_DL)=    0.0004394537 
ITERATION   9 : L=   10.5082585856 DL=  4.52e-06 (AVERGE_DL)=    0.0004639482 
ITERATION  10 : L=   10.5082636102 DL=  5.02e-06 (AVERGE_DL)=    0.0004891500 
ITERATION  11 : L=   10.5082692384 DL=  5.63e-06 (AVERGE_DL)=    0.0005176942 
ITERATION  12 : L=   10.5082755699 DL=  6.33e-06 (AVERGE_DL)=    0.0005490932 
ITERATION  13 : L=   10.5082827229 DL=  7.15e-06 (AVERGE_DL)=    0.0005836258 
ITERATION  14 : L=   10.5082908319 DL=  8.11e-06 (AVERGE_DL)=    0.0006214011 
ITERATION  15 : L=   10.5083000506 DL=  9.22e-06 (AVERGE_DL)=    0.0006625609 
ITERATION  16 : L=   10.5083105550 DL=  1.05e-05 (AVERGE_DL)=    0.0007072551 
ITERATION  17 : L=   10.5083225452 DL=  1.20e-05 (AVERGE_DL)=    0.0007556202 
ITERATION  18 : L=   10.5083362482 DL=  1.37e-05 (AVERGE_DL)=    0.0008077890 
ITERATION  19 : L=   10.5083519206 DL=  1.57e-05 (AVERGE_DL)=    0.0008638908 
ITERATION  20 : L=   10.5083698513 DL=  1.79e-05 (AVERGE_DL)=    0.0009240351 
ITERATION  21 : L=   10.5083903635 DL=  2.05e-05 (AVERGE_DL)=    0.0009883175 
ITERATION  22 : L=   10.5084138164 DL=  2.35e-05 (AVERGE_DL)=    0.0010567896 
ITERATION  23 : L=   10.5084406058 DL=  2.68e-05 (AVERGE_DL)=    0.0011294641 
ITERATION  24 : L=   10.5084711642 DL=  3.06e-05 (AVERGE_DL)=    0.0012062992 
ITERATION  25 : L=   10.5085059576 DL=  3.48e-05 (AVERGE_DL)=    0.0012871802 
ITERATION  26 : L=   10.5085454821 DL=  3.95e-05 (AVERGE_DL)=    0.0013719034 
ITERATION  27 : L=   10.5085902552 DL=  4.48e-05 (AVERGE_DL)=    0.0014601545 
ITERATION  28 : L=   10.5086408050 DL=  5.05e-05 (AVERGE_DL)=    0.0015514937 
ITERATION  29 : L=   10.5086976541 DL=  5.68e-05 (AVERGE_DL)=    0.0016453269 
ITERATION  30 : L=   10.5087612992 DL=  6.36e-05 (AVERGE_DL)=    0.0017408962 
ITERATION  31 : L=   10.5088321850 DL=  7.09e-05 (AVERGE_DL)=    0.0018372568 
ITERATION  32 : L=   10.5089106734 DL=  7.85e-05 (AVERGE_DL)=    0.0019332729 
ITERATION  33 : L=   10.5089970087 DL=  8.63e-05 (AVERGE_DL)=    0.0020276103 
ITERATION  34 : L=   10.5090912804 DL=  9.43e-05 (AVERGE_DL)=    0.0021187564 
ITERATION  35 : L=   10.5091933865 DL=  1.02e-04 (AVERGE_DL)=    0.0022050381 
ITERATION  36 : L=   10.5093030016 DL=  1.10e-04 (AVERGE_DL)=    0.0022846814 
ITERATION  37 : L=   10.5094195515 DL=  1.17e-04 (AVERGE_DL)=    0.0023558431 
ITERATION  38 : L=   10.5095422043 DL=  1.23e-04 (AVERGE_DL)=    0.0024167346 
ITERATION  39 : L=   10.5096698763 DL=  1.28e-04 (AVERGE_DL)=    0.0024656886 
ITERATION  40 : L=   10.5098012592 DL=  1.31e-04 (AVERGE_DL)=    0.0025012651 
ITERATION  41 : L=   10.5099348656 DL=  1.34e-04 (AVERGE_DL)=    0.0025223423 
ITERATION  42 : L=   10.5100690945 DL=  1.34e-04 (AVERGE_DL)=    0.0025282116 
ITERATION  43 : L=   10.5102023068 DL=  1.33e-04 (AVERGE_DL)=    0.0025186187 
ITERATION  44 : L=   10.5103329070 DL=  1.31e-04 (AVERGE_DL)=    0.0024938040 
ITERATION  45 : L=   10.5104594204 DL=  1.27e-04 (AVERGE_DL)=    0.0024544749 
ITERATION  46 : L=   10.5105805588 DL=  1.21e-04 (AVERGE_DL)=    0.0024017693 
ITERATION  47 : L=   10.5106952686 DL=  1.15e-04 (AVERGE_DL)=    0.0023371719 
ITERATION  48 : L=   10.5108027578 DL=  1.07e-04 (AVERGE_DL)=    0.0022624180 
ITERATION  49 : L=   10.5109025027 DL=  9.97e-05 (AVERGE_DL)=    0.0021793933 
ITERATION  50 : L=   10.5109942350 DL=  9.17e-05 (AVERGE_DL)=    0.0020900250 
ITERATION  51 : L=   10.5110779154 DL=  8.37e-05 (AVERGE_DL)=    0.0019961918 
ITERATION  52 : L=   10.5111536982 DL=  7.58e-05 (AVERGE_DL)=    0.0018996591 
ITERATION  53 : L=   10.5112218912 DL=  6.82e-05 (AVERGE_DL)=    0.0018020230 
ITERATION  54 : L=   10.5112829152 DL=  6.10e-05 (AVERGE_DL)=    0.0017046715 
ITERATION  55 : L=   10.5113372662 DL=  5.44e-05 (AVERGE_DL)=    0.0016087701 
ITERATION  56 : L=   10.5113854830 DL=  4.82e-05 (AVERGE_DL)=    0.0015152686 
ITERATION  57 : L=   10.5114281213 DL=  4.26e-05 (AVERGE_DL)=    0.0014249184 
ITERATION  58 : L=   10.5114657317 DL=  3.76e-05 (AVERGE_DL)=    0.0013382726 
ITERATION  59 : L=   10.5114988453 DL=  3.31e-05 (AVERGE_DL)=    0.0012557217 
ITERATION  60 : L=   10.5115279626 DL=  2.91e-05 (AVERGE_DL)=    0.0011775128 
ITERATION  61 : L=   10.5115535469 DL=  2.56e-05 (AVERGE_DL)=    0.0011037662 
ITERATION  62 : L=   10.5115760215 DL=  2.25e-05 (AVERGE_DL)=    0.0010345143 
ITERATION  63 : L=   10.5115957684 DL=  1.97e-05 (AVERGE_DL)=    0.0009697072 
ITERATION  64 : L=   10.5116131290 DL=  1.74e-05 (AVERGE_DL)=    0.0009092277 
ITERATION  65 : L=   10.5116284063 DL=  1.53e-05 (AVERGE_DL)=    0.0008529298 
ITERATION  66 : L=   10.5116418671 DL=  1.35e-05 (AVERGE_DL)=    0.0008006189 
ITERATION  67 : L=   10.5116537450 DL=  1.19e-05 (AVERGE_DL)=    0.0007520742 
ITERATION  68 : L=   10.5116642446 DL=  1.05e-05 (AVERGE_DL)=    0.0007070925 
ITERATION  69 : L=   10.5116735434 DL=  9.30e-06 (AVERGE_DL)=    0.0006654303 
ITERATION  70 : L=   10.5116817952 DL=  8.25e-06 (AVERGE_DL)=    0.0006268514 
ITERATION  71 : L=   10.5116891334 DL=  7.34e-06 (AVERGE_DL)=    0.0005911346 
ITERATION  72 : L=   10.5116956735 DL=  6.54e-06 (AVERGE_DL)=    0.0005580606 
ITERATION  73 : L=   10.5117015147 DL=  5.84e-06 (AVERGE_DL)=    0.0005274037 
ITERATION  74 : L=   10.5117067432 DL=  5.23e-06 (AVERGE_DL)=    0.0004989727 
ITERATION  75 : L=   10.5117114332 DL=  4.69e-06 (AVERGE_DL)=    0.0004725818 
ITERATION  76 : L=   10.5117156486 DL=  4.22e-06 (AVERGE_DL)=    0.0004480359 
ITERATION  77 : L=   10.5117194452 DL=  3.80e-06 (AVERGE_DL)=    0.0004251939 
ITERATION  78 : L=   10.5117228708 DL=  3.43e-06 (AVERGE_DL)=    0.0004038836 
ITERATION  79 : L=   10.5117259668 DL=  3.10e-06 (AVERGE_DL)=    0.0003839675 
ITERATION  80 : L=   10.5117287701 DL=  2.80e-06 (AVERGE_DL)=    0.0003653599 
ITERATION  81 : L=   10.5117313117 DL=  2.54e-06 (AVERGE_DL)=    0.0003478934 
ITERATION  82 : L=   10.5117336195 DL=  2.31e-06 (AVERGE_DL)=    0.0003315014 
ITERATION  83 : L=   10.5117357173 DL=  2.10e-06 (AVERGE_DL)=    0.0003160634 
ITERATION  84 : L=   10.5117376264 DL=  1.91e-06 (AVERGE_DL)=    0.0003015116 
ITERATION  85 : L=   10.5117393654 DL=  1.74e-06 (AVERGE_DL)=    0.0002877709 
ITERATION  86 : L=   10.5117409511 DL=  1.59e-06 (AVERGE_DL)=    0.0002747921 
ITERATION  87 : L=   10.5117423978 DL=  1.45e-06 (AVERGE_DL)=    0.0002624643 
ITERATION  88 : L=   10.5117437185 DL=  1.32e-06 (AVERGE_DL)=    0.0002507843 
ITERATION  89 : L=   10.5117449251 DL=  1.21e-06 (AVERGE_DL)=    0.0002396982 
ITERATION  90 : L=   10.5117460276 DL=  1.10e-06 (AVERGE_DL)=    0.0002291324 
ITERATION  91 : L=   10.5117470357 DL=  1.01e-06 (AVERGE_DL)=    0.0002190931 
ITERATION  92 : L=   10.5117479576 DL=  9.22e-07 (AVERGE_DL)=    0.0002095242 
LOCALIZATION SUM CONVERGED


--------------------------------------------------------------------------------
                    LOCALIZED MOLECULAR ORBITAL COMPOSITIONS
--------------------------------------------------------------------------------

The Mulliken populations for each LMO on each atom are computed
The LMO`s will be ordered according to atom index and type
  (A) Strongly localized MO`s have populations of >=0.950 on one atom
  (B) Two center bond orbitals have populations of >=0.850 on two atoms
  (C) Other MO`s are considered to be `delocalized`

FOUND  -   5 strongly local MO`s
       -   2 two center bond MO`s
       -   0 significantly delocalized MO`s

Rather strongly localized orbitals:
MO   5:   0Si -   1.017954
MO   4:   0Si -   1.001280
MO   3:   0Si -   1.001720
MO   2:   0Si -   1.001396
MO   1:   0Si -   0.998792
Bond-like localized orbitals:
MO   7:   2H  -   0.570818  and   0Si -   0.444350
MO   6:   1H  -   0.570817  and   0Si -   0.444350
Localized MO's were stored in: /cluster/projects/nn14654k/ylvaos/basis_set_n_funcs/functionals/lda_x/SiH2/inp/SiH2_lda_x_pc2.loc

-------------------------   --------------------
FINAL SINGLE POINT ENERGY      -288.279057581685
-------------------------   --------------------



           ************************************************************
           *        Program running with 8 parallel MPI-processes     *
           *              working on a common directory               *
           ************************************************************

------------------------------------------------------------------------------
                              ORCA PROPERTY CALCULATIONS
------------------------------------------------------------------------------

GBWName                                 ... /cluster/projects/nn14654k/ylvaos/basis_set_n_funcs/functionals/lda_x/SiH2/inp/SiH2_lda_x_pc2.gbw
Number of atoms                         ...      3
Number of basis functions               ...     62
Max core memory                         ...   4096 MB

Electric properties:
Dipole moment                           ... YES
Quadrupole moment                       ... YES
Static polarizability (Dipole/Dipole)   ...  NO
Static polarizability (Dipole/Quad.)    ...  NO
Static polarizability (Quad./Quad.)     ...  NO
Static polarizability (Velocity)        ...  NO
Static hyperpolarizability              ...  NO

Atomic electric properties:
Dipole moment                           ...  NO
Quadrupole moment                       ...  NO
Static polarizability                   ...  NO

Choice of electric origin               ... Center of mass
Position of electric origin             ...     0.000000     0.095755    -0.092471

General magnetic properties:
Magnetizability                         ...  NO

EPR properties:
g-Tensor (aka g-matrix)                 ...  NO
Zero-Field splitting spin-orbit         ...  NO
Zero-field splitting spin-spin          ...  NO
Hyperfine couplings                     ...  NO (   0 nuclei)
Quadrupole couplings                    ...  NO (   0 nuclei)
Contact density                         ...  NO (   0 nuclei)

NMR properties:
Chemical shifts                         ...  NO (   0 nuclei)
Spin-rotation constants                 ...  NO (   0 nuclei)
Spin-spin couplings                     ...  NO (   0 nuclei,    0 pairs)

Choice of magnetic origin               ... GIAO
Position of magnetic origin             ...     0.000000     0.000000     0.000000

Properties with geometric perturbations:
SCF Hessian                             ...  NO
IR spectrum                             ...  NO
VCD spectrum                            ...  NO
X-ray spectroscopy properties:
SCF XES/XAS/RIXS spectra                ...  NO

SCF SOC stabilization energy            ...  NO
Diagonal Born-Oppenheimer correction    ...  NO

-------------
DIPOLE MOMENT
-------------

Method             : SCF
Type of density    : Electron Density
Multiplicity       :   1
Irrep              :   0
Energy             :  -288.2790575816854926 Eh
Basis              : AO
                                X                 Y                 Z
Electronic contribution:      0.000000001      -1.217492874       1.175718673
Nuclear contribution   :      0.000000000       1.327457389      -1.281928022
                        -----------------------------------------
Total Dipole Moment    :      0.000000001       0.109964515      -0.106209349
                        -----------------------------------------
Magnitude (a.u.)       :      0.152881066
Magnitude (Debye)      :      0.388592788



--------------------
Rotational spectrum 
--------------------
 
Rotational constants in cm-1:             8.101050             7.049111             3.769280 
Rotational constants in MHz :        242863.361200        211327.036298        113000.174884 

Dipole components along the rotational axes: 
x,y,z [a.u.] :    -0.000004    -0.152881     0.000000 
x,y,z [Debye]:    -0.000011    -0.388593     0.000000 

 

Dipole moment calculation done in   0.0 sec 

-----------------
QUADRUPOLE MOMENT
-----------------

Method             : SCF
Type of density    : Electron Density
Multiplicity       :   1
Irrep              :   0
Energy             :  -288.2790575816854926 Eh
Basis              : AO

                XX              YY              ZZ              XY              XZ              YZ
  NUC        0.000000000     7.776008003     7.822723490     0.000000000     0.000000000     0.672490579
  EL        -9.443181924   -21.056339407   -21.044971381     0.000000001    -0.000000000     0.159490466
  TOT       -9.443181924   -13.280331404   -13.222247891     0.000000001    -0.000000000     0.831981044 (a.u.)
           -12.701402645   -17.862499925   -17.784375614     0.000000002    -0.000000000     1.119042959 (Buckingham)

diagonalized tensor:
           -14.083777414   -12.418801881    -9.443181924 (a.u.)
           -18.943162287   -16.703713252   -12.701402645 (Buckingham)
            -8.481208678    -1.762861573    10.244070250 (traceless form in Buckingham)

             0.000000000    -0.000000000     1.000000000
            -0.719334938     0.694663406     0.000000000
             0.694663406     0.719334938    -0.000000000
        
Isotropic quadrupole :   -11.981920406

Quadrupole moment calculation done in   0.0 sec (  0.0 sec for integrals)

Maximum memory used throughout the entire PROP-calculation: 2.8 MB

--------------------------------
SUGGESTED CITATIONS FOR THIS RUN
--------------------------------

Below you find a list of papers that are relevant to this ORCA run
We neither can nor want to force you to cite these papers, but we appreciate if you do
You receive ORCA, which is the product of decades of hard work by many enthusiastic individuals, for free
The only thing we kindly ask in return is that you cite our papers,
We deeply appreciate it, if you show your appreciation for ORCA by not just citing the generic ORCA reference.

Please note that relegating all ORCA citations to the supporting information does *not* help us.
SI sections are not indexed - citations you put there will not count into any citation statistics
But we need these citations in order to attract the funding resources that allow us to do what we are doing

Therefore, if you are a happy ORCA user, please consider citing a few of the papers listed below in the main body of your paper

In addition to the list printed below, the program has created the file /cluster/projects/nn14654k/ylvaos/basis_set_n_funcs/functionals/lda_x/SiH2/inp/SiH2_lda_x_pc2.bibtex that contains the list in bibtex format
You can import this file easily into all common literature databanks and citation aid programs

It goes without saying that in many instances, there are alternative algorithms to achieve similar
results as the ones you have gotten from ORCA. It is, of course, also the case that in some instances
ORCA just re-implements algorithms worked out by others. We are fully aware of that and we are also
fully appreciative of our colleagues work. Hence this citation list should not be read as indicating
that the listed papers, which are focused on our own work, are the only ones worth citing. It simply
meant to make it easier for users to cite ORCA specific papers. It is not a substitute for doing your
own literature research and citing the relevant literature in a scientifically appropriate manner.

List of essential papers. We consider these as the minimum necessary citations

  1. Neese, F.
     Software update: the ORCA program system, version 6.0
     WIRES Comput. Molec. Sci. 2025 15(1), e70019
     doi.org/10.1002/wcms.70019

List of papers to cite with high priority. The work reported in these papers was absolutely
necessary for this run to complete.
Our perspective: the developers of density functionals and basis sets usually get cited in chemistry papers
Good! But without the algorithms to do something with them, the functionals or basis sets would not do anything.
Hence, in our opinion, the algorithm design and method developments papers are equally worthy of getting cited

  1. Lehtola, S.; Steigemann, C.; Oliveira, M.; Marques, M.
     Recent developments in Libxc - A comprehensive library of functionals for density functional theory
     Software X 2018 7 , 
     doi.org/10.1016/j.softx.2017.11.002
  2. Neese, F.
     The SHARK Integral Generation and Digestion System
     J. Comp. Chem. 2022 44(3), 381
     doi.org/10.1002/jcc.26942

List of suggested additional citations. These are papers that are important in the 'surrounding' of 
of this run, or papers that preceded the highly important papers. If you like your results we are grateful for a citation.

  1. Neese, F.
     The ORCA program system
     WIRES Comput. Molec. Sci. 2012 2(1), 73-78
     doi.org/10.1002/wcms.81
  2. Neese, F.
     Software update: the ORCA program system, version 4.0
     WIRES Comput. Molec. Sci. 2018 8(1), 1-6
     doi.org/10.1002/wcms.1327
  3. Neese, F.; Wennmohs, F.; Becker, U.; Riplinger, C.
     The ORCA quantum chemistry program package
     J. Chem. Phys. 2020 152(22), 224108
     doi.org/10.1063/5.0004608
  4. Neese, F.
     Software update: The ORCA program system—Version 5.0
     WIRES Comput. Molec. Sci. 2022 12(1), e1606
     doi.org/10.1002/wcms.1606

List of optional additional citations

  1. Neese, F.
     Approximate second-order SCF convergence for spin unrestricted wavefunctions
     Chem. Phys. Lett. 2000 325(1-3), 93-98
     doi.org/10.1016/s0009-2614(00)00662-x

Timings for individual modules:

Sum of individual times          ...        2.870 sec (=   0.048 min)
Startup calculation              ...        0.459 sec (=   0.008 min)  16.0 %
SCF iterations                   ...        1.872 sec (=   0.031 min)  65.2 %
Property integrals               ...        0.277 sec (=   0.005 min)   9.6 %
Property calculations            ...        0.258 sec (=   0.004 min)   9.0 %
Orbital localization             ...        0.004 sec (=   0.000 min)   0.2 %
                             ****ORCA TERMINATED NORMALLY****
TOTAL RUN TIME: 0 days 0 hours 0 minutes 5 seconds 343 msec
