
                                 *****************
                                 * O   R   C   A *
                                 *****************

                                            #,                                       
                                            ###                                      
                                            ####                                     
                                            #####                                    
                                            ######                                   
                                           ########,                                 
                                     ,,################,,,,,                         
                               ,,#################################,,                 
                          ,,##########################################,,             
                       ,#########################################, ''#####,          
                    ,#############################################,,   '####,        
                  ,##################################################,,,,####,       
                ,###########''''           ''''###############################       
              ,#####''   ,,,,##########,,,,          '''####'''          '####       
            ,##' ,,,,###########################,,,                        '##       
           ' ,,###''''                  '''############,,,                           
         ,,##''                                '''############,,,,        ,,,,,,###''
      ,#''                                            '''#######################'''  
     '                                                          ''''####''''         
             ,#######,   #######,   ,#######,      ##                                
            ,#'     '#,  ##    ##  ,#'     '#,    #''#        ,####,    ,#,          
            ##       ##  ##   ,#'  ##            #'  '#       #'       ,# #          
            ##       ##  #######   ##           ,######,      #####,      #          
            '#,     ,#'  ##    ##  '#,     ,#' ,#      #,     #,   #      #          
             '#######'   ##     ##  '#######'  #'      '#     '####' #    #          



                #########################################################
                #                        -***-                          #
                #          Department of theory and spectroscopy        #
                #                                                       #
                #                      Frank Neese                      #
                #                                                       #
                #     Directorship, Architecture, Infrastructure        #
                #                    SHARK, DRIVERS                     #
                #        Core code/Algorithms in most modules           #
                #                                                       #
                #        Max Planck Institute fuer Kohlenforschung      #
                #                Kaiser Wilhelm Platz 1                 #
                #                 D-45470 Muelheim/Ruhr                 #
                #                      Germany                          #
                #                                                       #
                #                  All rights reserved                  #
                #                        -***-                          #
                #########################################################


                         Program Version 6.1.1  -  RELEASE   -
                                (GIT: $487d211c$)
                          ($2025-11-21 10:33:24 +0100$)


 With contributions from (in alphabetic order):
[Max-Planck-Institut fuer Kohlenforschung]                               
  Daniel Aravena         : Magnetic Suceptibility                        
  Michael Atanasov       : Ab Initio Ligand Field Theory (pilot matlab implementation)
  Alexander A. Auer      : GIAO ZORA, VPT2 properties, NMR spectrum      
  Ute Becker             : All parallelization in ORCA, NUMFREQ, NUMCALC 
  Giovanni Bistoni       : ED, misc. LED, open-shell LED, HFLD           
  Dmytro Bykov           : pre 5.0 version of the SCF Hessian            
  Marcos Casanova-Páez   : Triplet and SCS-CIS(D). UHF-(DLPNO)-IP/EA/STEOM-CCSD. UHF-CVS-IP/STEOM-CCSD   
  Vijay G. Chilkuri      : MRCI spin determinant printing, contributions to CSF-ICE 
  Pauline Colinet        : FMM embedding                                 
  Dipayan Datta          : RHF DLPNO-CCSD density                        
  Achintya Kumar Dutta   : EOM-CC, STEOM-CC                              
  Nicolas Foglia         : Exact transition moments, OPA infrastructure, MCD improvements    
  Dmitry Ganyushin       : Spin-Orbit,Spin-Spin,Magnetic field MRCI      
  Miquel Garcia-Rates    : C-PCM and meta-GGA Hessian, CCSD/C-PCM, Gaussian charge scheme 
  Tiago L. C. Gouveia    : GS-ROHF, GS-ROCIS                             
  Yang Guo               : DLPNO-NEVPT2, F12-NEVPT2, CIM, IAO-localization        
  Andreas Hansen         : Spin unrestricted coupled pair/coupled cluster methods 
  Ingolf Harden          : AUTO-CI MPn and infrastructure                
  Benjamin Helmich-Paris : MC-RPA, TRAH-(SCF,CASSCF), AVAS, COSX integrals, SCF dyn. polar., MC-PDFT, srDFT 
  Lee Huntington         : MR-EOM, pCC                                   
  Robert Izsak           : Overlap fitted RIJCOSX, COSX-SCS-MP3, EOM     
  Riya Kayal             : Wick's Theorem for AUTO-CI, AUTO-CI UHF-CCSDT 
  Emily Kempfer          : AUTO-CI RHF CISDT and CCSDT, approximate NEVPT4
  Christian Kollmar      : KDIIS, OOCD, Brueckner-CCSD(T), CCSD density, CASPT2, CASPT2-K, improved NEVPT2 
  Axel Koslowski         : Symmetry handling                             
  Simone Kossmann        : meta-GGA functionals, TD-DFT gradient, OOMP2, (MP2 Hessian; deprecated post 5.0) 
  Lucas Lang             : DCDCAS, Hyperfine gauge corrections, ICE-SOC+SSC
  Marvin Lechner         : AUTO-CI (C++ implementation), FIC-MRCC        
  Spencer Leger          : CASSCF response                               
  Dagmar Lenk            : GEPOL surface, SMD, ORCA-2-JSON               
  Dimitrios Liakos       : Extrapolation schemes; Compound Job, Property file
  Dimitrios Manganas     : Further ROCIS development; embedding schemes. LFT, Crystal Embedding 
  Dimitrios Pantazis     : SARC Basis sets                               
  Anastasios Papadopoulos: AUTO-CI, single reference methods and gradients 
  Taras Petrenko         : pre 6.0 DFT Hessian and TD-DFT gradient,  ECA, NRVS 
  Petra Pikulova         : Analytic Raman intensities                    
  Peter Pinski           : DLPNO-MP2, DLPNO-MP2 Gradient                 
  Shashank Vittal Rao    : ES-AILFT, MagRelax                            
  Christoph Reimann      : Effective Core Potentials                     
  Marius Retegan         : Local ZFS, SOC                                
  Christoph Riplinger    : Optimizer, TS searches, QM/MM, DLPNO-CCSD(T), (RO)-DLPNO pert. Triples 
  Michael Roemelt        : Original ROCIS implementation, recursive CI coupling coefficients
  Masaaki Saitow         : Open-shell DLPNO-CCSD energy and density      
  Barbara Sandhoefer     : DKH picture change effects                    
  Yorick L. A. Schmerwitz: GMF and freeze-and-release deltaSCF, NEB S-IDPP initial path                    
  Kantharuban Sivalingam : CASSCF convergence/infrastructure, NEVPT2, NEVPT3, NEVPT4(SD), FIC-MRCI and CEPA variants
  Bernardo de Souza      : ESD, SOC TD-DFT                               
  Georgi L. Stoychev     : AutoAux, RI-MP2 NMR, DLPNO-MP2 response, X2C  
  Van Anh Tran           : RI-MP2 g-tensors                              
  Willem Van den Heuvel  : Paramagnetic NMR                              
  Zikuan Wang            : NOTCH, Electric field optimization            
  Frank Wennmohs         : Technical directorship and infrastructure     
  Hang Xu                : AUTO-CI-Response properties                   
                                                                         
[FACCTs GmbH]                                                            
  Markus Bursch, Nicolas Foglia, Miquel Garcia-Rates, Ingolf Harden, Hagen Neugebauer, Anastasios Papadopoulos, 
  Christoph Riplinger, Bernardo de Souza, Georgi L. Stoychev                                                    
                                                                 
  APM, various basis sets, CI-OPT, improved COSX, DLPNO-Multilevel,           
  DOCKER, DRACO, updates on ESD, Fragmentator, GOAT, IRC, LR-CPCM, L-BFGS, MBIS, meta-GGA TD-DFT gradient, ML-optimized integration grids, 
  MM, NACMEs, nearIR, NEB, NEB-TS, NL-DFT gradient (VV10), 2- and 3-layer-ONIOM, interface openCOSMO-RS, QMMM,   
  Crystal-QMMM, RESP, rigid body optimization, SF, symmetry and pop. for TD-DFT, various functionals, SOLVATOR                                   
                                                                         
[Other institutions]                                                     
  V. Asgeirsson          : NEB                                           
  Christoph Bannwarth    : sTDA-DFT, sTD-DFT, PBEh-3c, B97-3c, D3        
  Giovanni Bistoni       : ETS/NOCV, ADLD/ADEX, COVALED                  
  Martin Brehm           : Molecular dynamics                            
  Ronald Cardenas        : ETS/NOCV                                      
  Martina Colucci        : COVALED                                       
  Sebastian Ehlert       : rSCAN, r2SCAN, r2SCAN-3c, D4, dhf basis sets  
  Marvin Friede          : D4 for Fr, Ra, Ac-Lr                          
  Lars Goerigk           : TD-DFT with DH, B97 family of functionals     
  Stefan Grimme          : VdW corrections, initial TS optimization, DFT functionals, gCP, sTDA/sTD-DF 
  Waldemar Hujo          : DFT-NL                                        
  H. Jonsson             : NEB                                           
  Holger Kruse           : gCP                                           
  Marcel Mueller         : wB97X-3c, vDZP basis set                      
  Hagen Neugebauer       : wr2SCAN, Native XTB                           
  Gianluca Regni         : ADLD/ADEX                                     
  Tobias Risthaus        : pre 6.0 range-separated hybrid DFT and stability analysis
  Lukas Wittmann         : regularized MP2, r2SCAN double-hybrids, wr2SCAN        
                                                                         
We gratefully acknowledge several colleagues who have allowed us to      
interface, adapt or use parts of their codes:                            
  Ed Valeev, F. Pavosevic, A. Kumar             : LibInt (2-el integral package), F12 methods 
  Garnet Chan, S. Sharma, J. Yang, R. Olivares  : DMRG                   
  Ulf Ekstrom                                   : XCFun DFT Library      
  Mihaly Kallay                                 : mrcc  (arbitrary order and MRCC methods)
  Frank Weinhold                                : gennbo (NPA and NBO analysis)           
  Simon Mueller                                 : openCOSMO-RS                            
  Christopher J. Cramer and Donald G. Truhlar   : smd solvation model                     
  S Lehtola, MJT Oliveira, MAL Marques          : LibXC Library                           
  Liviu Ungur et al                             : ANISO software                          


 Your calculation uses the libint2 library for the computation of 2-el integrals
 For citations please refer to: http://libint.valeyev.net

 Your ORCA version has been built with support for libXC version: 7.0.0
 For citations please refer to: https://libxc.gitlab.io

 This ORCA versions uses:
   CBLAS   interface :  Fast vector & matrix operations
   LAPACKE interface :  Fast linear algebra routines
   SCALAPACK package :  Parallel linear algebra routines
   Shared memory     :  Shared parallel matrices
   BLAS/LAPACK       :  OpenBLAS 0.3.29  USE64BITINT DYNAMIC_ARCH NO_AFFINITY Cooperlake SINGLE_THREADED
        Core in use  :  Cooperlake
   Copyright (c) 2011-2014, The OpenBLAS Project


  ***********************************
  * Starting time: Wed May 20 12:33:02 2026
  * Host name:     c1-45
  * Process ID:    3525527
  * Working dir.:  /cluster/projects/nn14654k/ylvaos/basis_set_n_funcs/functionals/gga_x_N12/CH3COOH/out
  ***********************************

Using LibXC functional ID  82 : Minnesota N12 exchange functional
[ 1]  R. Peverati and D. G. Truhlar.,  J. Chem. Theory Comput. 8, 2310 (2012)
Using LibXC functional ID  82 : Minnesota N12 exchange functional
[ 1]  R. Peverati and D. G. Truhlar.,  J. Chem. Theory Comput. 8, 2310 (2012)
Your calculation utilizes LibXC
by S. Lehtola, C. Steigemann, M. J. T. Oliveira & M. A. L. Marques
Please cite in your paper:
Lehtola, S.; Steigemann, C.; Oliveira, M.J.T.; Marques, M. A. L. Software X, 7, (2018), 1.
   

================================================================================

----- Orbital basis set information -----
Your calculation utilizes the basis: pc-4
   H, C-F              : F. Jensen, J. Chem. Phys. 115, 9113 (2001).
                         F. Jensen, J. Chem. Phys. 116, 7372 (2002).
                         F. Jensen, J. Chem. Phys. 117, 9234 (2002).
   Si-Cl               : F. Jensen, T. Helgaker, J. Chem. Phys. 121, 3463 (2004).
   He-B, Ne-Mg, Al, Ar : F. Jensen, J. Phys. Chem. A 111, 11198 (2007).
   K, Ca, Ga-Kr        : F. Jensen, J. Chem. Phys. 136, 094110 (2012).
   Sc-Zn               : F. Jensen, J. Chem. Phys. 138, 014107 (2013).

================================================================================
                                        WARNINGS
                       Please study these warnings very carefully!
================================================================================


WARNING: The basis set has functions with high angular momentum (Lmax>4).
         We might need to increase small grids for safety reasons and
         in general, DEFGRID3 is recommend for such cases.
  ===> : GRIDX1, TD-DFT and the CP-SCF AngGrids will be increased to at least 2


================================================================================
                                       INPUT FILE
================================================================================
NAME = /cluster/projects/nn14654k/ylvaos/basis_set_n_funcs/functionals/gga_x_N12/CH3COOH/inp/CH3COOH_gga_x_N12_pc4.inp
|  1> ! dft pc-4 TightSCF
|  2> %pal nprocs 8 end
|  3> 
|  4> %loc
|  5>   LocMet NewBoys
|  6>   Occ true
|  7> end
|  8> 
|  9> %method
| 10>   exchange gga_x_N12
| 11>   correlation None
| 12> end
| 13> 
| 14> %elprop
| 15>   Dipole true
| 16>   Quadrupole true
| 17> end
| 18> 
| 19> * xyz 0 1
| 20> C    0.000000000000   0.154560000000   0.000000000000
| 21> C    1.073776000000  -0.892748000000   0.000000000000
| 22> O    0.166384000000   1.360084000000   0.000000000000
| 23> O   -1.236449000000  -0.415036000000   0.000000000000
| 24> H   -1.867646000000   0.333582000000   0.000000000000
| 25> H    2.048189000000  -0.408135000000   0.000000000000
| 26> H    0.968661000000  -1.528353000000   0.881747000000
| 27> H    0.968661000000  -1.528353000000  -0.881747000000
| 28> *
| 29> 
| 30> 
| 31>                          ****END OF INPUT****
================================================================================

                       ****************************
                       * Single Point Calculation *
                       ****************************

---------------------------------
CARTESIAN COORDINATES (ANGSTROEM)
---------------------------------
  C      0.000000    0.154560    0.000000
  C      1.073776   -0.892748    0.000000
  O      0.166384    1.360084    0.000000
  O     -1.236449   -0.415036    0.000000
  H     -1.867646    0.333582    0.000000
  H      2.048189   -0.408135    0.000000
  H      0.968661   -1.528353    0.881747
  H      0.968661   -1.528353   -0.881747

----------------------------
CARTESIAN COORDINATES (A.U.)
----------------------------
  NO LB      ZA    FRAG     MASS         X           Y           Z
   0 C     6.0000    0    12.011    0.000000    0.292076    0.000000
   1 C     6.0000    0    12.011    2.029143   -1.687049    0.000000
   2 O     8.0000    0    15.999    0.314420    2.570186    0.000000
   3 O     8.0000    0    15.999   -2.336550   -0.784304    0.000000
   4 H     1.0000    0     1.008   -3.529339    0.630379    0.000000
   5 H     1.0000    0     1.008    3.870516   -0.771263    0.000000
   6 H     1.0000    0     1.008    1.830504   -2.888169    1.666260
   7 H     1.0000    0     1.008    1.830504   -2.888169   -1.666260

--------------------------------
INTERNAL COORDINATES (ANGSTROEM)
--------------------------------
 C      0   0   0     0.000000000000     0.00000000     0.00000000
 C      1   0   0     1.499949647502     0.00000000     0.00000000
 O      1   2   0     1.216951827326   126.42686784     0.00000000
 O      1   2   3     1.361339683113   110.98078396   180.00000000
 H      4   1   2     0.979203024267   105.40175469   180.00000085
 H      2   1   3     1.088269476893   109.27200725     0.00000000
 H      2   1   3     1.092025938913   109.72406365   120.93315147
 H      2   1   3     1.092025938913   109.72406365   239.06684853

---------------------------
INTERNAL COORDINATES (A.U.)
---------------------------
 C      0   0   0     0.000000000000     0.00000000     0.00000000
 C      1   0   0     2.834494048450     0.00000000     0.00000000
 O      1   2   0     2.299705671821   126.42686784     0.00000000
 O      1   2   3     2.572559176322   110.98078396   180.00000000
 H      4   1   2     1.850425545371   105.40175469   180.00000085
 H      2   1   3     2.056531271234   109.27200725     0.00000000
 H      2   1   3     2.063629955684   109.72406365   120.93315147
 H      2   1   3     2.063629955684   109.72406365   239.06684853

---------------------
BASIS SET INFORMATION
---------------------
There are 3 groups of distinct atoms

 Group   1 Type C   : 27s11p6d3f2g1h contracted to 8s7p6d3f2g1h pattern {1110111111/5111111/111111/111/11/1}
 Group   2 Type O   : 26s11p6d3f2g1h contracted to 8s7p6d3f2g1h pattern {119111111/5111111/111111/111/11/1}
 Group   3 Type H   : 11s6p3d2f1g contracted to 7s6p3d2f1g pattern {5111111/111111/111/11/1}

Atom   0C    basis set group =>   1
Atom   1C    basis set group =>   1
Atom   2O    basis set group =>   2
Atom   3O    basis set group =>   2
Atom   4H    basis set group =>   3
Atom   5H    basis set group =>   3
Atom   6H    basis set group =>   3
Atom   7H    basis set group =>   3


           ************************************************************
           *        Program running with 8 parallel MPI-processes     *
           *              working on a common directory               *
           ************************************************************
------------------------------------------------------------------------------
                             ORCA STARTUP CALCULATIONS
------------------------------------------------------------------------------
------------------------------------------------------------------------------
                   ___                                                        
                  /   \      - P O W E R E D   B Y -                         
                 /     \                                                     
                 |  |  |   _    _      __       _____    __    __             
                 |  |  |  | |  | |    /  \     |  _  \  |  |  /  |          
                  \  \/   | |  | |   /    \    | | | |  |  | /  /          
                 / \  \   | |__| |  /  /\  \   | |_| |  |  |/  /          
                |  |  |   |  __  | /  /__\  \  |    /   |      \           
                |  |  |   | |  | | |   __   |  |    \   |  |\   \          
                \     /   | |  | | |  |  |  |  | |\  \  |  | \   \       
                 \___/    |_|  |_| |__|  |__|  |_| \__\ |__|  \__/        
                                                                              
                      - O R C A' S   B I G   F R I E N D -                    
                                      &                                       
                       - I N T E G R A L  F E E D E R -                       
                                                                              
 v1 FN, 2020, v2 2021, v3 2022-2024                                           
------------------------------------------------------------------------------


----------------------
SHARK INTEGRAL PACKAGE
----------------------

Number of atoms                             ...      8
Number of basis functions                   ...    688
Number of shells                            ...    184
Maximum angular momentum                    ...      5
Integral batch strategy                     ... SHARK/LIBINT Hybrid
RI-J (if used) integral strategy            ... SPLIT-RIJ (Revised 2003 algorithm where possible)
Printlevel                                  ...      1
Contraction scheme used                     ... SEGMENTED contraction
Prescreening option                         ... SCHWARTZ
   Thresh                                   ... 2.500e-11
   Tcut                                     ... 2.500e-12
   Tpresel                                  ... 2.500e-12 
Coulomb Range Separation                    ... NOT USED
Exchange Range Separation                   ... NOT USED
Multipole approximations                    ... NOT USED
Finite Nucleus Model                        ... NOT USED
CABS basis                                  ... NOT available
Auxiliary Coulomb fitting basis             ... NOT available
Auxiliary J/K fitting basis                 ... NOT available
Auxiliary Correlation fitting basis         ... NOT available
Auxiliary 'external' fitting basis          ... NOT available

Checking pre-screening integrals            ... done (  0.0 sec) Dimension = 184
   => SHARK Basis and OBASIS are compatible. Storing Pre-screening
Shell pair information
Shell pair cut-off parameter TPreSel        ...   2.5e-12
Total number of shell pairs                 ...     17020
Shell pairs after pre-screening             ...     15451
Total number of primitive shell pairs       ...     42657
Primitive shell pairs kept                  ...     30717
          la=0 lb=0:   1626 shell pairs
          la=1 lb=0:   2779 shell pairs
          la=1 lb=1:   1235 shell pairs
          la=2 lb=0:   1975 shell pairs
          la=2 lb=1:   1709 shell pairs
          la=2 lb=2:    628 shell pairs
          la=3 lb=0:   1102 shell pairs
          la=3 lb=1:    957 shell pairs
          la=3 lb=2:    683 shell pairs
          la=3 lb=3:    201 shell pairs
          la=4 lb=0:    627 shell pairs
          la=4 lb=1:    555 shell pairs
          la=4 lb=2:    392 shell pairs
          la=4 lb=3:    224 shell pairs
          la=4 lb=4:     71 shell pairs
          la=5 lb=0:    223 shell pairs
          la=5 lb=1:    190 shell pairs
          la=5 lb=2:    143 shell pairs
          la=5 lb=3:     77 shell pairs
          la=5 lb=4:     44 shell pairs
          la=5 lb=5:     10 shell pairs

Checking whether 4 symmetric matrices of dimension 688 fit in memory
:Max Core in MB      =   4096.00
 MB in use           =     26.53
 MB left             =   4069.47
 MB needed           =      7.23
 Data fit in memory  = YES
Calculating Nuclear repulsion               ... done (  0.0 sec) ENN=    120.693288504615 Eh

Diagonalization of the overlap matrix:
Smallest eigenvalue                        ... 1.464e-06
Time for diagonalization                   ...    0.042 sec
Threshold for overlap eigenvalues          ... 1.000e-07
Number of eigenvalues below threshold      ... 0
Time for construction of square roots      ...    0.022 sec
Total time needed                          ...    0.068 sec

-------------------
DFT GRID GENERATION
-------------------

General Integration Accuracy     IntAcc      ... 4.388
Radial Grid Type                 RadialGrid  ... OptM3 with GC (2021)
Angular Grid (max. ang.)         AngularGrid ... 4 (Lebedev-302)
Angular grid pruning method      GridPruning ... 4 (adaptive)
Weight generation scheme         WeightScheme... mBecke (2022)
Basis function cutoff            BFCut       ... 1.0000e-11
Integration weight cutoff        WCut        ... 1.0000e-14
Partially contracted basis set               ... off
Rotationally invariant grid construction     ... off
Angular grids for H and He will be reduced by one unit
Diffuse basis detected: some atoms will have their outermost
                        angular grid increased by 1.
Core-polarized basis detected: some atoms will have their core
                               angular grid increased.

Total number of grid points                  ...    46512
Total number of batches                      ...      731
Average number of points per batch           ...       63
Average number of grid points per atom       ...     5814
Grids setup in   0.2 sec
Initializing property integral containers    ... done (  0.0 sec)

SHARK setup successfully completed in   0.8 seconds

Maximum memory used throughout the entire STARTUP-calculation: 55.6 MB


           ************************************************************
           *        Program running with 8 parallel MPI-processes     *
           *              working on a common directory               *
           ************************************************************
-------------------------------------------------------------------------------
                                 ORCA GUESS
                   Start orbitals & Density for SCF / CASSCF
-------------------------------------------------------------------------------

------------
SCF SETTINGS
------------
Hamiltonian:
 Density Functional     Method          .... DFT(GTOs)
  Functional kind                       .... Exchange
  Functional name                       .... Minnesota N12 exchange functional
  Functional family                     .... GGA
  Functional refs                              
    [ 0] R. Peverati and D. G. Truhlar.,  J. Chem. Theory Comput. 8, 2310 (2012), doi: 10.1021/ct3002656
  Functional external parameters        .... 16
    Parameter  0 _CC00      =  1.000000e+00 : _CC00               
    Parameter  1 _CC01      =  5.078800e-01 : _CC01               
    Parameter  2 _CC02      =  1.682330e-01 : _CC02               
    Parameter  3 _CC03      =  1.288870e-01 : _CC03               
    Parameter  4 _CC10      =  8.602110e-02 : _CC10               
    Parameter  5 _CC11      = -1.710080e+01 : _CC11               
    Parameter  6 _CC12      =  6.508140e+01 : _CC12               
    Parameter  7 _CC13      = -7.017260e+01 : _CC13               
    Parameter  8 _CC20      = -3.907550e-01 : _CC20               
    Parameter  9 _CC21      =  5.133920e+01 : _CC21               
    Parameter 10 _CC22      = -1.662200e+02 : _CC22               
    Parameter 11 _CC23      =  1.427380e+02 : _CC23               
    Parameter 12 _CC30      =  4.036110e-01 : _CC30               
    Parameter 13 _CC31      = -3.446310e+01 : _CC31               
    Parameter 14 _CC32      =  7.616610e+01 : _CC32               
    Parameter 15 _CC33      = -2.418340e+00 : _CC33               
 Correlation Functional Correlation     .... No Correlation
 Gradients option       PostSCFGGA      .... off


General Settings:
 Integral files         IntName         .... /cluster/projects/nn14654k/ylvaos/basis_set_n_funcs/functionals/gga_x_N12/CH3COOH/inp/CH3COOH_gga_x_N12_pc4
 Hartree-Fock type      HFTyp           .... RHF
 Total Charge           Charge          ....    0
 Multiplicity           Mult            ....    1
 Number of Electrons    NEL             ....   32
 Basis Dimension        Dim             ....  688
 Nuclear Repulsion      ENuc            ....    120.6932885046 Eh

Convergence Acceleration:
 AO-DIIS                CNVDIIS         .... on
   Start iteration      DIISMaxIt       ....    12
   Startup error        DIISStart       ....  0.200000
   # of expansion vecs  DIISMaxEq       ....     5
   Bias factor          DIISBfac        ....   1.050
   Max. coefficient     DIISMaxC        ....  10.000
 MO-DIIS                CNVKDIIS        .... off
 Trust-Rad. Augm. Hess. CNVTRAH         .... auto
   Auto Start mean grad. ratio tolernc. ....  1.125000
   Auto Start start iteration           ....    50
   Auto Start num. interpolation iter.  ....    10
   Max. Number of Micro iterations      ....    24
   Max. Number of Macro iterations      .... Maxiter - #DIIS iter
   Number of Davidson start vectors     ....     2
   Converg. threshold    (grad. norm)   ....   1.000e-05
   Grad. Scal. Fac. for Micro threshold ....   0.100
   Minimum threshold for Micro iter.    ....   1.000e-02
   NR start threshold (gradient norm)   ....   1.000e-04
   Initial trust radius                 ....   0.400
   Minimum AH scaling param. (alpha)    ....   1.000
   Maximum AH scaling param. (alpha)    .... 1000.000
   Quad. conv. algorithm                .... NR
   White noise on init. David. guess    .... on
   Maximum white noise                  ....   0.010
   Pseudo random numbers                .... off
   Inactive MOs                         .... canonical
   Orbital update algorithm             .... Taylor
   Preconditioner                       .... Diag
   Full preconditioner red. dimension   ....   250
 SOSCF                 CNVSOSCF           .... on
   Start iteration     SOSCFMaxIt         ....   150
   Startup grad/error  SOSCFStart         ....  0.003300
   Hessian update      SOSCFHessUp        .... L-BFGS
   Autom. constraints  SOSCFAutoConstrain .... off
 Level Shifting         CNVShift        .... on
   Level shift para.    LevelShift      ....    0.2500
   Turn off err/grad.   ShiftErr        ....    0.0010
 Zerner damping         CNVZerner       .... off
 Static damping         CNVDamp         .... on
   Fraction old density DampFac         ....    0.7000
   Max. Damping (<1)    DampMax         ....    0.9800
   Min. Damping (>=0)   DampMin         ....    0.0000
   Turn off err/grad.   DampErr         ....    0.1000

SCF Procedure:
 Maximum # iterations   MaxIter         ....   125
 SCF integral mode      SCFMode         .... Direct
   Integral package                     .... SHARK and LIBINT hybrid scheme
 Reset frequency        DirectResetFreq ....    20
 Integral Threshold     Thresh          ....  2.500e-11 Eh
 Primitive CutOff       TCut            ....  2.500e-12 Eh

Convergence Tolerance:
 Convergence Check Mode ConvCheckMode   .... Total+1el-Energy
 Convergence forced     ConvForced      .... 0
 Energy Change          TolE            ....  1.000e-08 Eh
 1-El. energy change                    ....  1.000e-05 Eh
 Orbital Gradient       TolG            ....  1.000e-05
 Orbital Rotation angle TolX            ....  1.000e-05
 DIIS Error             TolErr          ....  5.000e-07

------------------------------
INITIAL GUESS: MODEL POTENTIAL
------------------------------
Loading Hartree-Fock densities                     ... done
Calculating cut-offs                               ... done
Initializing the effective Hamiltonian             ... done
Setting up the integral package (SHARK)            ... done
Starting the Coulomb interaction                   ... done (   0.1 sec)
Making the grid                                    ... done (   0.1 sec)
Mapping shells                                     ... done
Starting the XC term evaluation                    ... done (   0.1 sec)
  promolecular density results
     # of electrons  =     31.997033092
     EX              =    -27.201456812
     EC              =      0.000000000
     EX+EC           =    -27.201456812
Transforming the Hamiltonian                       ... done (   0.0 sec)
Diagonalizing the Hamiltonian                      ... done (   0.0 sec)
Back transforming the eigenvectors                 ... done (   0.0 sec)
Now organizing SCF variables                       ... done
                      ------------------
                      INITIAL GUESS DONE (   0.3 sec)
                      ------------------
             **** ENERGY FILE WAS UPDATED (/cluster/projects/nn14654k/ylvaos/basis_set_n_funcs/functionals/gga_x_N12/CH3COOH/inp/CH3COOH_gga_x_N12_pc4.en.tmp) ****
Finished Guess after   0.5 sec
Maximum memory used throughout the entire GUESS-calculation: 54.1 MB


           ************************************************************
           *        Program running with 8 parallel MPI-processes     *
           *              working on a common directory               *
           ************************************************************

-------------------------------------------------------------------------------------------
                                      ORCA LEAN-SCF
                              memory conserving SCF solver
-------------------------------------------------------------------------------------------

----------------------------------------D-I-I-S--------------------------------------------
Iteration    Energy (Eh)           Delta-E    RMSDP     MaxDP     DIISErr   Damp  Time(sec)
-------------------------------------------------------------------------------------------
               ***  Starting incremental Fock matrix formation  ***
    1    -227.1830469676298208     0.00e+00  2.27e-03  7.10e-02  3.33e-01  0.700  41.0
    2    -227.3050640793355228    -1.22e-01  1.80e-03  5.86e-02  9.11e-02  0.700  39.8
                               ***Turning on AO-DIIS***
    3    -227.3343839297478439    -2.93e-02  9.96e-04  3.33e-02  3.04e-02  0.700  39.0
    4    -227.3570011628464158    -2.26e-02  1.83e-03  5.81e-02  2.99e-02  0.000  38.0
    5    -227.4128245652946134    -5.58e-02  4.77e-04  1.50e-02  1.62e-02  0.000  38.8
    6    -227.4135960889231569    -7.72e-04  1.71e-04  5.67e-03  5.00e-03  0.000  35.8
                              *** Initializing SOSCF ***
---------------------------------------S-O-S-C-F--------------------------------------
Iteration    Energy (Eh)           Delta-E    RMSDP     MaxDP     MaxGrad    Time(sec)
--------------------------------------------------------------------------------------
    7    -227.4136582685056283    -6.22e-05  8.56e-05  2.37e-03  2.36e-03    34.1
               *** Restarting incremental Fock matrix formation ***
    8    -227.4136759219849182    -1.77e-05  9.43e-05  3.15e-03  2.96e-04    41.4
    9    -227.4136775405607978    -1.62e-06  5.38e-05  1.43e-03  2.03e-04    32.1
   10    -227.4136770289808283     5.12e-07  4.05e-05  1.44e-03  3.88e-04    31.2
   11    -227.4136780664667299    -1.04e-06  2.00e-05  6.59e-04  8.61e-05    29.1
   12    -227.4136779721378048     9.43e-08  1.45e-05  4.29e-04  1.08e-04    29.2
   13    -227.4136782275425617    -2.55e-07  3.51e-06  1.20e-04  1.75e-05    27.3
   14    -227.4136782092032263     1.83e-08  2.97e-06  8.51e-05  2.15e-05    24.3
   15    -227.4136782367624505    -2.76e-08  2.36e-06  6.84e-05  1.07e-06    23.1
                  *** Gradient check signals convergence ***

               *****************************************************
               *                     SUCCESS                       *
               *           SCF CONVERGED AFTER  15 CYCLES          *
               *****************************************************

             **** ENERGY FILE WAS UPDATED (/cluster/projects/nn14654k/ylvaos/basis_set_n_funcs/functionals/gga_x_N12/CH3COOH/inp/CH3COOH_gga_x_N12_pc4.en.tmp) ****

----------------
TOTAL SCF ENERGY
----------------

Total Energy       :       -227.41367823634607 Eh           -6188.24079 eV

Components:
Nuclear Repulsion  :        120.69328850461517 Eh            3284.23135 eV
Electronic Energy  :       -348.10696674096118 Eh           -9472.47214 eV
One Electron Energy:       -551.19083533852665 Eh          -14998.66515 eV
Two Electron Energy:        203.08386859756544 Eh            5526.19301 eV

Virial components:
Potential Energy   :       -454.42146939235613 Eh          -12365.43683 eV
Kinetic Energy     :        227.00779115601006 Eh            6177.19604 eV
Virial Ratio       :          2.00178798744426

DFT components:
N(Alpha)           :       16.000002395589 electrons
N(Beta)            :       16.000002395589 electrons
N(Total)           :       32.000004791178 electrons
E(X)               :      -27.703719325157 Eh       
E(C)               :        0.000000000000 Eh       
E(XC)              :      -27.703719325157 Eh       

---------------
SCF CONVERGENCE
---------------

  Last Energy change         ...    2.7559e-08  Tolerance :   1.0000e-08
  Last MAX-Density change    ...    6.8435e-05  Tolerance :   1.0000e-07
  Last RMS-Density change    ...    2.3646e-06  Tolerance :   5.0000e-09
  Last DIIS Error            ...    2.3616e-03  Tolerance :   5.0000e-07
  Last Orbital Gradient      ...    1.0720e-06  Tolerance :   1.0000e-05
  Last Orbital Rotation      ...    2.2014e-06  Tolerance :   1.0000e-05


----------------
ORBITAL ENERGIES
----------------

  NO   OCC          E(Eh)            E(eV) 
   0   2.0000     -18.752250      -510.2747 
   1   2.0000     -18.695843      -508.7398 
   2   2.0000     -10.042530      -273.2711 
   3   2.0000      -9.920846      -269.9599 
   4   2.0000      -0.970024       -26.3957 
   5   2.0000      -0.883065       -24.0294 
   6   2.0000      -0.654537       -17.8108 
   7   2.0000      -0.515385       -14.0243 
   8   2.0000      -0.401149       -10.9158 
   9   2.0000      -0.387256       -10.5378 
  10   2.0000      -0.385811       -10.4984 
  11   2.0000      -0.332264        -9.0414 
  12   2.0000      -0.314000        -8.5444 
  13   2.0000      -0.313877        -8.5410 
  14   2.0000      -0.249193        -6.7809 
  15   2.0000      -0.204185        -5.5562 
  16   0.0000      -0.024913        -0.6779 
  17   0.0000      -0.006523        -0.1775 
  18   0.0000       0.001267         0.0345 
  19   0.0000       0.028783         0.7832 
  20   0.0000       0.029905         0.8138 
  21   0.0000       0.036898         1.0041 
  22   0.0000       0.056930         1.5491 
  23   0.0000       0.063619         1.7312 
  24   0.0000       0.068022         1.8510 
  25   0.0000       0.068030         1.8512 
  26   0.0000       0.105702         2.8763 
*Only the first 10 virtual orbitals were printed.

                    ********************************
                    * MULLIKEN POPULATION ANALYSIS *
                    ********************************

-----------------------
MULLIKEN ATOMIC CHARGES
-----------------------
   0 C :    0.371214
   1 C :    0.906532
   2 O :   -0.230686
   3 O :   -0.239311
   4 H :    0.116606
   5 H :   -0.240308
   6 H :   -0.342004
   7 H :   -0.342043
Sum of atomic charges:    0.0000000

--------------------------------
MULLIKEN REDUCED ORBITAL CHARGES
--------------------------------
  0 C s       :     3.083660  s :     3.083660
      pz      :     0.745898  p :     2.259649
      px      :     0.747670
      py      :     0.766081
      dz2     :     0.005993  d :     0.247838
      dxz     :     0.032673
      dyz     :     0.056697
      dx2y2   :     0.024738
      dxy     :     0.127737
      f0      :     0.004081  f :     0.035002
      f+1     :     0.001149
      f-1     :     0.001101
      f+2     :     0.004507
      f-2     :     0.002411
      f+3     :     0.017476
      f-3     :     0.004277
      g0      :     0.000033  g :     0.002457
      g+1     :     0.000201
      g-1     :     0.000243
      g+2     :     0.000146
      g-2     :     0.000039
      g+3     :     0.000099
      g-3     :     0.000361
      g+4     :     0.000719
      g-4     :     0.000616
      h0      :     0.000011  h :     0.000180
      h+1     :     0.000007
      h-1     :     0.000019
      h+2     :     0.000014
      h-2     :     0.000005
      h+3     :     0.000007
      h-3     :     0.000013
      h+4     :     0.000010
      h-4     :     0.000010
      h+5     :     0.000036
      h-5     :     0.000047

  1 C s       :     2.626215  s :     2.626215
      pz      :     0.827937  p :     2.495803
      px      :     0.804296
      py      :     0.863570
      dz2     :     0.001575  d :    -0.026634
      dxz     :    -0.000112
      dyz     :    -0.018075
      dx2y2   :    -0.005519
      dxy     :    -0.004503
      f0      :    -0.000372  f :    -0.002208
      f+1     :    -0.000391
      f-1     :    -0.001204
      f+2     :    -0.001040
      f-2     :     0.000348
      f+3     :     0.000675
      f-3     :    -0.000224
      g0      :     0.000041  g :     0.000251
      g+1     :     0.000011
      g-1     :     0.000040
      g+2     :    -0.000136
      g-2     :     0.000059
      g+3     :     0.000031
      g-3     :     0.000014
      g+4     :     0.000114
      g-4     :     0.000078
      h0      :     0.000001  h :     0.000040
      h+1     :     0.000003
      h-1     :     0.000001
      h+2     :     0.000009
      h-2     :     0.000003
      h+3     :     0.000003
      h-3     :     0.000009
      h+4     :     0.000000
      h-4     :     0.000000
      h+5     :     0.000006
      h-5     :     0.000005

  2 O s       :     3.790565  s :     3.790565
      pz      :     1.388172  p :     4.394831
      px      :     1.732611
      py      :     1.274048
      dz2     :     0.002371  d :     0.039016
      dxz     :     0.000311
      dyz     :     0.012154
      dx2y2   :     0.012213
      dxy     :     0.011968
      f0      :     0.000549  f :     0.005828
      f+1     :     0.000167
      f-1     :     0.000800
      f+2     :     0.001013
      f-2     :     0.000184
      f+3     :     0.001618
      f-3     :     0.001498
      g0      :     0.000020  g :     0.000409
      g+1     :     0.000003
      g-1     :     0.000071
      g+2     :     0.000042
      g-2     :     0.000022
      g+3     :     0.000011
      g-3     :     0.000050
      g+4     :     0.000080
      g-4     :     0.000110
      h0      :     0.000003  h :     0.000036
      h+1     :     0.000000
      h-1     :     0.000002
      h+2     :     0.000005
      h-2     :     0.000001
      h+3     :     0.000002
      h-3     :     0.000003
      h+4     :     0.000003
      h-4     :     0.000001
      h+5     :     0.000009
      h-5     :     0.000007

  3 O s       :     3.799336  s :     3.799336
      pz      :     1.738462  p :     4.402980
      px      :     1.203568
      py      :     1.460951
      dz2     :     0.002690  d :     0.031587
      dxz     :     0.004880
      dyz     :     0.004044
      dx2y2   :     0.010638
      dxy     :     0.009336
      f0      :     0.000811  f :     0.005139
      f+1     :     0.000545
      f-1     :     0.000193
      f+2     :     0.000239
      f-2     :     0.000728
      f+3     :     0.001558
      f-3     :     0.001065
      g0      :     0.000011  g :     0.000245
      g+1     :     0.000029
      g-1     :     0.000012
      g+2     :     0.000021
      g-2     :     0.000012
      g+3     :     0.000004
      g-3     :     0.000029
      g+4     :     0.000044
      g-4     :     0.000083
      h0      :     0.000002  h :     0.000023
      h+1     :     0.000002
      h-1     :     0.000001
      h+2     :     0.000001
      h-2     :     0.000001
      h+3     :    -0.000000
      h-3     :     0.000002
      h+4     :     0.000000
      h-4     :     0.000002
      h+5     :     0.000006
      h-5     :     0.000008

  4 H s       :     0.786797  s :     0.786797
      pz      :     0.031708  p :     0.083745
      px      :     0.019763
      py      :     0.032274
      dz2     :     0.001063  d :     0.010679
      dxz     :     0.001059
      dyz     :     0.003425
      dx2y2   :     0.003655
      dxy     :     0.001478
      f0      :     0.000318  f :     0.002132
      f+1     :     0.000087
      f-1     :     0.000130
      f+2     :     0.000019
      f-2     :     0.000551
      f+3     :     0.000448
      f-3     :     0.000579
      g0      :     0.000005  g :     0.000041
      g+1     :     0.000002
      g-1     :     0.000003
      g+2     :     0.000001
      g-2     :     0.000010
      g+3     :     0.000002
      g-3     :     0.000001
      g+4     :     0.000014
      g-4     :     0.000004

  5 H s       :     1.140460  s :     1.140460
      pz      :     0.021503  p :     0.091686
      px      :     0.051529
      py      :     0.018654
      dz2     :     0.001086  d :     0.007362
      dxz     :     0.000897
      dyz     :     0.001663
      dx2y2   :     0.000692
      dxy     :     0.003024
      f0      :     0.000092  f :     0.000794
      f+1     :     0.000078
      f-1     :     0.000034
      f+2     :     0.000048
      f-2     :     0.000136
      f+3     :     0.000213
      f-3     :     0.000194
      g0      :     0.000001  g :     0.000005
      g+1     :     0.000001
      g-1     :     0.000000
      g+2     :     0.000000
      g-2     :     0.000001
      g+3     :     0.000000
      g-3     :     0.000000
      g+4     :     0.000001
      g-4     :     0.000002

  6 H s       :     1.236274  s :     1.236274
      pz      :     0.047245  p :     0.095749
      px      :     0.014287
      py      :     0.034217
      dz2     :     0.002971  d :     0.009138
      dxz     :     0.000632
      dyz     :     0.003628
      dx2y2   :     0.000364
      dxy     :     0.001543
      f0      :     0.000202  f :     0.000838
      f+1     :     0.000069
      f-1     :     0.000207
      f+2     :     0.000114
      f-2     :     0.000178
      f+3     :     0.000043
      f-3     :     0.000025
      g0      :     0.000001  g :     0.000006
      g+1     :     0.000000
      g-1     :     0.000002
      g+2     :     0.000002
      g-2     :     0.000001
      g+3     :     0.000000
      g-3     :     0.000001
      g+4     :     0.000000
      g-4     :     0.000000

  7 H s       :     1.236307  s :     1.236307
      pz      :     0.047247  p :     0.095755
      px      :     0.014286
      py      :     0.034222
      dz2     :     0.002971  d :     0.009138
      dxz     :     0.000632
      dyz     :     0.003628
      dx2y2   :     0.000364
      dxy     :     0.001543
      f0      :     0.000202  f :     0.000838
      f+1     :     0.000069
      f-1     :     0.000207
      f+2     :     0.000114
      f-2     :     0.000178
      f+3     :     0.000043
      f-3     :     0.000025
      g0      :     0.000001  g :     0.000006
      g+1     :     0.000000
      g-1     :     0.000002
      g+2     :     0.000002
      g-2     :     0.000001
      g+3     :     0.000000
      g-3     :     0.000001
      g+4     :     0.000000
      g-4     :     0.000000



                     *******************************
                     * LOEWDIN POPULATION ANALYSIS *
                     *******************************

----------------------
LOEWDIN ATOMIC CHARGES
----------------------
   0 C :   -0.773966
   1 C :    0.573781
   2 O :    0.394522
   3 O :    0.886307
   4 H :   -0.575596
   5 H :   -0.172219
   6 H :   -0.166414
   7 H :   -0.166414

-------------------------------
LOEWDIN REDUCED ORBITAL CHARGES
-------------------------------
  0 C s       :     2.543495  s :     2.543495
      pz      :     0.604915  p :     2.390792
      px      :     0.805306
      py      :     0.980570
      dz2     :     0.111275  d :     1.365061
      dxz     :     0.153113
      dyz     :     0.245398
      dx2y2   :     0.390680
      dxy     :     0.464595
      f0      :     0.022761  f :     0.410337
      f+1     :     0.019760
      f-1     :     0.028036
      f+2     :     0.057749
      f-2     :     0.036729
      f+3     :     0.153264
      f-3     :     0.092037
      g0      :     0.001750  g :     0.059918
      g+1     :     0.005082
      g-1     :     0.010123
      g+2     :     0.004877
      g-2     :     0.005826
      g+3     :     0.000976
      g-3     :     0.005338
      g+4     :     0.012613
      g-4     :     0.013333
      h0      :     0.000163  h :     0.004363
      h+1     :     0.000095
      h-1     :     0.000181
      h+2     :     0.000534
      h-2     :     0.000146
      h+3     :     0.000275
      h-3     :     0.000231
      h+4     :     0.000250
      h-4     :     0.000252
      h+5     :     0.001175
      h-5     :     0.001062

  1 C s       :     2.466454  s :     2.466454
      pz      :     0.816717  p :     2.423594
      px      :     0.801374
      py      :     0.805503
      dz2     :     0.077449  d :     0.444033
      dxz     :     0.032751
      dyz     :     0.109313
      dx2y2   :     0.111307
      dxy     :     0.113213
      f0      :     0.006040  f :     0.085601
      f+1     :     0.009730
      f-1     :     0.013809
      f+2     :     0.008084
      f-2     :     0.010201
      f+3     :     0.017848
      f-3     :     0.019890
      g0      :     0.000319  g :     0.006325
      g+1     :     0.000460
      g-1     :     0.000665
      g+2     :     0.000710
      g-2     :     0.000546
      g+3     :     0.000431
      g-3     :     0.000456
      g+4     :     0.000996
      g-4     :     0.001743
      h0      :     0.000023  h :     0.000211
      h+1     :     0.000006
      h-1     :     0.000020
      h+2     :     0.000006
      h-2     :     0.000017
      h+3     :     0.000022
      h-3     :     0.000018
      h+4     :     0.000014
      h-4     :     0.000007
      h+5     :     0.000041
      h-5     :     0.000037

  2 O s       :     3.210094  s :     3.210094
      pz      :     1.222318  p :     4.155497
      px      :     1.472134
      py      :     1.461045
      dz2     :     0.022008  d :     0.181823
      dxz     :     0.003350
      dyz     :     0.033252
      dx2y2   :     0.055195
      dxy     :     0.068018
      f0      :     0.004848  f :     0.053624
      f+1     :     0.001975
      f-1     :     0.006185
      f+2     :     0.007650
      f-2     :     0.001723
      f+3     :     0.018969
      f-3     :     0.012274
      g0      :     0.000175  g :     0.004083
      g+1     :     0.000016
      g-1     :     0.000578
      g+2     :     0.000364
      g-2     :     0.000263
      g+3     :     0.000096
      g-3     :     0.000365
      g+4     :     0.000906
      g-4     :     0.001321
      h0      :     0.000021  h :     0.000357
      h+1     :     0.000004
      h-1     :     0.000025
      h+2     :     0.000035
      h-2     :     0.000003
      h+3     :     0.000033
      h-3     :     0.000028
      h+4     :     0.000017
      h-4     :     0.000007
      h+5     :     0.000105
      h-5     :     0.000079

  3 O s       :     2.967256  s :     2.967256
      pz      :     1.332351  p :     3.861460
      px      :     1.171849
      py      :     1.357260
      dz2     :     0.028329  d :     0.228447
      dxz     :     0.034175
      dyz     :     0.012435
      dx2y2   :     0.066772
      dxy     :     0.086736
      f0      :     0.004703  f :     0.053991
      f+1     :     0.005520
      f-1     :     0.002607
      f+2     :     0.002318
      f-2     :     0.006463
      f+3     :     0.022935
      f-3     :     0.009444
      g0      :     0.000108  g :     0.002349
      g+1     :     0.000309
      g-1     :     0.000093
      g+2     :     0.000177
      g-2     :     0.000272
      g+3     :     0.000026
      g-3     :     0.000301
      g+4     :     0.000879
      g-4     :     0.000185
      h0      :     0.000017  h :     0.000190
      h+1     :     0.000006
      h-1     :     0.000005
      h+2     :     0.000010
      h-2     :     0.000018
      h+3     :     0.000022
      h-3     :     0.000016
      h+4     :     0.000004
      h-4     :     0.000010
      h+5     :     0.000052
      h-5     :     0.000029

  4 H s       :     0.640617  s :     0.640617
      pz      :     0.132631  p :     0.498197
      px      :     0.149348
      py      :     0.216217
      dz2     :     0.032556  d :     0.351349
      dxz     :     0.047133
      dyz     :     0.065710
      dx2y2   :     0.120457
      dxy     :     0.085493
      f0      :     0.012387  f :     0.083769
      f+1     :     0.004035
      f-1     :     0.004423
      f+2     :     0.000635
      f-2     :     0.021126
      f+3     :     0.018590
      f-3     :     0.022574
      g0      :     0.000061  g :     0.001664
      g+1     :     0.000154
      g-1     :     0.000213
      g+2     :     0.000073
      g-2     :     0.000137
      g+3     :     0.000210
      g-3     :     0.000078
      g+4     :     0.000270
      g-4     :     0.000468

  5 H s       :     0.710845  s :     0.710845
      pz      :     0.075007  p :     0.263773
      px      :     0.110228
      py      :     0.078539
      dz2     :     0.011429  d :     0.170489
      dxz     :     0.044887
      dyz     :     0.019915
      dx2y2   :     0.047882
      dxy     :     0.046377
      f0      :     0.003561  f :     0.026913
      f+1     :     0.002801
      f-1     :     0.000807
      f+2     :     0.001395
      f-2     :     0.004681
      f+3     :     0.008290
      f-3     :     0.005378
      g0      :     0.000007  g :     0.000198
      g+1     :     0.000035
      g-1     :     0.000011
      g+2     :     0.000013
      g-2     :     0.000011
      g+3     :     0.000000
      g-3     :     0.000034
      g+4     :     0.000064
      g-4     :     0.000024

  6 H s       :     0.702299  s :     0.702299
      pz      :     0.106648  p :     0.268669
      px      :     0.070888
      py      :     0.091133
      dz2     :     0.057385  d :     0.168574
      dxz     :     0.031855
      dyz     :     0.034499
      dx2y2   :     0.015411
      dxy     :     0.029425
      f0      :     0.007713  f :     0.026677
      f+1     :     0.001870
      f-1     :     0.005147
      f+2     :     0.003899
      f-2     :     0.005711
      f+3     :     0.001563
      f-3     :     0.000775
      g0      :     0.000036  g :     0.000195
      g+1     :     0.000005
      g-1     :     0.000047
      g+2     :     0.000023
      g-2     :     0.000038
      g+3     :     0.000025
      g-3     :     0.000016
      g+4     :     0.000002
      g-4     :     0.000003

  7 H s       :     0.702299  s :     0.702299
      pz      :     0.106648  p :     0.268669
      px      :     0.070888
      py      :     0.091133
      dz2     :     0.057385  d :     0.168574
      dxz     :     0.031855
      dyz     :     0.034499
      dx2y2   :     0.015411
      dxy     :     0.029425
      f0      :     0.007713  f :     0.026677
      f+1     :     0.001870
      f-1     :     0.005147
      f+2     :     0.003899
      f-2     :     0.005711
      f+3     :     0.001563
      f-3     :     0.000775
      g0      :     0.000036  g :     0.000195
      g+1     :     0.000005
      g-1     :     0.000047
      g+2     :     0.000023
      g-2     :     0.000038
      g+3     :     0.000025
      g-3     :     0.000016
      g+4     :     0.000002
      g-4     :     0.000003



                      *****************************
                      * MAYER POPULATION ANALYSIS *
                      *****************************

  NA   - Mulliken gross atomic population
  ZA   - Total nuclear charge
  QA   - Mulliken gross atomic charge
  VA   - Mayer's total valence
  BVA  - Mayer's bonded valence
  FA   - Mayer's free valence

  ATOM       NA         ZA         QA         VA         BVA        FA
  0 C      5.6288     6.0000     0.3712     4.0788     4.0788    -0.0000
  1 C      5.0935     6.0000     0.9065     3.6626     3.6626     0.0000
  2 O      8.2307     8.0000    -0.2307     1.9985     1.9985    -0.0000
  3 O      8.2393     8.0000    -0.2393     2.1495     2.1495     0.0000
  4 H      0.8834     1.0000     0.1166     1.0413     1.0413     0.0000
  5 H      1.2403     1.0000    -0.2403     1.1047     1.1047     0.0000
  6 H      1.3420     1.0000    -0.3420     1.0802     1.0802     0.0000
  7 H      1.3420     1.0000    -0.3420     1.0802     1.0802    -0.0000

  Mayer bond orders larger than 0.100000
B(  0-C ,  1-C ) :   1.0160 B(  0-C ,  2-O ) :   1.9958 B(  0-C ,  3-O ) :   1.1764 
B(  1-C ,  5-H ) :   0.9564 B(  1-C ,  6-H ) :   0.8807 B(  1-C ,  7-H ) :   0.8807 
B(  3-O ,  4-H ) :   0.9672 B(  5-H ,  6-H ) :   0.1121 B(  5-H ,  7-H ) :   0.1121 


-------
TIMINGS
-------

Total SCF time: 0 days 0 hours 8 min 45 sec 

Total time                  ....     525.266 sec
Sum of individual times     ....     504.385 sec  ( 96.0%)

SCF preparation             ....       0.140 sec  (  0.0%)
Fock matrix formation       ....     501.958 sec  ( 95.6%)
  Startup                   ....       0.029 sec  (  0.0% of F)
  Coulomb formation         ....     517.467 sec  (103.1% of F)
  XC integration            ....       4.741 sec  (  0.9% of F)
    XC Preparation          ....       0.000 sec  (  0.0% of XC)
    Basis function eval.    ....       0.441 sec  (  9.3% of XC)
    Density eval.           ....       0.979 sec  ( 20.6% of XC)
    XC-Functional eval.     ....       0.034 sec  (  0.7% of XC)
    XC-Potential eval.      ....       2.296 sec  ( 48.4% of XC)
Diagonalization             ....       0.000 sec  (  0.0%)
Density matrix formation    ....       0.215 sec  (  0.0%)
Total Energy calculation    ....       0.080 sec  (  0.0%)
Population analysis         ....       0.084 sec  (  0.0%)
Orbital Transformation      ....       0.205 sec  (  0.0%)
Orbital Orthonormalization  ....       0.000 sec  (  0.0%)
DIIS solution               ....       0.999 sec  (  0.2%)
SOSCF solution              ....       0.704 sec  (  0.1%)
Finished LeanSCF after 525.3 sec

Maximum memory used throughout the entire LEANSCF-calculation: 91.8 MB


           ************************************************************
           *        Program running with 8 parallel MPI-processes     *
           *              working on a common directory               *
           ************************************************************

------------------------------------------------------------------------------
                         ORCA PROPERTY INTEGRAL CALCULATIONS
------------------------------------------------------------------------------

GBWName                                   ... /cluster/projects/nn14654k/ylvaos/basis_set_n_funcs/functionals/gga_x_N12/CH3COOH/inp/CH3COOH_gga_x_N12_pc4.gbw
Number of atoms                           ...      8
Number of basis functions                 ...    688
Max core memory                           ...   4096 MB

Dipole integrals                          ... YES
Quadrupole integrals                      ... YES
Linear momentum integrals                 ...  NO
Angular momentum integrals                ...  NO
Higher moments length integrals           ...  NO
Higher moments velocity integrals         ...  NO
Kinetic energy integrals                  ...  NO
GIAO right hand sides                     ...  NO
GIAO dipole derivative integrals          ...  NO
SOC integrals                             ...  NO
EPR diamagnetic integrals (GIAO)          ...  NO
EPR gauge integrals                       ...  NO
Field gradient integrals                  ...  NO (   0 nuclei)
Spin-dipole/Fermi contact integrals       ...  NO (   0 nuclei)
Contact density integrals                 ...  NO (   0 nuclei)
Nucleus-orbit integrals                   ...  NO (   0 nuclei)
Geometric perturbations                   ...  NO (   8 nuclei)

Choice of electric origin   ... Center of mass
Position of electric origin ... ( -0.0657,  0.0975,  0.0000) 
Choice of magnetic origin   ... GIAO
Position of magnetic origin ... (  0.0000,  0.0000,  0.0000) 

Calculating integrals                     ... Electric Dipole (Length)     done (  0.0 sec)
Calculating integrals                     ... Electric Quadrupole (Length) done (  0.0 sec)

Property integrals calculated in   0.1 sec

Maximum memory used throughout the entire PROPINT-calculation: 62.8 MB
------------------------------------------------------------------------------
                           ORCA ORBITAL LOCALIZATION
------------------------------------------------------------------------------

Input orbitals are from                  ... /cluster/projects/nn14654k/ylvaos/basis_set_n_funcs/functionals/gga_x_N12/CH3COOH/inp/CH3COOH_gga_x_N12_pc4.gbw
Output orbitals are to                   ... /cluster/projects/nn14654k/ylvaos/basis_set_n_funcs/functionals/gga_x_N12/CH3COOH/inp/CH3COOH_gga_x_N12_pc4.loc
Max. number of iterations                ... 128
Localizations seeded randomly            ... on
Convergence tolerance                    ... 1.000e-06
Threshold for strong local MOs           ... 9.500e-01
Threshold for bond MOs                   ... 8.500e-01
Operator                                 ... 0
Orbital range for localization           ... 4 to 15
Localization criterion                   ... NEW-BOYS
Doing the dipole integrals               ... o.k.
Initial value of the localization sum :    66.009015
ITERATION   0 : L=   79.8054297381 DL=  1.38e+01 (AVERGE_DL)=    0.4572051910 
ITERATION   1 : L=   81.3815754775 DL=  1.58e+00 (AVERGE_DL)=    0.1545347730 
ITERATION   2 : L=   81.3979423902 DL=  1.64e-02 (AVERGE_DL)=    0.0157474927 
ITERATION   3 : L=   81.3986568773 DL=  7.14e-04 (AVERGE_DL)=    0.0032902221 
ITERATION   4 : L=   81.3992001446 DL=  5.43e-04 (AVERGE_DL)=    0.0028690281 
ITERATION   5 : L=   81.3996600526 DL=  4.60e-04 (AVERGE_DL)=    0.0026397544 
ITERATION   6 : L=   81.4000581229 DL=  3.98e-04 (AVERGE_DL)=    0.0024558842 
ITERATION   7 : L=   81.4003851103 DL=  3.27e-04 (AVERGE_DL)=    0.0022258382 
ITERATION   8 : L=   81.4006428528 DL=  2.58e-04 (AVERGE_DL)=    0.0019761552 
ITERATION   9 : L=   81.4008385737 DL=  1.96e-04 (AVERGE_DL)=    0.0017220534 
ITERATION  10 : L=   81.4009826160 DL=  1.44e-04 (AVERGE_DL)=    0.0014773147 
ITERATION  11 : L=   81.4010859131 DL=  1.03e-04 (AVERGE_DL)=    0.0012510430 
ITERATION  12 : L=   81.4011584368 DL=  7.25e-05 (AVERGE_DL)=    0.0010482574 
ITERATION  13 : L=   81.4012084905 DL=  5.01e-05 (AVERGE_DL)=    0.0008708559 
ITERATION  14 : L=   81.4012425641 DL=  3.41e-05 (AVERGE_DL)=    0.0007185161 
ITERATION  15 : L=   81.4012655029 DL=  2.29e-05 (AVERGE_DL)=    0.0005895404 
ITERATION  16 : L=   81.4012808108 DL=  1.53e-05 (AVERGE_DL)=    0.0004815995 
ITERATION  17 : L=   81.4012909536 DL=  1.01e-05 (AVERGE_DL)=    0.0003920185 
ITERATION  18 : L=   81.4012976366 DL=  6.68e-06 (AVERGE_DL)=    0.0003182112 
ITERATION  19 : L=   81.4013020203 DL=  4.38e-06 (AVERGE_DL)=    0.0002577201 
ITERATION  20 : L=   81.4013048856 DL=  2.87e-06 (AVERGE_DL)=    0.0002083572 
ITERATION  21 : L=   81.4013067527 DL=  1.87e-06 (AVERGE_DL)=    0.0001681967 
ITERATION  22 : L=   81.4013079667 DL=  1.21e-06 (AVERGE_DL)=    0.0001356239 
ITERATION  23 : L=   81.4013087546 DL=  7.88e-07 (AVERGE_DL)=    0.0001092610 
LOCALIZATION SUM CONVERGED


--------------------------------------------------------------------------------
                    LOCALIZED MOLECULAR ORBITAL COMPOSITIONS
--------------------------------------------------------------------------------

The Mulliken populations for each LMO on each atom are computed
The LMO`s will be ordered according to atom index and type
  (A) Strongly localized MO`s have populations of >=0.950 on one atom
  (B) Two center bond orbitals have populations of >=0.850 on two atoms
  (C) Other MO`s are considered to be `delocalized`

FOUND  -   2 strongly local MO`s
       -  10 two center bond MO`s
       -   0 significantly delocalized MO`s

Rather strongly localized orbitals:
MO   5:   3O  -   0.992382
MO   4:   2O  -   0.957202
Bond-like localized orbitals:
MO  15:   7H  -   0.639705  and   1C  -   0.352535
MO  14:   6H  -   0.639731  and   1C  -   0.352519
MO  13:   5H  -   0.587595  and   1C  -   0.428203
MO  12:   4H  -   0.457599  and   3O  -   0.538810
MO  11:   3O  -   0.709743  and   0C  -   0.329745
MO  10:   3O  -   0.906670  and   0C  -   0.092891
MO   9:   2O  -   0.633702  and   0C  -   0.369668
MO   8:   2O  -   0.634242  and   0C  -   0.368868
MO   7:   2O  -   0.937541  and   0C  -   0.072697
MO   6:   1C  -   0.450817  and   0C  -   0.592832
Localized MO's were stored in: /cluster/projects/nn14654k/ylvaos/basis_set_n_funcs/functionals/gga_x_N12/CH3COOH/inp/CH3COOH_gga_x_N12_pc4.loc

-------------------------   --------------------
FINAL SINGLE POINT ENERGY      -227.413678236346
-------------------------   --------------------



           ************************************************************
           *        Program running with 8 parallel MPI-processes     *
           *              working on a common directory               *
           ************************************************************

------------------------------------------------------------------------------
                              ORCA PROPERTY CALCULATIONS
------------------------------------------------------------------------------

GBWName                                 ... /cluster/projects/nn14654k/ylvaos/basis_set_n_funcs/functionals/gga_x_N12/CH3COOH/inp/CH3COOH_gga_x_N12_pc4.gbw
Number of atoms                         ...      8
Number of basis functions               ...    688
Max core memory                         ...   4096 MB

Electric properties:
Dipole moment                           ... YES
Quadrupole moment                       ... YES
Static polarizability (Dipole/Dipole)   ...  NO
Static polarizability (Dipole/Quad.)    ...  NO
Static polarizability (Quad./Quad.)     ...  NO
Static polarizability (Velocity)        ...  NO
Static hyperpolarizability              ...  NO

Atomic electric properties:
Dipole moment                           ...  NO
Quadrupole moment                       ...  NO
Static polarizability                   ...  NO

Choice of electric origin               ... Center of mass
Position of electric origin             ...    -0.065707     0.097461     0.000000

General magnetic properties:
Magnetizability                         ...  NO

EPR properties:
g-Tensor (aka g-matrix)                 ...  NO
Zero-Field splitting spin-orbit         ...  NO
Zero-field splitting spin-spin          ...  NO
Hyperfine couplings                     ...  NO (   0 nuclei)
Quadrupole couplings                    ...  NO (   0 nuclei)
Contact density                         ...  NO (   0 nuclei)

NMR properties:
Chemical shifts                         ...  NO (   0 nuclei)
Spin-rotation constants                 ...  NO (   0 nuclei)
Spin-spin couplings                     ...  NO (   0 nuclei,    0 pairs)

Choice of magnetic origin               ... GIAO
Position of magnetic origin             ...     0.000000     0.000000     0.000000

Properties with geometric perturbations:
SCF Hessian                             ...  NO
IR spectrum                             ...  NO
VCD spectrum                            ...  NO
X-ray spectroscopy properties:
SCF XES/XAS/RIXS spectra                ...  NO

SCF SOC stabilization energy            ...  NO
Diagonal Born-Oppenheimer correction    ...  NO

-------------
DIPOLE MOMENT
-------------

Method             : SCF
Type of density    : Electron Density
Multiplicity       :   1
Irrep              :   0
Energy             :  -227.4136782363460725 Eh
Basis              : AO
                                X                 Y                 Z
Electronic contribution:     -2.179753514       2.416950603      -0.000000025
Nuclear contribution   :      2.102617427      -3.118765285       0.000000000
                        -----------------------------------------
Total Dipole Moment    :     -0.077136087      -0.701814682      -0.000000025
                        -----------------------------------------
Magnitude (a.u.)       :      0.706040951
Magnitude (Debye)      :      1.794613476



--------------------
Rotational spectrum 
--------------------
 
Rotational constants in cm-1:             0.373252             0.316126             0.176788 
Rotational constants in MHz :         11189.819630          9477.229268          5299.974115 

Dipole components along the rotational axes: 
x,y,z [a.u.] :    -0.397232    -0.583696    -0.000000 
x,y,z [Debye]:    -1.009682    -1.483637    -0.000000 

 

Dipole moment calculation done in   0.0 sec 

-----------------
QUADRUPOLE MOMENT
-----------------

Method             : SCF
Type of density    : Electron Density
Multiplicity       :   1
Irrep              :   0
Energy             :  -227.4136782363460725 Eh
Basis              : AO

                XX              YY              ZZ              XY              XZ              YZ
  NUC      103.447904006    93.335807526     5.552847104   -15.402641721     0.000000000     0.000000000
  EL      -119.262085040  -114.444260275   -23.393590900    12.713341251    -0.000000074    -0.000000027
  TOT      -15.814181034   -21.108452749   -17.840743796    -2.689300470    -0.000000074    -0.000000027 (a.u.)
           -21.270614336   -28.391590856   -23.996410559    -3.617201107    -0.000000100    -0.000000036 (Buckingham)

diagonalized tensor:
           -22.234864992   -17.840743796   -14.687768791 (a.u.)
           -29.906653846   -23.996410559   -19.755551345 (Buckingham)
           -16.061345788     1.669384073    14.391961715 (traceless form in Buckingham)

             0.386330271     0.000000012     0.922360516
             0.922360516    -0.000000018    -0.386330271
             0.000000012     1.000000000    -0.000000018
        
Isotropic quadrupole :   -18.254459193

Quadrupole moment calculation done in   0.0 sec (  0.0 sec for integrals)

Maximum memory used throughout the entire PROP-calculation: 60.4 MB

--------------------------------
SUGGESTED CITATIONS FOR THIS RUN
--------------------------------

Below you find a list of papers that are relevant to this ORCA run
We neither can nor want to force you to cite these papers, but we appreciate if you do
You receive ORCA, which is the product of decades of hard work by many enthusiastic individuals, for free
The only thing we kindly ask in return is that you cite our papers,
We deeply appreciate it, if you show your appreciation for ORCA by not just citing the generic ORCA reference.

Please note that relegating all ORCA citations to the supporting information does *not* help us.
SI sections are not indexed - citations you put there will not count into any citation statistics
But we need these citations in order to attract the funding resources that allow us to do what we are doing

Therefore, if you are a happy ORCA user, please consider citing a few of the papers listed below in the main body of your paper

In addition to the list printed below, the program has created the file /cluster/projects/nn14654k/ylvaos/basis_set_n_funcs/functionals/gga_x_N12/CH3COOH/inp/CH3COOH_gga_x_N12_pc4.bibtex that contains the list in bibtex format
You can import this file easily into all common literature databanks and citation aid programs

It goes without saying that in many instances, there are alternative algorithms to achieve similar
results as the ones you have gotten from ORCA. It is, of course, also the case that in some instances
ORCA just re-implements algorithms worked out by others. We are fully aware of that and we are also
fully appreciative of our colleagues work. Hence this citation list should not be read as indicating
that the listed papers, which are focused on our own work, are the only ones worth citing. It simply
meant to make it easier for users to cite ORCA specific papers. It is not a substitute for doing your
own literature research and citing the relevant literature in a scientifically appropriate manner.

List of essential papers. We consider these as the minimum necessary citations

  1. Neese, F.
     Software update: the ORCA program system, version 6.0
     WIRES Comput. Molec. Sci. 2025 15(1), e70019
     doi.org/10.1002/wcms.70019

List of papers to cite with high priority. The work reported in these papers was absolutely
necessary for this run to complete.
Our perspective: the developers of density functionals and basis sets usually get cited in chemistry papers
Good! But without the algorithms to do something with them, the functionals or basis sets would not do anything.
Hence, in our opinion, the algorithm design and method developments papers are equally worthy of getting cited

  1. Lehtola, S.; Steigemann, C.; Oliveira, M.; Marques, M.
     Recent developments in Libxc - A comprehensive library of functionals for density functional theory
     Software X 2018 7 , 
     doi.org/10.1016/j.softx.2017.11.002
  2. Neese, F.
     The SHARK Integral Generation and Digestion System
     J. Comp. Chem. 2022 44(3), 381
     doi.org/10.1002/jcc.26942

List of suggested additional citations. These are papers that are important in the 'surrounding' of 
of this run, or papers that preceded the highly important papers. If you like your results we are grateful for a citation.

  1. Neese, F.
     The ORCA program system
     WIRES Comput. Molec. Sci. 2012 2(1), 73-78
     doi.org/10.1002/wcms.81
  2. Neese, F.
     Software update: the ORCA program system, version 4.0
     WIRES Comput. Molec. Sci. 2018 8(1), 1-6
     doi.org/10.1002/wcms.1327
  3. Neese, F.; Wennmohs, F.; Becker, U.; Riplinger, C.
     The ORCA quantum chemistry program package
     J. Chem. Phys. 2020 152(22), 224108
     doi.org/10.1063/5.0004608
  4. Neese, F.
     Software update: The ORCA program system—Version 5.0
     WIRES Comput. Molec. Sci. 2022 12(1), e1606
     doi.org/10.1002/wcms.1606

List of optional additional citations

  1. Neese, F.
     Approximate second-order SCF convergence for spin unrestricted wavefunctions
     Chem. Phys. Lett. 2000 325(1-3), 93-98
     doi.org/10.1016/s0009-2614(00)00662-x

Timings for individual modules:

Sum of individual times          ...      528.098 sec (=   8.802 min)
Startup calculation              ...        1.044 sec (=   0.017 min)   0.2 %
SCF iterations                   ...      526.252 sec (=   8.771 min)  99.7 %
Property integrals               ...        0.389 sec (=   0.006 min)   0.1 %
Property calculations            ...        0.372 sec (=   0.006 min)   0.1 %
Orbital localization             ...        0.040 sec (=   0.001 min)   0.0 %
                             ****ORCA TERMINATED NORMALLY****
TOTAL RUN TIME: 0 days 0 hours 8 minutes 48 seconds 877 msec
