
                                 *****************
                                 * O   R   C   A *
                                 *****************

                                            #,                                       
                                            ###                                      
                                            ####                                     
                                            #####                                    
                                            ######                                   
                                           ########,                                 
                                     ,,################,,,,,                         
                               ,,#################################,,                 
                          ,,##########################################,,             
                       ,#########################################, ''#####,          
                    ,#############################################,,   '####,        
                  ,##################################################,,,,####,       
                ,###########''''           ''''###############################       
              ,#####''   ,,,,##########,,,,          '''####'''          '####       
            ,##' ,,,,###########################,,,                        '##       
           ' ,,###''''                  '''############,,,                           
         ,,##''                                '''############,,,,        ,,,,,,###''
      ,#''                                            '''#######################'''  
     '                                                          ''''####''''         
             ,#######,   #######,   ,#######,      ##                                
            ,#'     '#,  ##    ##  ,#'     '#,    #''#        ,####,    ,#,          
            ##       ##  ##   ,#'  ##            #'  '#       #'       ,# #          
            ##       ##  #######   ##           ,######,      #####,      #          
            '#,     ,#'  ##    ##  '#,     ,#' ,#      #,     #,   #      #          
             '#######'   ##     ##  '#######'  #'      '#     '####' #    #          



                #########################################################
                #                        -***-                          #
                #          Department of theory and spectroscopy        #
                #                                                       #
                #                      Frank Neese                      #
                #                                                       #
                #     Directorship, Architecture, Infrastructure        #
                #                    SHARK, DRIVERS                     #
                #        Core code/Algorithms in most modules           #
                #                                                       #
                #        Max Planck Institute fuer Kohlenforschung      #
                #                Kaiser Wilhelm Platz 1                 #
                #                 D-45470 Muelheim/Ruhr                 #
                #                      Germany                          #
                #                                                       #
                #                  All rights reserved                  #
                #                        -***-                          #
                #########################################################


                         Program Version 6.1.1  -  RELEASE   -
                                (GIT: $487d211c$)
                          ($2025-11-21 10:33:24 +0100$)


 With contributions from (in alphabetic order):
[Max-Planck-Institut fuer Kohlenforschung]                               
  Daniel Aravena         : Magnetic Suceptibility                        
  Michael Atanasov       : Ab Initio Ligand Field Theory (pilot matlab implementation)
  Alexander A. Auer      : GIAO ZORA, VPT2 properties, NMR spectrum      
  Ute Becker             : All parallelization in ORCA, NUMFREQ, NUMCALC 
  Giovanni Bistoni       : ED, misc. LED, open-shell LED, HFLD           
  Dmytro Bykov           : pre 5.0 version of the SCF Hessian            
  Marcos Casanova-Páez   : Triplet and SCS-CIS(D). UHF-(DLPNO)-IP/EA/STEOM-CCSD. UHF-CVS-IP/STEOM-CCSD   
  Vijay G. Chilkuri      : MRCI spin determinant printing, contributions to CSF-ICE 
  Pauline Colinet        : FMM embedding                                 
  Dipayan Datta          : RHF DLPNO-CCSD density                        
  Achintya Kumar Dutta   : EOM-CC, STEOM-CC                              
  Nicolas Foglia         : Exact transition moments, OPA infrastructure, MCD improvements    
  Dmitry Ganyushin       : Spin-Orbit,Spin-Spin,Magnetic field MRCI      
  Miquel Garcia-Rates    : C-PCM and meta-GGA Hessian, CCSD/C-PCM, Gaussian charge scheme 
  Tiago L. C. Gouveia    : GS-ROHF, GS-ROCIS                             
  Yang Guo               : DLPNO-NEVPT2, F12-NEVPT2, CIM, IAO-localization        
  Andreas Hansen         : Spin unrestricted coupled pair/coupled cluster methods 
  Ingolf Harden          : AUTO-CI MPn and infrastructure                
  Benjamin Helmich-Paris : MC-RPA, TRAH-(SCF,CASSCF), AVAS, COSX integrals, SCF dyn. polar., MC-PDFT, srDFT 
  Lee Huntington         : MR-EOM, pCC                                   
  Robert Izsak           : Overlap fitted RIJCOSX, COSX-SCS-MP3, EOM     
  Riya Kayal             : Wick's Theorem for AUTO-CI, AUTO-CI UHF-CCSDT 
  Emily Kempfer          : AUTO-CI RHF CISDT and CCSDT, approximate NEVPT4
  Christian Kollmar      : KDIIS, OOCD, Brueckner-CCSD(T), CCSD density, CASPT2, CASPT2-K, improved NEVPT2 
  Axel Koslowski         : Symmetry handling                             
  Simone Kossmann        : meta-GGA functionals, TD-DFT gradient, OOMP2, (MP2 Hessian; deprecated post 5.0) 
  Lucas Lang             : DCDCAS, Hyperfine gauge corrections, ICE-SOC+SSC
  Marvin Lechner         : AUTO-CI (C++ implementation), FIC-MRCC        
  Spencer Leger          : CASSCF response                               
  Dagmar Lenk            : GEPOL surface, SMD, ORCA-2-JSON               
  Dimitrios Liakos       : Extrapolation schemes; Compound Job, Property file
  Dimitrios Manganas     : Further ROCIS development; embedding schemes. LFT, Crystal Embedding 
  Dimitrios Pantazis     : SARC Basis sets                               
  Anastasios Papadopoulos: AUTO-CI, single reference methods and gradients 
  Taras Petrenko         : pre 6.0 DFT Hessian and TD-DFT gradient,  ECA, NRVS 
  Petra Pikulova         : Analytic Raman intensities                    
  Peter Pinski           : DLPNO-MP2, DLPNO-MP2 Gradient                 
  Shashank Vittal Rao    : ES-AILFT, MagRelax                            
  Christoph Reimann      : Effective Core Potentials                     
  Marius Retegan         : Local ZFS, SOC                                
  Christoph Riplinger    : Optimizer, TS searches, QM/MM, DLPNO-CCSD(T), (RO)-DLPNO pert. Triples 
  Michael Roemelt        : Original ROCIS implementation, recursive CI coupling coefficients
  Masaaki Saitow         : Open-shell DLPNO-CCSD energy and density      
  Barbara Sandhoefer     : DKH picture change effects                    
  Yorick L. A. Schmerwitz: GMF and freeze-and-release deltaSCF, NEB S-IDPP initial path                    
  Kantharuban Sivalingam : CASSCF convergence/infrastructure, NEVPT2, NEVPT3, NEVPT4(SD), FIC-MRCI and CEPA variants
  Bernardo de Souza      : ESD, SOC TD-DFT                               
  Georgi L. Stoychev     : AutoAux, RI-MP2 NMR, DLPNO-MP2 response, X2C  
  Van Anh Tran           : RI-MP2 g-tensors                              
  Willem Van den Heuvel  : Paramagnetic NMR                              
  Zikuan Wang            : NOTCH, Electric field optimization            
  Frank Wennmohs         : Technical directorship and infrastructure     
  Hang Xu                : AUTO-CI-Response properties                   
                                                                         
[FACCTs GmbH]                                                            
  Markus Bursch, Nicolas Foglia, Miquel Garcia-Rates, Ingolf Harden, Hagen Neugebauer, Anastasios Papadopoulos, 
  Christoph Riplinger, Bernardo de Souza, Georgi L. Stoychev                                                    
                                                                 
  APM, various basis sets, CI-OPT, improved COSX, DLPNO-Multilevel,           
  DOCKER, DRACO, updates on ESD, Fragmentator, GOAT, IRC, LR-CPCM, L-BFGS, MBIS, meta-GGA TD-DFT gradient, ML-optimized integration grids, 
  MM, NACMEs, nearIR, NEB, NEB-TS, NL-DFT gradient (VV10), 2- and 3-layer-ONIOM, interface openCOSMO-RS, QMMM,   
  Crystal-QMMM, RESP, rigid body optimization, SF, symmetry and pop. for TD-DFT, various functionals, SOLVATOR                                   
                                                                         
[Other institutions]                                                     
  V. Asgeirsson          : NEB                                           
  Christoph Bannwarth    : sTDA-DFT, sTD-DFT, PBEh-3c, B97-3c, D3        
  Giovanni Bistoni       : ETS/NOCV, ADLD/ADEX, COVALED                  
  Martin Brehm           : Molecular dynamics                            
  Ronald Cardenas        : ETS/NOCV                                      
  Martina Colucci        : COVALED                                       
  Sebastian Ehlert       : rSCAN, r2SCAN, r2SCAN-3c, D4, dhf basis sets  
  Marvin Friede          : D4 for Fr, Ra, Ac-Lr                          
  Lars Goerigk           : TD-DFT with DH, B97 family of functionals     
  Stefan Grimme          : VdW corrections, initial TS optimization, DFT functionals, gCP, sTDA/sTD-DF 
  Waldemar Hujo          : DFT-NL                                        
  H. Jonsson             : NEB                                           
  Holger Kruse           : gCP                                           
  Marcel Mueller         : wB97X-3c, vDZP basis set                      
  Hagen Neugebauer       : wr2SCAN, Native XTB                           
  Gianluca Regni         : ADLD/ADEX                                     
  Tobias Risthaus        : pre 6.0 range-separated hybrid DFT and stability analysis
  Lukas Wittmann         : regularized MP2, r2SCAN double-hybrids, wr2SCAN        
                                                                         
We gratefully acknowledge several colleagues who have allowed us to      
interface, adapt or use parts of their codes:                            
  Ed Valeev, F. Pavosevic, A. Kumar             : LibInt (2-el integral package), F12 methods 
  Garnet Chan, S. Sharma, J. Yang, R. Olivares  : DMRG                   
  Ulf Ekstrom                                   : XCFun DFT Library      
  Mihaly Kallay                                 : mrcc  (arbitrary order and MRCC methods)
  Frank Weinhold                                : gennbo (NPA and NBO analysis)           
  Simon Mueller                                 : openCOSMO-RS                            
  Christopher J. Cramer and Donald G. Truhlar   : smd solvation model                     
  S Lehtola, MJT Oliveira, MAL Marques          : LibXC Library                           
  Liviu Ungur et al                             : ANISO software                          


 Your calculation uses the libint2 library for the computation of 2-el integrals
 For citations please refer to: http://libint.valeyev.net

 Your ORCA version has been built with support for libXC version: 7.0.0
 For citations please refer to: https://libxc.gitlab.io

 This ORCA versions uses:
   CBLAS   interface :  Fast vector & matrix operations
   LAPACKE interface :  Fast linear algebra routines
   SCALAPACK package :  Parallel linear algebra routines
   Shared memory     :  Shared parallel matrices
   BLAS/LAPACK       :  OpenBLAS 0.3.29  USE64BITINT DYNAMIC_ARCH NO_AFFINITY Cooperlake SINGLE_THREADED
        Core in use  :  Cooperlake
   Copyright (c) 2011-2014, The OpenBLAS Project


  ***********************************
  * Starting time: Wed May 20 11:53:45 2026
  * Host name:     c1-87
  * Process ID:    3599903
  * Working dir.:  /cluster/projects/nn14654k/ylvaos/basis_set_n_funcs/functionals/gga_x_pbe/C4H6/out
  ***********************************

Using LibXC functional ID 101 : Perdew, Burke & Ernzerhof
[ 1]  J. P. Perdew, K. Burke, and M. Ernzerhof.,  Phys. Rev. Lett. 77, 3865 (1996)
[ 2]  J. P. Perdew, K. Burke, and M. Ernzerhof.,  Phys. Rev. Lett. 78, 1396 (1997)
Using LibXC functional ID 101 : Perdew, Burke & Ernzerhof
[ 1]  J. P. Perdew, K. Burke, and M. Ernzerhof.,  Phys. Rev. Lett. 77, 3865 (1996)
[ 2]  J. P. Perdew, K. Burke, and M. Ernzerhof.,  Phys. Rev. Lett. 78, 1396 (1997)
Your calculation utilizes LibXC
by S. Lehtola, C. Steigemann, M. J. T. Oliveira & M. A. L. Marques
Please cite in your paper:
Lehtola, S.; Steigemann, C.; Oliveira, M.J.T.; Marques, M. A. L. Software X, 7, (2018), 1.
   

================================================================================

----- Orbital basis set information -----
Your calculation utilizes the basis: pcseg-0
   F. Jensen, J. Chem. Theory Comput. 10, 1074 (2014).

================================================================================
                                        WARNINGS
                       Please study these warnings very carefully!
================================================================================


================================================================================
                                       INPUT FILE
================================================================================
NAME = /cluster/projects/nn14654k/ylvaos/basis_set_n_funcs/functionals/gga_x_pbe/C4H6/inp/C4H6_gga_x_pbe_pcseg0.inp
|  1> ! dft pcseg-0 TightSCF
|  2> %pal nprocs 8 end
|  3> 
|  4> %loc
|  5>   LocMet NewBoys
|  6>   Occ true
|  7> end
|  8> 
|  9> %method
| 10>   exchange gga_x_pbe
| 11>   correlation None
| 12> end
| 13> 
| 14> %elprop
| 15>   Dipole true
| 16>   Quadrupole true
| 17> end
| 18> 
| 19> * xyz 0 1
| 20> C    0.000000000000   0.000000000000   1.632000000000
| 21> C    0.000000000000   0.000000000000   0.300000000000
| 22> C    0.000000000000   0.771000000000  -0.936300000000
| 23> C    0.000000000000  -0.771000000000  -0.936300000000
| 24> H    0.000000000000   0.914000000000   2.222200000000
| 25> H    0.000000000000  -0.914000000000   2.222200000000
| 26> H    0.912300000000   1.305900000000  -1.200300000000
| 27> H   -0.912300000000   1.305900000000  -1.200300000000
| 28> H   -0.912300000000  -1.305900000000  -1.200300000000
| 29> H    0.912300000000  -1.305900000000  -1.200300000000
| 30> *
| 31> 
| 32> 
| 33>                          ****END OF INPUT****
================================================================================

                       ****************************
                       * Single Point Calculation *
                       ****************************

---------------------------------
CARTESIAN COORDINATES (ANGSTROEM)
---------------------------------
  C      0.000000    0.000000    1.632000
  C      0.000000    0.000000    0.300000
  C      0.000000    0.771000   -0.936300
  C      0.000000   -0.771000   -0.936300
  H      0.000000    0.914000    2.222200
  H      0.000000   -0.914000    2.222200
  H      0.912300    1.305900   -1.200300
  H     -0.912300    1.305900   -1.200300
  H     -0.912300   -1.305900   -1.200300
  H      0.912300   -1.305900   -1.200300

----------------------------
CARTESIAN COORDINATES (A.U.)
----------------------------
  NO LB      ZA    FRAG     MASS         X           Y           Z
   0 C     6.0000    0    12.011    0.000000    0.000000    3.084033
   1 C     6.0000    0    12.011    0.000000    0.000000    0.566918
   2 C     6.0000    0    12.011    0.000000    1.456979   -1.769351
   3 C     6.0000    0    12.011    0.000000   -1.456979   -1.769351
   4 H     1.0000    0     1.008    0.000000    1.727210    4.199349
   5 H     1.0000    0     1.008    0.000000   -1.727210    4.199349
   6 H     1.0000    0     1.008    1.723997    2.467793   -2.268238
   7 H     1.0000    0     1.008   -1.723997    2.467793   -2.268238
   8 H     1.0000    0     1.008   -1.723997   -2.467793   -2.268238
   9 H     1.0000    0     1.008    1.723997   -2.467793   -2.268238

--------------------------------
INTERNAL COORDINATES (ANGSTROEM)
--------------------------------
 C      0   0   0     0.000000000000     0.00000000     0.00000000
 C      1   0   0     1.332000000000     0.00000000     0.00000000
 C      2   1   0     1.457010188708   148.05088964     0.00000000
 C      2   1   3     1.457010188708   148.05088964   180.00000000
 H      1   2   3     1.087994503663   122.85166680     0.00000000
 H      1   2   3     1.087994503663   122.85166680   180.00000000
 H      3   2   1     1.090002431190   117.72260444    70.99760541
 H      3   2   1     1.090002431190   117.72260444   289.00239459
 H      4   2   1     1.090002431190   117.72260444    70.99760541
 H      4   2   1     1.090002431190   117.72260444   289.00239459

---------------------------
INTERNAL COORDINATES (A.U.)
---------------------------
 C      0   0   0     0.000000000000     0.00000000     0.00000000
 C      1   0   0     2.517115210383     0.00000000     0.00000000
 C      2   1   0     2.753350230992   148.05088964     0.00000000
 C      2   1   3     2.753350230992   148.05088964   180.00000000
 H      1   2   3     2.056011647134   122.85166680     0.00000000
 H      1   2   3     2.056011647134   122.85166680   180.00000000
 H      3   2   1     2.059806080257   117.72260444    70.99760541
 H      3   2   1     2.059806080257   117.72260444   289.00239459
 H      4   2   1     2.059806080257   117.72260444    70.99760541
 H      4   2   1     2.059806080257   117.72260444   289.00239459

---------------------
BASIS SET INFORMATION
---------------------
There are 2 groups of distinct atoms

 Group   1 Type C   : 6s3p contracted to 3s2p pattern {411/21}
 Group   2 Type H   : 3s contracted to 2s pattern {21}

Atom   0C    basis set group =>   1
Atom   1C    basis set group =>   1
Atom   2C    basis set group =>   1
Atom   3C    basis set group =>   1
Atom   4H    basis set group =>   2
Atom   5H    basis set group =>   2
Atom   6H    basis set group =>   2
Atom   7H    basis set group =>   2
Atom   8H    basis set group =>   2
Atom   9H    basis set group =>   2


           ************************************************************
           *        Program running with 8 parallel MPI-processes     *
           *              working on a common directory               *
           ************************************************************
------------------------------------------------------------------------------
                             ORCA STARTUP CALCULATIONS
------------------------------------------------------------------------------
------------------------------------------------------------------------------
                   ___                                                        
                  /   \      - P O W E R E D   B Y -                         
                 /     \                                                     
                 |  |  |   _    _      __       _____    __    __             
                 |  |  |  | |  | |    /  \     |  _  \  |  |  /  |          
                  \  \/   | |  | |   /    \    | | | |  |  | /  /          
                 / \  \   | |__| |  /  /\  \   | |_| |  |  |/  /          
                |  |  |   |  __  | /  /__\  \  |    /   |      \           
                |  |  |   | |  | | |   __   |  |    \   |  |\   \          
                \     /   | |  | | |  |  |  |  | |\  \  |  | \   \       
                 \___/    |_|  |_| |__|  |__|  |_| \__\ |__|  \__/        
                                                                              
                      - O R C A' S   B I G   F R I E N D -                    
                                      &                                       
                       - I N T E G R A L  F E E D E R -                       
                                                                              
 v1 FN, 2020, v2 2021, v3 2022-2024                                           
------------------------------------------------------------------------------


----------------------
SHARK INTEGRAL PACKAGE
----------------------

Number of atoms                             ...     10
Number of basis functions                   ...     48
Number of shells                            ...     32
Maximum angular momentum                    ...      1
Integral batch strategy                     ... SHARK/LIBINT Hybrid
RI-J (if used) integral strategy            ... SPLIT-RIJ (Revised 2003 algorithm where possible)
Printlevel                                  ...      1
Contraction scheme used                     ... SEGMENTED contraction
Prescreening option                         ... SCHWARTZ
   Thresh                                   ... 2.500e-11
   Tcut                                     ... 2.500e-12
   Tpresel                                  ... 2.500e-12 
Coulomb Range Separation                    ... NOT USED
Exchange Range Separation                   ... NOT USED
Multipole approximations                    ... NOT USED
Finite Nucleus Model                        ... NOT USED
CABS basis                                  ... NOT available
Auxiliary Coulomb fitting basis             ... NOT available
Auxiliary J/K fitting basis                 ... NOT available
Auxiliary Correlation fitting basis         ... NOT available
Auxiliary 'external' fitting basis          ... NOT available

Checking pre-screening integrals            ... done (  0.0 sec) Dimension = 32
   => SHARK Basis and OBASIS are compatible. Storing Pre-screening
Shell pair information
Shell pair cut-off parameter TPreSel        ...   2.5e-12
Total number of shell pairs                 ...       528
Shell pairs after pre-screening             ...       524
Total number of primitive shell pairs       ...      1519
Primitive shell pairs kept                  ...      1293
          la=0 lb=0:    296 shell pairs
          la=1 lb=0:    192 shell pairs
          la=1 lb=1:     36 shell pairs

Checking whether 4 symmetric matrices of dimension 48 fit in memory
:Max Core in MB      =   4096.00
 MB in use           =      1.41
 MB left             =   4094.59
 MB needed           =      0.04
 Data fit in memory  = YES
Calculating Nuclear repulsion               ... done (  0.0 sec) ENN=    109.249345578353 Eh

Diagonalization of the overlap matrix:
Smallest eigenvalue                        ... 4.144e-03
Time for diagonalization                   ...    0.001 sec
Threshold for overlap eigenvalues          ... 1.000e-07
Number of eigenvalues below threshold      ... 0
Time for construction of square roots      ...    0.002 sec
Total time needed                          ...    0.004 sec

-------------------
DFT GRID GENERATION
-------------------

General Integration Accuracy     IntAcc      ... 4.388
Radial Grid Type                 RadialGrid  ... OptM3 with GC (2021)
Angular Grid (max. ang.)         AngularGrid ... 4 (Lebedev-302)
Angular grid pruning method      GridPruning ... 4 (adaptive)
Weight generation scheme         WeightScheme... mBecke (2022)
Basis function cutoff            BFCut       ... 1.0000e-11
Integration weight cutoff        WCut        ... 1.0000e-14
Partially contracted basis set               ... off
Rotationally invariant grid construction     ... off
Angular grids for H and He will be reduced by one unit

Total number of grid points                  ...    43682
Total number of batches                      ...      687
Average number of points per batch           ...       63
Average number of grid points per atom       ...     4368
Grids setup in   0.1 sec
Initializing property integral containers    ... done (  0.0 sec)

SHARK setup successfully completed in   0.2 seconds

Maximum memory used throughout the entire STARTUP-calculation: 9.7 MB


           ************************************************************
           *        Program running with 8 parallel MPI-processes     *
           *              working on a common directory               *
           ************************************************************
-------------------------------------------------------------------------------
                                 ORCA GUESS
                   Start orbitals & Density for SCF / CASSCF
-------------------------------------------------------------------------------

------------
SCF SETTINGS
------------
Hamiltonian:
 Density Functional     Method          .... DFT(GTOs)
  Functional kind                       .... Exchange
  Functional name                       .... Perdew, Burke & Ernzerhof
  Functional family                     .... GGA
  Functional refs                              
    [ 0] J. P. Perdew, K. Burke, and M. Ernzerhof.,  Phys. Rev. Lett. 77, 3865 (1996), doi: 10.1103/PhysRevLett.77.3865
    [ 1] J. P. Perdew, K. Burke, and M. Ernzerhof.,  Phys. Rev. Lett. 78, 1396 (1997), doi: 10.1103/PhysRevLett.78.1396
  Functional external parameters        .... 2
    Parameter  0 _kappa     =  8.040000e-01 : Asymptotic value of the enhancement function
    Parameter  1 _mu        =  2.195150e-01 : Coefficient of the 2nd order expansion
 Correlation Functional Correlation     .... No Correlation
 Gradients option       PostSCFGGA      .... off


General Settings:
 Integral files         IntName         .... /cluster/projects/nn14654k/ylvaos/basis_set_n_funcs/functionals/gga_x_pbe/C4H6/inp/C4H6_gga_x_pbe_pcseg0
 Hartree-Fock type      HFTyp           .... RHF
 Total Charge           Charge          ....    0
 Multiplicity           Mult            ....    1
 Number of Electrons    NEL             ....   30
 Basis Dimension        Dim             ....   48
 Nuclear Repulsion      ENuc            ....    109.2493455784 Eh

Convergence Acceleration:
 AO-DIIS                CNVDIIS         .... on
   Start iteration      DIISMaxIt       ....    12
   Startup error        DIISStart       ....  0.200000
   # of expansion vecs  DIISMaxEq       ....     5
   Bias factor          DIISBfac        ....   1.050
   Max. coefficient     DIISMaxC        ....  10.000
 MO-DIIS                CNVKDIIS        .... off
 Trust-Rad. Augm. Hess. CNVTRAH         .... auto
   Auto Start mean grad. ratio tolernc. ....  1.125000
   Auto Start start iteration           ....    50
   Auto Start num. interpolation iter.  ....    10
   Max. Number of Micro iterations      ....    24
   Max. Number of Macro iterations      .... Maxiter - #DIIS iter
   Number of Davidson start vectors     ....     2
   Converg. threshold    (grad. norm)   ....   1.000e-05
   Grad. Scal. Fac. for Micro threshold ....   0.100
   Minimum threshold for Micro iter.    ....   1.000e-02
   NR start threshold (gradient norm)   ....   1.000e-04
   Initial trust radius                 ....   0.400
   Minimum AH scaling param. (alpha)    ....   1.000
   Maximum AH scaling param. (alpha)    .... 1000.000
   Quad. conv. algorithm                .... NR
   White noise on init. David. guess    .... on
   Maximum white noise                  ....   0.010
   Pseudo random numbers                .... off
   Inactive MOs                         .... canonical
   Orbital update algorithm             .... Taylor
   Preconditioner                       .... Diag
   Full preconditioner red. dimension   ....   250
 SOSCF                 CNVSOSCF           .... on
   Start iteration     SOSCFMaxIt         ....   150
   Startup grad/error  SOSCFStart         ....  0.003300
   Hessian update      SOSCFHessUp        .... L-BFGS
   Autom. constraints  SOSCFAutoConstrain .... off
 Level Shifting         CNVShift        .... on
   Level shift para.    LevelShift      ....    0.2500
   Turn off err/grad.   ShiftErr        ....    0.0010
 Zerner damping         CNVZerner       .... off
 Static damping         CNVDamp         .... on
   Fraction old density DampFac         ....    0.7000
   Max. Damping (<1)    DampMax         ....    0.9800
   Min. Damping (>=0)   DampMin         ....    0.0000
   Turn off err/grad.   DampErr         ....    0.1000

SCF Procedure:
 Maximum # iterations   MaxIter         ....   125
 SCF integral mode      SCFMode         .... Direct
   Integral package                     .... SHARK and LIBINT hybrid scheme
 Reset frequency        DirectResetFreq ....    20
 Integral Threshold     Thresh          ....  2.500e-11 Eh
 Primitive CutOff       TCut            ....  2.500e-12 Eh

Convergence Tolerance:
 Convergence Check Mode ConvCheckMode   .... Total+1el-Energy
 Convergence forced     ConvForced      .... 0
 Energy Change          TolE            ....  1.000e-08 Eh
 1-El. energy change                    ....  1.000e-05 Eh
 Orbital Gradient       TolG            ....  1.000e-05
 Orbital Rotation angle TolX            ....  1.000e-05
 DIIS Error             TolErr          ....  5.000e-07

------------------------------
INITIAL GUESS: MODEL POTENTIAL
------------------------------
Loading Hartree-Fock densities                     ... done
Calculating cut-offs                               ... done
Initializing the effective Hamiltonian             ... done
Setting up the integral package (SHARK)            ... done
Starting the Coulomb interaction                   ... done (   0.0 sec)
Making the grid                                    ... done (   0.0 sec)
Mapping shells                                     ... done
Starting the XC term evaluation                    ... done (   0.0 sec)
  promolecular density results
     # of electrons  =     29.996209296
     EX              =    -22.197083970
     EC              =      0.000000000
     EX+EC           =    -22.197083970
Transforming the Hamiltonian                       ... done (   0.0 sec)
Diagonalizing the Hamiltonian                      ... done (   0.0 sec)
Back transforming the eigenvectors                 ... done (   0.0 sec)
Now organizing SCF variables                       ... done
                      ------------------
                      INITIAL GUESS DONE (   0.1 sec)
                      ------------------
             **** ENERGY FILE WAS UPDATED (/cluster/projects/nn14654k/ylvaos/basis_set_n_funcs/functionals/gga_x_pbe/C4H6/inp/C4H6_gga_x_pbe_pcseg0.en.tmp) ****
Finished Guess after   0.1 sec
Maximum memory used throughout the entire GUESS-calculation: 3.7 MB


           ************************************************************
           *        Program running with 8 parallel MPI-processes     *
           *              working on a common directory               *
           ************************************************************

-------------------------------------------------------------------------------------------
                                      ORCA LEAN-SCF
                              memory conserving SCF solver
-------------------------------------------------------------------------------------------

----------------------------------------D-I-I-S--------------------------------------------
Iteration    Energy (Eh)           Delta-E    RMSDP     MaxDP     DIISErr   Damp  Time(sec)
-------------------------------------------------------------------------------------------
               ***  Starting incremental Fock matrix formation  ***
    1    -154.3228130301394572     0.00e+00  1.96e-02  5.31e-02  1.42e-01  0.700   0.0
    2    -154.3539180207106369    -3.11e-02  1.51e-02  3.12e-02  6.81e-02  0.700   0.1
                               ***Turning on AO-DIIS***
    3    -154.3662112627654892    -1.23e-02  6.72e-03  9.39e-03  1.97e-02  0.700   0.0
    4    -154.3731606991220815    -6.95e-03  1.12e-02  2.25e-02  8.56e-03  0.000   0.1
    5    -154.3883662116382993    -1.52e-02  2.25e-03  4.26e-03  4.75e-03  0.000   0.0
                              *** Initializing SOSCF ***
---------------------------------------S-O-S-C-F--------------------------------------
Iteration    Energy (Eh)           Delta-E    RMSDP     MaxDP     MaxGrad    Time(sec)
--------------------------------------------------------------------------------------
    6    -154.3885121184151785    -1.46e-04  7.73e-04  1.55e-03  1.53e-03     0.1
               *** Restarting incremental Fock matrix formation ***
    7    -154.3885230573002900    -1.09e-05  6.60e-04  1.34e-03  3.09e-04     0.1
    8    -154.3885202616087327     2.80e-06  3.42e-04  1.46e-03  8.61e-04     0.1
    9    -154.3885247427915601    -4.48e-06  2.45e-04  4.95e-04  1.69e-04     0.1
   10    -154.3885246568871139     8.59e-08  1.15e-04  1.76e-04  1.29e-04     0.1
   11    -154.3885249688627255    -3.12e-07  1.99e-05  5.88e-05  1.01e-05     0.1
   12    -154.3885249704806029    -1.62e-09  7.40e-06  1.71e-05  4.75e-06     0.0
                 **** Energy Check signals convergence ****

               *****************************************************
               *                     SUCCESS                       *
               *           SCF CONVERGED AFTER  12 CYCLES          *
               *****************************************************

             **** ENERGY FILE WAS UPDATED (/cluster/projects/nn14654k/ylvaos/basis_set_n_funcs/functionals/gga_x_pbe/C4H6/inp/C4H6_gga_x_pbe_pcseg0.en.tmp) ****

----------------
TOTAL SCF ENERGY
----------------

Total Energy       :       -154.38852497098907 Eh           -4201.12535 eV

Components:
Nuclear Repulsion  :        109.24934557835338 Eh            2972.82583 eV
Electronic Energy  :       -263.63787054934244 Eh           -7173.95117 eV
One Electron Energy:       -423.14321095318905 Eh          -11514.31215 eV
Two Electron Energy:        159.50534040384665 Eh            4340.36097 eV

Virial components:
Potential Energy   :       -308.65181442449654 Eh           -8398.84286 eV
Kinetic Energy     :        154.26328945350747 Eh            4197.71751 eV
Virial Ratio       :          2.00081182968369

DFT components:
N(Alpha)           :       15.000007690814 electrons
N(Beta)            :       15.000007690814 electrons
N(Total)           :       30.000015381628 electrons
E(X)               :      -22.621343299521 Eh       
E(C)               :        0.000000000000 Eh       
E(XC)              :      -22.621343299521 Eh       

---------------
SCF CONVERGENCE
---------------

  Last Energy change         ...    1.6179e-09  Tolerance :   1.0000e-08
  Last MAX-Density change    ...    1.7121e-05  Tolerance :   1.0000e-07
  Last RMS-Density change    ...    7.4018e-06  Tolerance :   5.0000e-09
  Last DIIS Error            ...    1.5276e-03  Tolerance :   5.0000e-07
  Last Orbital Gradient      ...    4.7478e-06  Tolerance :   1.0000e-05
  Last Orbital Rotation      ...    1.4071e-05  Tolerance :   1.0000e-05


----------------
ORBITAL ENERGIES
----------------

  NO   OCC          E(Eh)            E(eV) 
   0   2.0000      -9.883947      -268.9559 
   1   2.0000      -9.883848      -268.9532 
   2   2.0000      -9.880882      -268.8725 
   3   2.0000      -9.866127      -268.4710 
   4   2.0000      -0.770003       -20.9528 
   5   2.0000      -0.609168       -16.5763 
   6   2.0000      -0.514169       -13.9912 
   7   2.0000      -0.443949       -12.0805 
   8   2.0000      -0.399320       -10.8660 
   9   2.0000      -0.390054       -10.6139 
  10   2.0000      -0.347321        -9.4511 
  11   2.0000      -0.297495        -8.0953 
  12   2.0000      -0.245804        -6.6887 
  13   2.0000      -0.224930        -6.1206 
  14   2.0000      -0.190256        -5.1771 
  15   0.0000       0.010824         0.2945 
  16   0.0000       0.090780         2.4703 
  17   0.0000       0.113374         3.0851 
  18   0.0000       0.116389         3.1671 
  19   0.0000       0.127686         3.4745 
  20   0.0000       0.139348         3.7918 
  21   0.0000       0.186899         5.0858 
  22   0.0000       0.195809         5.3282 
  23   0.0000       0.275863         7.5066 
  24   0.0000       0.305226         8.3056 
  25   0.0000       0.376969        10.2579 
*Only the first 10 virtual orbitals were printed.

                    ********************************
                    * MULLIKEN POPULATION ANALYSIS *
                    ********************************

-----------------------
MULLIKEN ATOMIC CHARGES
-----------------------
   0 C :   -0.279810
   1 C :   -0.160361
   2 C :   -0.297085
   3 C :   -0.297085
   4 H :    0.146952
   5 H :    0.146952
   6 H :    0.185109
   7 H :    0.185109
   8 H :    0.185109
   9 H :    0.185109
Sum of atomic charges:   -0.0000000

--------------------------------
MULLIKEN REDUCED ORBITAL CHARGES
--------------------------------
  0 C s       :     3.181157  s :     3.181157
      pz      :     1.011218  p :     3.098654
      px      :     1.029846
      py      :     1.057590

  1 C s       :     3.007246  s :     3.007246
      pz      :     1.148127  p :     3.153115
      px      :     1.000739
      py      :     1.004249

  2 C s       :     3.229788  s :     3.229788
      pz      :     0.999701  p :     3.067297
      px      :     1.141296
      py      :     0.926300

  3 C s       :     3.229788  s :     3.229788
      pz      :     0.999701  p :     3.067297
      px      :     1.141296
      py      :     0.926300

  4 H s       :     0.853048  s :     0.853048

  5 H s       :     0.853048  s :     0.853048

  6 H s       :     0.814891  s :     0.814891

  7 H s       :     0.814891  s :     0.814891

  8 H s       :     0.814891  s :     0.814891

  9 H s       :     0.814891  s :     0.814891



                     *******************************
                     * LOEWDIN POPULATION ANALYSIS *
                     *******************************

----------------------
LOEWDIN ATOMIC CHARGES
----------------------
   0 C :   -0.198392
   1 C :   -0.057359
   2 C :   -0.187819
   3 C :   -0.187819
   4 H :    0.094563
   5 H :    0.094563
   6 H :    0.110565
   7 H :    0.110565
   8 H :    0.110565
   9 H :    0.110565

-------------------------------
LOEWDIN REDUCED ORBITAL CHARGES
-------------------------------
  0 C s       :     2.990192  s :     2.990192
      pz      :     1.078619  p :     3.208200
      px      :     1.046798
      py      :     1.082782

  1 C s       :     2.894387  s :     2.894387
      pz      :     1.077040  p :     3.162972
      px      :     0.988109
      py      :     1.097823

  2 C s       :     2.950658  s :     2.950658
      pz      :     1.118814  p :     3.237161
      px      :     1.114813
      py      :     1.003533

  3 C s       :     2.950658  s :     2.950658
      pz      :     1.118814  p :     3.237161
      px      :     1.114813
      py      :     1.003533

  4 H s       :     0.905437  s :     0.905437

  5 H s       :     0.905437  s :     0.905437

  6 H s       :     0.889435  s :     0.889435

  7 H s       :     0.889435  s :     0.889435

  8 H s       :     0.889435  s :     0.889435

  9 H s       :     0.889435  s :     0.889435



                      *****************************
                      * MAYER POPULATION ANALYSIS *
                      *****************************

  NA   - Mulliken gross atomic population
  ZA   - Total nuclear charge
  QA   - Mulliken gross atomic charge
  VA   - Mayer's total valence
  BVA  - Mayer's bonded valence
  FA   - Mayer's free valence

  ATOM       NA         ZA         QA         VA         BVA        FA
  0 C      6.2798     6.0000    -0.2798     4.0814     4.0814    -0.0000
  1 C      6.1604     6.0000    -0.1604     3.9424     3.9424    -0.0000
  2 C      6.2971     6.0000    -0.2971     3.7941     3.7941    -0.0000
  3 C      6.2971     6.0000    -0.2971     3.7941     3.7941    -0.0000
  4 H      0.8530     1.0000     0.1470     0.9523     0.9523    -0.0000
  5 H      0.8530     1.0000     0.1470     0.9523     0.9523     0.0000
  6 H      0.8149     1.0000     0.1851     0.9380     0.9380    -0.0000
  7 H      0.8149     1.0000     0.1851     0.9380     0.9380    -0.0000
  8 H      0.8149     1.0000     0.1851     0.9380     0.9380     0.0000
  9 H      0.8149     1.0000     0.1851     0.9380     0.9380    -0.0000

  Mayer bond orders larger than 0.100000
B(  0-C ,  1-C ) :   2.0298 B(  0-C ,  4-H ) :   0.9458 B(  0-C ,  5-H ) :   0.9458 
B(  1-C ,  2-C ) :   0.9782 B(  1-C ,  3-C ) :   0.9782 B(  2-C ,  3-C ) :   0.8949 
B(  2-C ,  6-H ) :   0.9281 B(  2-C ,  7-H ) :   0.9281 B(  3-C ,  8-H ) :   0.9281 
B(  3-C ,  9-H ) :   0.9281 

-------
TIMINGS
-------

Total SCF time: 0 days 0 hours 0 min 0 sec 

Total time                  ....       0.777 sec
Sum of individual times     ....       0.701 sec  ( 90.2%)

SCF preparation             ....       0.044 sec  (  5.7%)
Fock matrix formation       ....       0.492 sec  ( 63.4%)
  Startup                   ....       0.007 sec  (  1.5% of F)
  Coulomb formation         ....       0.045 sec  (  9.1% of F)
  XC integration            ....       0.308 sec  ( 62.7% of F)
    Basis function eval.    ....       0.037 sec  ( 12.1% of XC)
    Density eval.           ....       0.013 sec  (  4.2% of XC)
    XC-Functional eval.     ....       0.017 sec  (  5.6% of XC)
    XC-Potential eval.      ....       0.016 sec  (  5.2% of XC)
Diagonalization             ....       0.000 sec  (  0.0%)
Density matrix formation    ....       0.060 sec  (  7.7%)
Total Energy calculation    ....       0.015 sec  (  1.9%)
Population analysis         ....       0.012 sec  (  1.6%)
Orbital Transformation      ....       0.010 sec  (  1.3%)
Orbital Orthonormalization  ....       0.000 sec  (  0.0%)
DIIS solution               ....       0.031 sec  (  4.0%)
SOSCF solution              ....       0.036 sec  (  4.6%)
Finished LeanSCF after   0.8 sec

Maximum memory used throughout the entire LEANSCF-calculation: 4.4 MB


           ************************************************************
           *        Program running with 8 parallel MPI-processes     *
           *              working on a common directory               *
           ************************************************************

------------------------------------------------------------------------------
                         ORCA PROPERTY INTEGRAL CALCULATIONS
------------------------------------------------------------------------------

GBWName                                   ... /cluster/projects/nn14654k/ylvaos/basis_set_n_funcs/functionals/gga_x_pbe/C4H6/inp/C4H6_gga_x_pbe_pcseg0.gbw
Number of atoms                           ...     10
Number of basis functions                 ...     48
Max core memory                           ...   4096 MB

Dipole integrals                          ... YES
Quadrupole integrals                      ... YES
Linear momentum integrals                 ...  NO
Angular momentum integrals                ...  NO
Higher moments length integrals           ...  NO
Higher moments velocity integrals         ...  NO
Kinetic energy integrals                  ...  NO
GIAO right hand sides                     ...  NO
GIAO dipole derivative integrals          ...  NO
SOC integrals                             ...  NO
EPR diamagnetic integrals (GIAO)          ...  NO
EPR gauge integrals                       ...  NO
Field gradient integrals                  ...  NO (   0 nuclei)
Spin-dipole/Fermi contact integrals       ...  NO (   0 nuclei)
Contact density integrals                 ...  NO (   0 nuclei)
Nucleus-orbit integrals                   ...  NO (   0 nuclei)
Geometric perturbations                   ...  NO (  10 nuclei)

Choice of electric origin   ... Center of mass
Position of electric origin ... (  0.0000,  0.0000,  0.0124) 
Choice of magnetic origin   ... GIAO
Position of magnetic origin ... (  0.0000,  0.0000,  0.0000) 

Calculating integrals                     ... Electric Dipole (Length)     done (  0.0 sec)
Calculating integrals                     ... Electric Quadrupole (Length) done (  0.0 sec)

Property integrals calculated in   0.0 sec

Maximum memory used throughout the entire PROPINT-calculation: 2.9 MB
------------------------------------------------------------------------------
                           ORCA ORBITAL LOCALIZATION
------------------------------------------------------------------------------

Input orbitals are from                  ... /cluster/projects/nn14654k/ylvaos/basis_set_n_funcs/functionals/gga_x_pbe/C4H6/inp/C4H6_gga_x_pbe_pcseg0.gbw
Output orbitals are to                   ... /cluster/projects/nn14654k/ylvaos/basis_set_n_funcs/functionals/gga_x_pbe/C4H6/inp/C4H6_gga_x_pbe_pcseg0.loc
Max. number of iterations                ... 128
Localizations seeded randomly            ... on
Convergence tolerance                    ... 1.000e-06
Threshold for strong local MOs           ... 9.500e-01
Threshold for bond MOs                   ... 8.500e-01
Operator                                 ... 0
Orbital range for localization           ... 4 to 14
Localization criterion                   ... NEW-BOYS
Doing the dipole integrals               ... o.k.
Initial value of the localization sum :    59.980233
ITERATION   0 : L=   85.1310195230 DL=  2.52e+01 (AVERGE_DL)=    0.6762300044 
ITERATION   1 : L=   87.0944840890 DL=  1.96e+00 (AVERGE_DL)=    0.1889427314 
ITERATION   2 : L=   87.1333358727 DL=  3.89e-02 (AVERGE_DL)=    0.0265781126 
ITERATION   3 : L=   87.1334339229 DL=  9.81e-05 (AVERGE_DL)=    0.0013351898 
ITERATION   4 : L=   87.1334342289 DL=  3.06e-07 (AVERGE_DL)=    0.0000745832 
LOCALIZATION SUM CONVERGED


--------------------------------------------------------------------------------
                    LOCALIZED MOLECULAR ORBITAL COMPOSITIONS
--------------------------------------------------------------------------------

The Mulliken populations for each LMO on each atom are computed
The LMO`s will be ordered according to atom index and type
  (A) Strongly localized MO`s have populations of >=0.950 on one atom
  (B) Two center bond orbitals have populations of >=0.850 on two atoms
  (C) Other MO`s are considered to be `delocalized`

FOUND  -   0 strongly local MO`s
       -  11 two center bond MO`s
       -   0 significantly delocalized MO`s

Bond-like localized orbitals:
MO  14:   9H  -   0.420674  and   3C  -   0.591651
MO  13:   8H  -   0.420674  and   3C  -   0.591651
MO  12:   7H  -   0.420674  and   2C  -   0.591652
MO  11:   6H  -   0.420674  and   2C  -   0.591652
MO  10:   5H  -   0.440644  and   0C  -   0.571832
MO   9:   4H  -   0.440644  and   0C  -   0.571832
MO   8:   3C  -   0.536170  and   2C  -   0.536170
MO   7:   3C  -   0.512964  and   1C  -   0.555045
MO   6:   2C  -   0.512963  and   1C  -   0.555046
MO   5:   1C  -   0.526449  and   0C  -   0.472357
MO   4:   1C  -   0.526451  and   0C  -   0.472356
Localized MO's were stored in: /cluster/projects/nn14654k/ylvaos/basis_set_n_funcs/functionals/gga_x_pbe/C4H6/inp/C4H6_gga_x_pbe_pcseg0.loc

-------------------------   --------------------
FINAL SINGLE POINT ENERGY      -154.388524970989
-------------------------   --------------------



           ************************************************************
           *        Program running with 8 parallel MPI-processes     *
           *              working on a common directory               *
           ************************************************************

------------------------------------------------------------------------------
                              ORCA PROPERTY CALCULATIONS
------------------------------------------------------------------------------

GBWName                                 ... /cluster/projects/nn14654k/ylvaos/basis_set_n_funcs/functionals/gga_x_pbe/C4H6/inp/C4H6_gga_x_pbe_pcseg0.gbw
Number of atoms                         ...     10
Number of basis functions               ...     48
Max core memory                         ...   4096 MB

Electric properties:
Dipole moment                           ... YES
Quadrupole moment                       ... YES
Static polarizability (Dipole/Dipole)   ...  NO
Static polarizability (Dipole/Quad.)    ...  NO
Static polarizability (Quad./Quad.)     ...  NO
Static polarizability (Velocity)        ...  NO
Static hyperpolarizability              ...  NO

Atomic electric properties:
Dipole moment                           ...  NO
Quadrupole moment                       ...  NO
Static polarizability                   ...  NO

Choice of electric origin               ... Center of mass
Position of electric origin             ...     0.000000     0.000000     0.012360

General magnetic properties:
Magnetizability                         ...  NO

EPR properties:
g-Tensor (aka g-matrix)                 ...  NO
Zero-Field splitting spin-orbit         ...  NO
Zero-field splitting spin-spin          ...  NO
Hyperfine couplings                     ...  NO (   0 nuclei)
Quadrupole couplings                    ...  NO (   0 nuclei)
Contact density                         ...  NO (   0 nuclei)

NMR properties:
Chemical shifts                         ...  NO (   0 nuclei)
Spin-rotation constants                 ...  NO (   0 nuclei)
Spin-spin couplings                     ...  NO (   0 nuclei,    0 pairs)

Choice of magnetic origin               ... GIAO
Position of magnetic origin             ...     0.000000     0.000000     0.000000

Properties with geometric perturbations:
SCF Hessian                             ...  NO
IR spectrum                             ...  NO
VCD spectrum                            ...  NO
X-ray spectroscopy properties:
SCF XES/XAS/RIXS spectra                ...  NO

SCF SOC stabilization energy            ...  NO
Diagonal Born-Oppenheimer correction    ...  NO

-------------
DIPOLE MOMENT
-------------

Method             : SCF
Type of density    : Electron Density
Multiplicity       :   1
Irrep              :   0
Energy             :  -154.3885249709890672 Eh
Basis              : AO
                                X                 Y                 Z
Electronic contribution:      0.000000002       0.000000009       0.286897069
Nuclear contribution   :      0.000000000       0.000000000      -0.371559272
                        -----------------------------------------
Total Dipole Moment    :      0.000000002       0.000000009      -0.084662203
                        -----------------------------------------
Magnitude (a.u.)       :      0.084662203
Magnitude (Debye)      :      0.215194217



--------------------
Rotational spectrum 
--------------------
 
Rotational constants in cm-1:             0.643527             0.230144             0.181788 
Rotational constants in MHz :         19292.450199          6899.535423          5449.866904 

Dipole components along the rotational axes: 
x,y,z [a.u.] :    -0.084662     0.000000     0.000000 
x,y,z [Debye]:    -0.215194     0.000000     0.000000 

 

Dipole moment calculation done in   0.0 sec 

-----------------
QUADRUPOLE MOMENT
-----------------

Method             : SCF
Type of density    : Electron Density
Multiplicity       :   1
Irrep              :   0
Energy             :  -154.3885249709890672 Eh
Basis              : AO

                XX              YY              ZZ              XY              XZ              YZ
  NUC       11.888664720    55.799971245   152.416444257     0.000000000     0.000000000     0.000000000
  EL       -31.357957873   -74.615146003  -171.848135692    -0.000000006    -0.000000002    -0.000000006
  TOT      -19.469293153   -18.815174759   -19.431691435    -0.000000006    -0.000000002    -0.000000006 (a.u.)
           -26.186865140   -25.307053529   -26.136289544    -0.000000007    -0.000000003    -0.000000008 (Buckingham)

diagonalized tensor:
           -19.469293153   -19.431691435   -18.815174759 (a.u.)
           -26.186865140   -26.136289544   -25.307053529 (Buckingham)
            -0.930387207    -0.778660419     1.709047626 (traceless form in Buckingham)

             1.000000000    -0.000000065    -0.000000008
             0.000000008     0.000000010     1.000000000
             0.000000065     1.000000000    -0.000000010
        
Isotropic quadrupole :   -19.238719782

Quadrupole moment calculation done in   0.0 sec (  0.0 sec for integrals)

Maximum memory used throughout the entire PROP-calculation: 1.6 MB

--------------------------------
SUGGESTED CITATIONS FOR THIS RUN
--------------------------------

Below you find a list of papers that are relevant to this ORCA run
We neither can nor want to force you to cite these papers, but we appreciate if you do
You receive ORCA, which is the product of decades of hard work by many enthusiastic individuals, for free
The only thing we kindly ask in return is that you cite our papers,
We deeply appreciate it, if you show your appreciation for ORCA by not just citing the generic ORCA reference.

Please note that relegating all ORCA citations to the supporting information does *not* help us.
SI sections are not indexed - citations you put there will not count into any citation statistics
But we need these citations in order to attract the funding resources that allow us to do what we are doing

Therefore, if you are a happy ORCA user, please consider citing a few of the papers listed below in the main body of your paper

In addition to the list printed below, the program has created the file /cluster/projects/nn14654k/ylvaos/basis_set_n_funcs/functionals/gga_x_pbe/C4H6/inp/C4H6_gga_x_pbe_pcseg0.bibtex that contains the list in bibtex format
You can import this file easily into all common literature databanks and citation aid programs

It goes without saying that in many instances, there are alternative algorithms to achieve similar
results as the ones you have gotten from ORCA. It is, of course, also the case that in some instances
ORCA just re-implements algorithms worked out by others. We are fully aware of that and we are also
fully appreciative of our colleagues work. Hence this citation list should not be read as indicating
that the listed papers, which are focused on our own work, are the only ones worth citing. It simply
meant to make it easier for users to cite ORCA specific papers. It is not a substitute for doing your
own literature research and citing the relevant literature in a scientifically appropriate manner.

List of essential papers. We consider these as the minimum necessary citations

  1. Neese, F.
     Software update: the ORCA program system, version 6.0
     WIRES Comput. Molec. Sci. 2025 15(1), e70019
     doi.org/10.1002/wcms.70019

List of papers to cite with high priority. The work reported in these papers was absolutely
necessary for this run to complete.
Our perspective: the developers of density functionals and basis sets usually get cited in chemistry papers
Good! But without the algorithms to do something with them, the functionals or basis sets would not do anything.
Hence, in our opinion, the algorithm design and method developments papers are equally worthy of getting cited

  1. Lehtola, S.; Steigemann, C.; Oliveira, M.; Marques, M.
     Recent developments in Libxc - A comprehensive library of functionals for density functional theory
     Software X 2018 7 , 
     doi.org/10.1016/j.softx.2017.11.002
  2. Neese, F.
     The SHARK Integral Generation and Digestion System
     J. Comp. Chem. 2022 44(3), 381
     doi.org/10.1002/jcc.26942

List of suggested additional citations. These are papers that are important in the 'surrounding' of 
of this run, or papers that preceded the highly important papers. If you like your results we are grateful for a citation.

  1. Neese, F.
     The ORCA program system
     WIRES Comput. Molec. Sci. 2012 2(1), 73-78
     doi.org/10.1002/wcms.81
  2. Neese, F.
     Software update: the ORCA program system, version 4.0
     WIRES Comput. Molec. Sci. 2018 8(1), 1-6
     doi.org/10.1002/wcms.1327
  3. Neese, F.; Wennmohs, F.; Becker, U.; Riplinger, C.
     The ORCA quantum chemistry program package
     J. Chem. Phys. 2020 152(22), 224108
     doi.org/10.1063/5.0004608
  4. Neese, F.
     Software update: The ORCA program system—Version 5.0
     WIRES Comput. Molec. Sci. 2022 12(1), e1606
     doi.org/10.1002/wcms.1606

List of optional additional citations

  1. Neese, F.
     Approximate second-order SCF convergence for spin unrestricted wavefunctions
     Chem. Phys. Lett. 2000 325(1-3), 93-98
     doi.org/10.1016/s0009-2614(00)00662-x

Timings for individual modules:

Sum of individual times          ...        2.214 sec (=   0.037 min)
Startup calculation              ...        0.454 sec (=   0.008 min)  20.5 %
SCF iterations                   ...        1.304 sec (=   0.022 min)  58.9 %
Property integrals               ...        0.221 sec (=   0.004 min)  10.0 %
Property calculations            ...        0.232 sec (=   0.004 min)  10.5 %
Orbital localization             ...        0.003 sec (=   0.000 min)   0.2 %
                             ****ORCA TERMINATED NORMALLY****
TOTAL RUN TIME: 0 days 0 hours 0 minutes 3 seconds 171 msec
