
                                 *****************
                                 * O   R   C   A *
                                 *****************

                                            #,                                       
                                            ###                                      
                                            ####                                     
                                            #####                                    
                                            ######                                   
                                           ########,                                 
                                     ,,################,,,,,                         
                               ,,#################################,,                 
                          ,,##########################################,,             
                       ,#########################################, ''#####,          
                    ,#############################################,,   '####,        
                  ,##################################################,,,,####,       
                ,###########''''           ''''###############################       
              ,#####''   ,,,,##########,,,,          '''####'''          '####       
            ,##' ,,,,###########################,,,                        '##       
           ' ,,###''''                  '''############,,,                           
         ,,##''                                '''############,,,,        ,,,,,,###''
      ,#''                                            '''#######################'''  
     '                                                          ''''####''''         
             ,#######,   #######,   ,#######,      ##                                
            ,#'     '#,  ##    ##  ,#'     '#,    #''#        ,####,    ,#,          
            ##       ##  ##   ,#'  ##            #'  '#       #'       ,# #          
            ##       ##  #######   ##           ,######,      #####,      #          
            '#,     ,#'  ##    ##  '#,     ,#' ,#      #,     #,   #      #          
             '#######'   ##     ##  '#######'  #'      '#     '####' #    #          



                #########################################################
                #                        -***-                          #
                #          Department of theory and spectroscopy        #
                #                                                       #
                #                      Frank Neese                      #
                #                                                       #
                #     Directorship, Architecture, Infrastructure        #
                #                    SHARK, DRIVERS                     #
                #        Core code/Algorithms in most modules           #
                #                                                       #
                #        Max Planck Institute fuer Kohlenforschung      #
                #                Kaiser Wilhelm Platz 1                 #
                #                 D-45470 Muelheim/Ruhr                 #
                #                      Germany                          #
                #                                                       #
                #                  All rights reserved                  #
                #                        -***-                          #
                #########################################################


                         Program Version 6.1.1  -  RELEASE   -
                                (GIT: $487d211c$)
                          ($2025-11-21 10:33:24 +0100$)


 With contributions from (in alphabetic order):
[Max-Planck-Institut fuer Kohlenforschung]                               
  Daniel Aravena         : Magnetic Suceptibility                        
  Michael Atanasov       : Ab Initio Ligand Field Theory (pilot matlab implementation)
  Alexander A. Auer      : GIAO ZORA, VPT2 properties, NMR spectrum      
  Ute Becker             : All parallelization in ORCA, NUMFREQ, NUMCALC 
  Giovanni Bistoni       : ED, misc. LED, open-shell LED, HFLD           
  Dmytro Bykov           : pre 5.0 version of the SCF Hessian            
  Marcos Casanova-Páez   : Triplet and SCS-CIS(D). UHF-(DLPNO)-IP/EA/STEOM-CCSD. UHF-CVS-IP/STEOM-CCSD   
  Vijay G. Chilkuri      : MRCI spin determinant printing, contributions to CSF-ICE 
  Pauline Colinet        : FMM embedding                                 
  Dipayan Datta          : RHF DLPNO-CCSD density                        
  Achintya Kumar Dutta   : EOM-CC, STEOM-CC                              
  Nicolas Foglia         : Exact transition moments, OPA infrastructure, MCD improvements    
  Dmitry Ganyushin       : Spin-Orbit,Spin-Spin,Magnetic field MRCI      
  Miquel Garcia-Rates    : C-PCM and meta-GGA Hessian, CCSD/C-PCM, Gaussian charge scheme 
  Tiago L. C. Gouveia    : GS-ROHF, GS-ROCIS                             
  Yang Guo               : DLPNO-NEVPT2, F12-NEVPT2, CIM, IAO-localization        
  Andreas Hansen         : Spin unrestricted coupled pair/coupled cluster methods 
  Ingolf Harden          : AUTO-CI MPn and infrastructure                
  Benjamin Helmich-Paris : MC-RPA, TRAH-(SCF,CASSCF), AVAS, COSX integrals, SCF dyn. polar., MC-PDFT, srDFT 
  Lee Huntington         : MR-EOM, pCC                                   
  Robert Izsak           : Overlap fitted RIJCOSX, COSX-SCS-MP3, EOM     
  Riya Kayal             : Wick's Theorem for AUTO-CI, AUTO-CI UHF-CCSDT 
  Emily Kempfer          : AUTO-CI RHF CISDT and CCSDT, approximate NEVPT4
  Christian Kollmar      : KDIIS, OOCD, Brueckner-CCSD(T), CCSD density, CASPT2, CASPT2-K, improved NEVPT2 
  Axel Koslowski         : Symmetry handling                             
  Simone Kossmann        : meta-GGA functionals, TD-DFT gradient, OOMP2, (MP2 Hessian; deprecated post 5.0) 
  Lucas Lang             : DCDCAS, Hyperfine gauge corrections, ICE-SOC+SSC
  Marvin Lechner         : AUTO-CI (C++ implementation), FIC-MRCC        
  Spencer Leger          : CASSCF response                               
  Dagmar Lenk            : GEPOL surface, SMD, ORCA-2-JSON               
  Dimitrios Liakos       : Extrapolation schemes; Compound Job, Property file
  Dimitrios Manganas     : Further ROCIS development; embedding schemes. LFT, Crystal Embedding 
  Dimitrios Pantazis     : SARC Basis sets                               
  Anastasios Papadopoulos: AUTO-CI, single reference methods and gradients 
  Taras Petrenko         : pre 6.0 DFT Hessian and TD-DFT gradient,  ECA, NRVS 
  Petra Pikulova         : Analytic Raman intensities                    
  Peter Pinski           : DLPNO-MP2, DLPNO-MP2 Gradient                 
  Shashank Vittal Rao    : ES-AILFT, MagRelax                            
  Christoph Reimann      : Effective Core Potentials                     
  Marius Retegan         : Local ZFS, SOC                                
  Christoph Riplinger    : Optimizer, TS searches, QM/MM, DLPNO-CCSD(T), (RO)-DLPNO pert. Triples 
  Michael Roemelt        : Original ROCIS implementation, recursive CI coupling coefficients
  Masaaki Saitow         : Open-shell DLPNO-CCSD energy and density      
  Barbara Sandhoefer     : DKH picture change effects                    
  Yorick L. A. Schmerwitz: GMF and freeze-and-release deltaSCF, NEB S-IDPP initial path                    
  Kantharuban Sivalingam : CASSCF convergence/infrastructure, NEVPT2, NEVPT3, NEVPT4(SD), FIC-MRCI and CEPA variants
  Bernardo de Souza      : ESD, SOC TD-DFT                               
  Georgi L. Stoychev     : AutoAux, RI-MP2 NMR, DLPNO-MP2 response, X2C  
  Van Anh Tran           : RI-MP2 g-tensors                              
  Willem Van den Heuvel  : Paramagnetic NMR                              
  Zikuan Wang            : NOTCH, Electric field optimization            
  Frank Wennmohs         : Technical directorship and infrastructure     
  Hang Xu                : AUTO-CI-Response properties                   
                                                                         
[FACCTs GmbH]                                                            
  Markus Bursch, Nicolas Foglia, Miquel Garcia-Rates, Ingolf Harden, Hagen Neugebauer, Anastasios Papadopoulos, 
  Christoph Riplinger, Bernardo de Souza, Georgi L. Stoychev                                                    
                                                                 
  APM, various basis sets, CI-OPT, improved COSX, DLPNO-Multilevel,           
  DOCKER, DRACO, updates on ESD, Fragmentator, GOAT, IRC, LR-CPCM, L-BFGS, MBIS, meta-GGA TD-DFT gradient, ML-optimized integration grids, 
  MM, NACMEs, nearIR, NEB, NEB-TS, NL-DFT gradient (VV10), 2- and 3-layer-ONIOM, interface openCOSMO-RS, QMMM,   
  Crystal-QMMM, RESP, rigid body optimization, SF, symmetry and pop. for TD-DFT, various functionals, SOLVATOR                                   
                                                                         
[Other institutions]                                                     
  V. Asgeirsson          : NEB                                           
  Christoph Bannwarth    : sTDA-DFT, sTD-DFT, PBEh-3c, B97-3c, D3        
  Giovanni Bistoni       : ETS/NOCV, ADLD/ADEX, COVALED                  
  Martin Brehm           : Molecular dynamics                            
  Ronald Cardenas        : ETS/NOCV                                      
  Martina Colucci        : COVALED                                       
  Sebastian Ehlert       : rSCAN, r2SCAN, r2SCAN-3c, D4, dhf basis sets  
  Marvin Friede          : D4 for Fr, Ra, Ac-Lr                          
  Lars Goerigk           : TD-DFT with DH, B97 family of functionals     
  Stefan Grimme          : VdW corrections, initial TS optimization, DFT functionals, gCP, sTDA/sTD-DF 
  Waldemar Hujo          : DFT-NL                                        
  H. Jonsson             : NEB                                           
  Holger Kruse           : gCP                                           
  Marcel Mueller         : wB97X-3c, vDZP basis set                      
  Hagen Neugebauer       : wr2SCAN, Native XTB                           
  Gianluca Regni         : ADLD/ADEX                                     
  Tobias Risthaus        : pre 6.0 range-separated hybrid DFT and stability analysis
  Lukas Wittmann         : regularized MP2, r2SCAN double-hybrids, wr2SCAN        
                                                                         
We gratefully acknowledge several colleagues who have allowed us to      
interface, adapt or use parts of their codes:                            
  Ed Valeev, F. Pavosevic, A. Kumar             : LibInt (2-el integral package), F12 methods 
  Garnet Chan, S. Sharma, J. Yang, R. Olivares  : DMRG                   
  Ulf Ekstrom                                   : XCFun DFT Library      
  Mihaly Kallay                                 : mrcc  (arbitrary order and MRCC methods)
  Frank Weinhold                                : gennbo (NPA and NBO analysis)           
  Simon Mueller                                 : openCOSMO-RS                            
  Christopher J. Cramer and Donald G. Truhlar   : smd solvation model                     
  S Lehtola, MJT Oliveira, MAL Marques          : LibXC Library                           
  Liviu Ungur et al                             : ANISO software                          


 Your calculation uses the libint2 library for the computation of 2-el integrals
 For citations please refer to: http://libint.valeyev.net

 Your ORCA version has been built with support for libXC version: 7.0.0
 For citations please refer to: https://libxc.gitlab.io

 This ORCA versions uses:
   CBLAS   interface :  Fast vector & matrix operations
   LAPACKE interface :  Fast linear algebra routines
   SCALAPACK package :  Parallel linear algebra routines
   Shared memory     :  Shared parallel matrices
   BLAS/LAPACK       :  OpenBLAS 0.3.29  USE64BITINT DYNAMIC_ARCH NO_AFFINITY Cooperlake SINGLE_THREADED
        Core in use  :  Cooperlake
   Copyright (c) 2011-2014, The OpenBLAS Project


  ***********************************
  * Starting time: Wed May 20 11:53:45 2026
  * Host name:     c1-86
  * Process ID:    1137495
  * Working dir.:  /cluster/projects/nn14654k/ylvaos/basis_set_n_funcs/functionals/gga_x_pbe/C4H6/out
  ***********************************

Using LibXC functional ID 101 : Perdew, Burke & Ernzerhof
[ 1]  J. P. Perdew, K. Burke, and M. Ernzerhof.,  Phys. Rev. Lett. 77, 3865 (1996)
[ 2]  J. P. Perdew, K. Burke, and M. Ernzerhof.,  Phys. Rev. Lett. 78, 1396 (1997)
Using LibXC functional ID 101 : Perdew, Burke & Ernzerhof
[ 1]  J. P. Perdew, K. Burke, and M. Ernzerhof.,  Phys. Rev. Lett. 77, 3865 (1996)
[ 2]  J. P. Perdew, K. Burke, and M. Ernzerhof.,  Phys. Rev. Lett. 78, 1396 (1997)
Your calculation utilizes LibXC
by S. Lehtola, C. Steigemann, M. J. T. Oliveira & M. A. L. Marques
Please cite in your paper:
Lehtola, S.; Steigemann, C.; Oliveira, M.J.T.; Marques, M. A. L. Software X, 7, (2018), 1.
   

================================================================================

----- Orbital basis set information -----
Your calculation utilizes the basis: pcseg-4
   F. Jensen, J. Chem. Theory Comput. 10, 1074 (2014).

================================================================================
                                        WARNINGS
                       Please study these warnings very carefully!
================================================================================


WARNING: The basis set has functions with high angular momentum (Lmax>4).
         We might need to increase small grids for safety reasons and
         in general, DEFGRID3 is recommend for such cases.
  ===> : GRIDX1, TD-DFT and the CP-SCF AngGrids will be increased to at least 2


================================================================================
                                       INPUT FILE
================================================================================
NAME = /cluster/projects/nn14654k/ylvaos/basis_set_n_funcs/functionals/gga_x_pbe/C4H6/inp/C4H6_gga_x_pbe_pcseg4.inp
|  1> ! dft pcseg-4 TightSCF
|  2> %pal nprocs 8 end
|  3> 
|  4> %loc
|  5>   LocMet NewBoys
|  6>   Occ true
|  7> end
|  8> 
|  9> %method
| 10>   exchange gga_x_pbe
| 11>   correlation None
| 12> end
| 13> 
| 14> %elprop
| 15>   Dipole true
| 16>   Quadrupole true
| 17> end
| 18> 
| 19> * xyz 0 1
| 20> C    0.000000000000   0.000000000000   1.632000000000
| 21> C    0.000000000000   0.000000000000   0.300000000000
| 22> C    0.000000000000   0.771000000000  -0.936300000000
| 23> C    0.000000000000  -0.771000000000  -0.936300000000
| 24> H    0.000000000000   0.914000000000   2.222200000000
| 25> H    0.000000000000  -0.914000000000   2.222200000000
| 26> H    0.912300000000   1.305900000000  -1.200300000000
| 27> H   -0.912300000000   1.305900000000  -1.200300000000
| 28> H   -0.912300000000  -1.305900000000  -1.200300000000
| 29> H    0.912300000000  -1.305900000000  -1.200300000000
| 30> *
| 31> 
| 32> 
| 33>                          ****END OF INPUT****
================================================================================

                       ****************************
                       * Single Point Calculation *
                       ****************************

---------------------------------
CARTESIAN COORDINATES (ANGSTROEM)
---------------------------------
  C      0.000000    0.000000    1.632000
  C      0.000000    0.000000    0.300000
  C      0.000000    0.771000   -0.936300
  C      0.000000   -0.771000   -0.936300
  H      0.000000    0.914000    2.222200
  H      0.000000   -0.914000    2.222200
  H      0.912300    1.305900   -1.200300
  H     -0.912300    1.305900   -1.200300
  H     -0.912300   -1.305900   -1.200300
  H      0.912300   -1.305900   -1.200300

----------------------------
CARTESIAN COORDINATES (A.U.)
----------------------------
  NO LB      ZA    FRAG     MASS         X           Y           Z
   0 C     6.0000    0    12.011    0.000000    0.000000    3.084033
   1 C     6.0000    0    12.011    0.000000    0.000000    0.566918
   2 C     6.0000    0    12.011    0.000000    1.456979   -1.769351
   3 C     6.0000    0    12.011    0.000000   -1.456979   -1.769351
   4 H     1.0000    0     1.008    0.000000    1.727210    4.199349
   5 H     1.0000    0     1.008    0.000000   -1.727210    4.199349
   6 H     1.0000    0     1.008    1.723997    2.467793   -2.268238
   7 H     1.0000    0     1.008   -1.723997    2.467793   -2.268238
   8 H     1.0000    0     1.008   -1.723997   -2.467793   -2.268238
   9 H     1.0000    0     1.008    1.723997   -2.467793   -2.268238

--------------------------------
INTERNAL COORDINATES (ANGSTROEM)
--------------------------------
 C      0   0   0     0.000000000000     0.00000000     0.00000000
 C      1   0   0     1.332000000000     0.00000000     0.00000000
 C      2   1   0     1.457010188708   148.05088964     0.00000000
 C      2   1   3     1.457010188708   148.05088964   180.00000000
 H      1   2   3     1.087994503663   122.85166680     0.00000000
 H      1   2   3     1.087994503663   122.85166680   180.00000000
 H      3   2   1     1.090002431190   117.72260444    70.99760541
 H      3   2   1     1.090002431190   117.72260444   289.00239459
 H      4   2   1     1.090002431190   117.72260444    70.99760541
 H      4   2   1     1.090002431190   117.72260444   289.00239459

---------------------------
INTERNAL COORDINATES (A.U.)
---------------------------
 C      0   0   0     0.000000000000     0.00000000     0.00000000
 C      1   0   0     2.517115210383     0.00000000     0.00000000
 C      2   1   0     2.753350230992   148.05088964     0.00000000
 C      2   1   3     2.753350230992   148.05088964   180.00000000
 H      1   2   3     2.056011647134   122.85166680     0.00000000
 H      1   2   3     2.056011647134   122.85166680   180.00000000
 H      3   2   1     2.059806080257   117.72260444    70.99760541
 H      3   2   1     2.059806080257   117.72260444   289.00239459
 H      4   2   1     2.059806080257   117.72260444    70.99760541
 H      4   2   1     2.059806080257   117.72260444   289.00239459

---------------------
BASIS SET INFORMATION
---------------------
There are 2 groups of distinct atoms

 Group   1 Type C   : 20s11p6d3f2g1h contracted to 6s5p6d3f2g1h pattern {1241111/71111/111111/111/11/1}
 Group   2 Type H   : 11s6p3d2f1g contracted to 5s6p3d2f1g pattern {71111/111111/111/11/1}

Atom   0C    basis set group =>   1
Atom   1C    basis set group =>   1
Atom   2C    basis set group =>   1
Atom   3C    basis set group =>   1
Atom   4H    basis set group =>   2
Atom   5H    basis set group =>   2
Atom   6H    basis set group =>   2
Atom   7H    basis set group =>   2
Atom   8H    basis set group =>   2
Atom   9H    basis set group =>   2


           ************************************************************
           *        Program running with 8 parallel MPI-processes     *
           *              working on a common directory               *
           ************************************************************
------------------------------------------------------------------------------
                             ORCA STARTUP CALCULATIONS
------------------------------------------------------------------------------
------------------------------------------------------------------------------
                   ___                                                        
                  /   \      - P O W E R E D   B Y -                         
                 /     \                                                     
                 |  |  |   _    _      __       _____    __    __             
                 |  |  |  | |  | |    /  \     |  _  \  |  |  /  |          
                  \  \/   | |  | |   /    \    | | | |  |  | /  /          
                 / \  \   | |__| |  /  /\  \   | |_| |  |  |/  /          
                |  |  |   |  __  | /  /__\  \  |    /   |      \           
                |  |  |   | |  | | |   __   |  |    \   |  |\   \          
                \     /   | |  | | |  |  |  |  | |\  \  |  | \   \       
                 \___/    |_|  |_| |__|  |__|  |_| \__\ |__|  \__/        
                                                                              
                      - O R C A' S   B I G   F R I E N D -                    
                                      &                                       
                       - I N T E G R A L  F E E D E R -                       
                                                                              
 v1 FN, 2020, v2 2021, v3 2022-2024                                           
------------------------------------------------------------------------------


----------------------
SHARK INTEGRAL PACKAGE
----------------------

Number of atoms                             ...     10
Number of basis functions                   ...    770
Number of shells                            ...    194
Maximum angular momentum                    ...      5
Integral batch strategy                     ... SHARK/LIBINT Hybrid
RI-J (if used) integral strategy            ... SPLIT-RIJ (Revised 2003 algorithm where possible)
Printlevel                                  ...      1
Contraction scheme used                     ... SEGMENTED contraction
Prescreening option                         ... SCHWARTZ
   Thresh                                   ... 2.500e-11
   Tcut                                     ... 2.500e-12
   Tpresel                                  ... 2.500e-12 
Coulomb Range Separation                    ... NOT USED
Exchange Range Separation                   ... NOT USED
Multipole approximations                    ... NOT USED
Finite Nucleus Model                        ... NOT USED
CABS basis                                  ... NOT available
Auxiliary Coulomb fitting basis             ... NOT available
Auxiliary J/K fitting basis                 ... NOT available
Auxiliary Correlation fitting basis         ... NOT available
Auxiliary 'external' fitting basis          ... NOT available

Checking pre-screening integrals            ... done (  0.0 sec) Dimension = 194
   => SHARK Basis and OBASIS are compatible. Storing Pre-screening
Shell pair information
Shell pair cut-off parameter TPreSel        ...   2.5e-12
Total number of shell pairs                 ...     18915
Shell pairs after pre-screening             ...     17454
Total number of primitive shell pairs       ...     48703
Primitive shell pairs kept                  ...     35948
          la=0 lb=0:   1447 shell pairs
          la=1 lb=0:   2810 shell pairs
          la=1 lb=1:   1408 shell pairs
          la=2 lb=0:   2190 shell pairs
          la=2 lb=1:   2130 shell pairs
          la=2 lb=2:    866 shell pairs
          la=3 lb=0:   1230 shell pairs
          la=3 lb=1:   1188 shell pairs
          la=3 lb=2:    936 shell pairs
          la=3 lb=3:    274 shell pairs
          la=4 lb=0:    688 shell pairs
          la=4 lb=1:    666 shell pairs
          la=4 lb=2:    520 shell pairs
          la=4 lb=3:    292 shell pairs
          la=4 lb=4:     87 shell pairs
          la=5 lb=0:    210 shell pairs
          la=5 lb=1:    202 shell pairs
          la=5 lb=2:    162 shell pairs
          la=5 lb=3:     90 shell pairs
          la=5 lb=4:     48 shell pairs
          la=5 lb=5:     10 shell pairs

Checking whether 4 symmetric matrices of dimension 770 fit in memory
:Max Core in MB      =   4096.00
 MB in use           =     29.81
 MB left             =   4066.19
 MB needed           =      9.06
 Data fit in memory  = YES
Calculating Nuclear repulsion               ... done (  0.0 sec) ENN=    109.249345578353 Eh

Diagonalization of the overlap matrix:
Smallest eigenvalue                        ... 2.480e-07
Time for diagonalization                   ...    0.050 sec
Threshold for overlap eigenvalues          ... 1.000e-07
Number of eigenvalues below threshold      ... 0

IMPORTANT:
Smallest eigenvalue of S below the DiffSThresh (1.000e-06) while
Thresh>1e-12 and/or TCut>1e-13! In order to avoid SCF convergence issues,
Thresh will be set to at least 1e-12 and TCut to at least 1e-13.
This can be turned off by adding %SCF DiffSThresh -1 END to the input.

Time for construction of square roots      ...    0.028 sec
Total time needed                          ...    0.082 sec

-------------------
DFT GRID GENERATION
-------------------

General Integration Accuracy     IntAcc      ... 4.388
Radial Grid Type                 RadialGrid  ... OptM3 with GC (2021)
Angular Grid (max. ang.)         AngularGrid ... 4 (Lebedev-302)
Angular grid pruning method      GridPruning ... 4 (adaptive)
Weight generation scheme         WeightScheme... mBecke (2022)
Basis function cutoff            BFCut       ... 1.0000e-11
Integration weight cutoff        WCut        ... 1.0000e-14
Partially contracted basis set               ... off
Rotationally invariant grid construction     ... off
Angular grids for H and He will be reduced by one unit
Diffuse basis detected: some atoms will have their outermost
                        angular grid increased by 1.
Core-polarized basis detected: some atoms will have their core
                               angular grid increased.

Total number of grid points                  ...    53104
Total number of batches                      ...      835
Average number of points per batch           ...       63
Average number of grid points per atom       ...     5310
Grids setup in   0.2 sec
Initializing property integral containers    ... done (  0.0 sec)

SHARK setup successfully completed in   0.9 seconds

Maximum memory used throughout the entire STARTUP-calculation: 64.2 MB


           ************************************************************
           *        Program running with 8 parallel MPI-processes     *
           *              working on a common directory               *
           ************************************************************
-------------------------------------------------------------------------------
                                 ORCA GUESS
                   Start orbitals & Density for SCF / CASSCF
-------------------------------------------------------------------------------

------------
SCF SETTINGS
------------
Hamiltonian:
 Density Functional     Method          .... DFT(GTOs)
  Functional kind                       .... Exchange
  Functional name                       .... Perdew, Burke & Ernzerhof
  Functional family                     .... GGA
  Functional refs                              
    [ 0] J. P. Perdew, K. Burke, and M. Ernzerhof.,  Phys. Rev. Lett. 77, 3865 (1996), doi: 10.1103/PhysRevLett.77.3865
    [ 1] J. P. Perdew, K. Burke, and M. Ernzerhof.,  Phys. Rev. Lett. 78, 1396 (1997), doi: 10.1103/PhysRevLett.78.1396
  Functional external parameters        .... 2
    Parameter  0 _kappa     =  8.040000e-01 : Asymptotic value of the enhancement function
    Parameter  1 _mu        =  2.195150e-01 : Coefficient of the 2nd order expansion
 Correlation Functional Correlation     .... No Correlation
 Gradients option       PostSCFGGA      .... off


General Settings:
 Integral files         IntName         .... /cluster/projects/nn14654k/ylvaos/basis_set_n_funcs/functionals/gga_x_pbe/C4H6/inp/C4H6_gga_x_pbe_pcseg4
 Hartree-Fock type      HFTyp           .... RHF
 Total Charge           Charge          ....    0
 Multiplicity           Mult            ....    1
 Number of Electrons    NEL             ....   30
 Basis Dimension        Dim             ....  770
 Nuclear Repulsion      ENuc            ....    109.2493455784 Eh

Convergence Acceleration:
 AO-DIIS                CNVDIIS         .... on
   Start iteration      DIISMaxIt       ....    12
   Startup error        DIISStart       ....  0.200000
   # of expansion vecs  DIISMaxEq       ....     5
   Bias factor          DIISBfac        ....   1.050
   Max. coefficient     DIISMaxC        ....  10.000
 MO-DIIS                CNVKDIIS        .... off
 Trust-Rad. Augm. Hess. CNVTRAH         .... auto
   Auto Start mean grad. ratio tolernc. ....  1.125000
   Auto Start start iteration           ....    50
   Auto Start num. interpolation iter.  ....    10
   Max. Number of Micro iterations      ....    24
   Max. Number of Macro iterations      .... Maxiter - #DIIS iter
   Number of Davidson start vectors     ....     2
   Converg. threshold    (grad. norm)   ....   1.000e-05
   Grad. Scal. Fac. for Micro threshold ....   0.100
   Minimum threshold for Micro iter.    ....   1.000e-02
   NR start threshold (gradient norm)   ....   1.000e-04
   Initial trust radius                 ....   0.400
   Minimum AH scaling param. (alpha)    ....   1.000
   Maximum AH scaling param. (alpha)    .... 1000.000
   Quad. conv. algorithm                .... NR
   White noise on init. David. guess    .... on
   Maximum white noise                  ....   0.010
   Pseudo random numbers                .... off
   Inactive MOs                         .... canonical
   Orbital update algorithm             .... Taylor
   Preconditioner                       .... Diag
   Full preconditioner red. dimension   ....   250
 SOSCF                 CNVSOSCF           .... on
   Start iteration     SOSCFMaxIt         ....   150
   Startup grad/error  SOSCFStart         ....  0.003300
   Hessian update      SOSCFHessUp        .... L-BFGS
   Autom. constraints  SOSCFAutoConstrain .... off
 Level Shifting         CNVShift        .... on
   Level shift para.    LevelShift      ....    0.2500
   Turn off err/grad.   ShiftErr        ....    0.0010
 Zerner damping         CNVZerner       .... off
 Static damping         CNVDamp         .... on
   Fraction old density DampFac         ....    0.7000
   Max. Damping (<1)    DampMax         ....    0.9800
   Min. Damping (>=0)   DampMin         ....    0.0000
   Turn off err/grad.   DampErr         ....    0.1000

SCF Procedure:
 Maximum # iterations   MaxIter         ....   125
 SCF integral mode      SCFMode         .... Direct
   Integral package                     .... SHARK and LIBINT hybrid scheme
 Reset frequency        DirectResetFreq ....    20
 Integral Threshold     Thresh          ....  1.000e-12 Eh
 Primitive CutOff       TCut            ....  1.000e-13 Eh

Convergence Tolerance:
 Convergence Check Mode ConvCheckMode   .... Total+1el-Energy
 Convergence forced     ConvForced      .... 0
 Energy Change          TolE            ....  1.000e-08 Eh
 1-El. energy change                    ....  1.000e-05 Eh
 Orbital Gradient       TolG            ....  1.000e-05
 Orbital Rotation angle TolX            ....  1.000e-05
 DIIS Error             TolErr          ....  5.000e-07

------------------------------
INITIAL GUESS: MODEL POTENTIAL
------------------------------
Loading Hartree-Fock densities                     ... done
Calculating cut-offs                               ... done
Initializing the effective Hamiltonian             ... done
Setting up the integral package (SHARK)            ... done
Starting the Coulomb interaction                   ... done (   0.1 sec)
Making the grid                                    ... done (   0.1 sec)
Mapping shells                                     ... done
Starting the XC term evaluation                    ... done (   0.1 sec)
  promolecular density results
     # of electrons  =     29.996393201
     EX              =    -22.197086358
     EC              =      0.000000000
     EX+EC           =    -22.197086358
Transforming the Hamiltonian                       ... done (   0.0 sec)
Diagonalizing the Hamiltonian                      ... done (   0.1 sec)
Back transforming the eigenvectors                 ... done (   0.0 sec)
Now organizing SCF variables                       ... done
                      ------------------
                      INITIAL GUESS DONE (   0.4 sec)
                      ------------------
             **** ENERGY FILE WAS UPDATED (/cluster/projects/nn14654k/ylvaos/basis_set_n_funcs/functionals/gga_x_pbe/C4H6/inp/C4H6_gga_x_pbe_pcseg4.en.tmp) ****
Finished Guess after   0.6 sec
Maximum memory used throughout the entire GUESS-calculation: 62.3 MB


           ************************************************************
           *        Program running with 8 parallel MPI-processes     *
           *              working on a common directory               *
           ************************************************************

-------------------------------------------------------------------------------------------
                                      ORCA LEAN-SCF
                              memory conserving SCF solver
-------------------------------------------------------------------------------------------

----------------------------------------D-I-I-S--------------------------------------------
Iteration    Energy (Eh)           Delta-E    RMSDP     MaxDP     DIISErr   Damp  Time(sec)
-------------------------------------------------------------------------------------------
               ***  Starting incremental Fock matrix formation  ***
    1    -154.7377358259120115     0.00e+00  2.33e-03  1.45e-01  1.75e-01  0.700  58.7
    2    -154.7963084643243405    -5.86e-02  1.46e-03  7.57e-02  8.11e-02  0.700  56.0
                               ***Turning on AO-DIIS***
    3    -154.8168244061100154    -2.05e-02  7.49e-04  4.11e-02  2.19e-02  0.700  54.6
    4    -154.8285442860387207    -1.17e-02  2.10e-03  1.25e-01  1.03e-02  0.000  53.8
    5    -154.8553221086544340    -2.68e-02  3.68e-04  1.78e-02  7.93e-03  0.000  55.1
                              *** Initializing SOSCF ***
---------------------------------------S-O-S-C-F--------------------------------------
Iteration    Energy (Eh)           Delta-E    RMSDP     MaxDP     MaxGrad    Time(sec)
--------------------------------------------------------------------------------------
    6    -154.8556917636148000    -3.70e-04  1.76e-04  1.18e-02  2.27e-03    50.0
               *** Restarting incremental Fock matrix formation ***
    7    -154.8557233903448491    -3.16e-05  2.08e-04  1.67e-02  4.37e-04    58.5
    8    -154.8557235017271978    -1.11e-07  4.38e-05  3.46e-03  3.93e-04    45.5
    9    -154.8557278740357219    -4.37e-06  3.51e-05  2.71e-03  1.32e-04    42.3
   10    -154.8557275066737020     3.67e-07  5.88e-06  3.83e-04  2.34e-04    40.6
   11    -154.8557281262328047    -6.20e-07  1.51e-05  1.18e-03  3.97e-05    37.3
   12    -154.8557281255265821     7.06e-10  3.38e-06  2.65e-04  4.17e-05    37.9
                 **** Energy Check signals convergence ****

               *****************************************************
               *                     SUCCESS                       *
               *           SCF CONVERGED AFTER  12 CYCLES          *
               *****************************************************

             **** ENERGY FILE WAS UPDATED (/cluster/projects/nn14654k/ylvaos/basis_set_n_funcs/functionals/gga_x_pbe/C4H6/inp/C4H6_gga_x_pbe_pcseg4.en.tmp) ****

----------------
TOTAL SCF ENERGY
----------------

Total Energy       :       -154.85572816288334 Eh           -4213.83859 eV

Components:
Nuclear Repulsion  :        109.24934557835338 Eh            2972.82583 eV
Electronic Energy  :       -264.10507374123671 Eh           -7186.66442 eV
One Electron Energy:       -424.04545035677359 Eh          -11538.86333 eV
Two Electron Energy:        159.94037661553688 Eh            4352.19891 eV

Virial components:
Potential Energy   :       -309.98526610098145 Eh           -8435.12792 eV
Kinetic Energy     :        155.12953793809814 Eh            4221.28933 eV
Virial Ratio       :          1.99823496041531

DFT components:
N(Alpha)           :       15.000008909835 electrons
N(Beta)            :       15.000008909835 electrons
N(Total)           :       30.000017819671 electrons
E(X)               :      -22.711729252763 Eh       
E(C)               :        0.000000000000 Eh       
E(XC)              :      -22.711729252763 Eh       

---------------
SCF CONVERGENCE
---------------

  Last Energy change         ...   -7.0622e-10  Tolerance :   1.0000e-08
  Last MAX-Density change    ...    2.6463e-04  Tolerance :   1.0000e-07
  Last RMS-Density change    ...    3.3797e-06  Tolerance :   5.0000e-09
  Last DIIS Error            ...    2.2694e-03  Tolerance :   5.0000e-07
  Last Orbital Gradient      ...    4.1684e-05  Tolerance :   1.0000e-05
  Last Orbital Rotation      ...    7.8029e-05  Tolerance :   1.0000e-05


----------------
ORBITAL ENERGIES
----------------

  NO   OCC          E(Eh)            E(eV) 
   0   2.0000      -9.880565      -268.8638 
   1   2.0000      -9.879411      -268.8324 
   2   2.0000      -9.879323      -268.8301 
   3   2.0000      -9.863207      -268.3915 
   4   2.0000      -0.755842       -20.5675 
   5   2.0000      -0.609614       -16.5884 
   6   2.0000      -0.518137       -14.0992 
   7   2.0000      -0.446342       -12.1456 
   8   2.0000      -0.397828       -10.8255 
   9   2.0000      -0.388432       -10.5698 
  10   2.0000      -0.347645        -9.4599 
  11   2.0000      -0.299971        -8.1626 
  12   2.0000      -0.244201        -6.6450 
  13   2.0000      -0.224266        -6.1026 
  14   2.0000      -0.194904        -5.3036 
  15   0.0000      -0.013457        -0.3662 
  16   0.0000      -0.005350        -0.1456 
  17   0.0000       0.011945         0.3250 
  18   0.0000       0.015467         0.4209 
  19   0.0000       0.038881         1.0580 
  20   0.0000       0.043365         1.1800 
  21   0.0000       0.044764         1.2181 
  22   0.0000       0.053714         1.4616 
  23   0.0000       0.059461         1.6180 
  24   0.0000       0.066214         1.8018 
  25   0.0000       0.084906         2.3104 
*Only the first 10 virtual orbitals were printed.

                    ********************************
                    * MULLIKEN POPULATION ANALYSIS *
                    ********************************

-----------------------
MULLIKEN ATOMIC CHARGES
-----------------------
   0 C :   -0.370039
   1 C :   -0.232895
   2 C :   -0.057370
   3 C :   -0.057349
   4 H :    0.136117
   5 H :    0.136116
   6 H :    0.111356
   7 H :    0.111355
   8 H :    0.111355
   9 H :    0.111355
Sum of atomic charges:    0.0000000

--------------------------------
MULLIKEN REDUCED ORBITAL CHARGES
--------------------------------
  0 C s       :     3.310029  s :     3.310029
      pz      :     0.989122  p :     2.981394
      px      :     0.991043
      py      :     1.001229
      dz2     :     0.000647  d :     0.067933
      dxz     :     0.018398
      dyz     :     0.038892
      dx2y2   :     0.010010
      dxy     :    -0.000014
      f0      :     0.000209  f :     0.010431
      f+1     :     0.002200
      f-1     :     0.007500
      f+2     :     0.001143
      f-2     :     0.000045
      f+3     :    -0.000159
      f-3     :    -0.000507
      g0      :    -0.000056  g :     0.000222
      g+1     :     0.000167
      g-1     :     0.000243
      g+2     :    -0.000070
      g-2     :    -0.000001
      g+3     :    -0.000022
      g-3     :    -0.000077
      g+4     :     0.000038
      g-4     :     0.000000
      h0      :     0.000011  h :     0.000032
      h+1     :     0.000009
      h-1     :     0.000016
      h+2     :     0.000000
      h-2     :    -0.000000
      h+3     :    -0.000000
      h-3     :    -0.000002
      h+4     :    -0.000000
      h-4     :    -0.000000
      h+5     :    -0.000000
      h-5     :    -0.000002

  1 C s       :     3.199339  s :     3.199339
      pz      :     0.829246  p :     2.884594
      px      :     0.958881
      py      :     1.096467
      dz2     :     0.038542  d :     0.132449
      dxz     :     0.024213
      dyz     :     0.046881
      dx2y2   :     0.007018
      dxy     :     0.015796
      f0      :     0.006195  f :     0.013733
      f+1     :    -0.000093
      f-1     :     0.000961
      f+2     :     0.003707
      f-2     :     0.002837
      f+3     :     0.000217
      f-3     :    -0.000092
      g0      :     0.000748  g :     0.002717
      g+1     :     0.000481
      g-1     :     0.000751
      g+2     :     0.000363
      g-2     :     0.000234
      g+3     :     0.000083
      g-3     :     0.000043
      g+4     :     0.000008
      g-4     :     0.000005
      h0      :     0.000014  h :     0.000063
      h+1     :     0.000011
      h-1     :     0.000011
      h+2     :     0.000012
      h-2     :     0.000004
      h+3     :     0.000005
      h-3     :     0.000005
      h+4     :     0.000001
      h-4     :     0.000001
      h+5     :    -0.000000
      h-5     :    -0.000000

  2 C s       :     3.004033  s :     3.004033
      pz      :     0.988172  p :     2.932273
      px      :     0.931433
      py      :     1.012668
      dz2     :     0.019875  d :     0.105269
      dxz     :     0.005809
      dyz     :     0.030240
      dx2y2   :     0.027828
      dxy     :     0.021518
      f0      :     0.004419  f :     0.015095
      f+1     :     0.001610
      f-1     :     0.000444
      f+2     :     0.002232
      f-2     :     0.002153
      f+3     :     0.001134
      f-3     :     0.003103
      g0      :     0.000097  g :     0.000676
      g+1     :     0.000014
      g-1     :     0.000232
      g+2     :     0.000078
      g-2     :     0.000106
      g+3     :     0.000040
      g-3     :     0.000142
      g+4     :    -0.000017
      g-4     :    -0.000016
      h0      :     0.000002  h :     0.000024
      h+1     :     0.000000
      h-1     :     0.000009
      h+2     :     0.000004
      h-2     :    -0.000000
      h+3     :     0.000002
      h-3     :     0.000002
      h+4     :     0.000003
      h-4     :    -0.000001
      h+5     :    -0.000002
      h-5     :     0.000004

  3 C s       :     3.004034  s :     3.004034
      pz      :     0.988164  p :     2.932249
      px      :     0.931433
      py      :     1.012652
      dz2     :     0.019875  d :     0.105272
      dxz     :     0.005809
      dyz     :     0.030241
      dx2y2   :     0.027829
      dxy     :     0.021518
      f0      :     0.004419  f :     0.015095
      f+1     :     0.001610
      f-1     :     0.000444
      f+2     :     0.002232
      f-2     :     0.002153
      f+3     :     0.001134
      f-3     :     0.003103
      g0      :     0.000097  g :     0.000676
      g+1     :     0.000014
      g-1     :     0.000232
      g+2     :     0.000078
      g-2     :     0.000106
      g+3     :     0.000040
      g-3     :     0.000142
      g+4     :    -0.000017
      g-4     :    -0.000016
      h0      :     0.000002  h :     0.000024
      h+1     :     0.000000
      h-1     :     0.000009
      h+2     :     0.000004
      h-2     :    -0.000000
      h+3     :     0.000002
      h-3     :     0.000002
      h+4     :     0.000003
      h-4     :    -0.000001
      h+5     :    -0.000002
      h-5     :     0.000004

  4 H s       :     0.801257  s :     0.801257
      pz      :     0.014089  p :     0.050286
      px      :     0.027731
      py      :     0.008467
      dz2     :     0.003468  d :     0.010899
      dxz     :     0.002031
      dyz     :     0.001196
      dx2y2   :     0.000950
      dxy     :     0.003252
      f0      :     0.000081  f :     0.001431
      f+1     :     0.000026
      f-1     :     0.000632
      f+2     :    -0.000007
      f-2     :     0.000336
      f+3     :     0.000266
      f-3     :     0.000097
      g0      :     0.000001  g :     0.000009
      g+1     :     0.000000
      g-1     :     0.000002
      g+2     :     0.000002
      g-2     :     0.000000
      g+3     :     0.000002
      g-3     :     0.000000
      g+4     :     0.000000
      g-4     :     0.000001

  5 H s       :     0.801259  s :     0.801259
      pz      :     0.014089  p :     0.050286
      px      :     0.027731
      py      :     0.008467
      dz2     :     0.003468  d :     0.010899
      dxz     :     0.002031
      dyz     :     0.001196
      dx2y2   :     0.000950
      dxy     :     0.003252
      f0      :     0.000081  f :     0.001431
      f+1     :     0.000026
      f-1     :     0.000632
      f+2     :    -0.000007
      f-2     :     0.000336
      f+3     :     0.000266
      f-3     :     0.000097
      g0      :     0.000001  g :     0.000009
      g+1     :     0.000000
      g-1     :     0.000002
      g+2     :     0.000002
      g-2     :     0.000000
      g+3     :     0.000002
      g-3     :     0.000000
      g+4     :     0.000000
      g-4     :     0.000001

  6 H s       :     0.820222  s :     0.820222
      pz      :     0.027487  p :     0.055289
      px      :     0.005705
      py      :     0.022097
      dz2     :     0.001600  d :     0.011670
      dxz     :     0.002634
      dyz     :     0.001914
      dx2y2   :     0.004143
      dxy     :     0.001379
      f0      :     0.000106  f :     0.001455
      f+1     :     0.000268
      f-1     :     0.000152
      f+2     :     0.000108
      f-2     :     0.000251
      f+3     :     0.000553
      f-3     :     0.000016
      g0      :     0.000001  g :     0.000009
      g+1     :     0.000001
      g-1     :     0.000000
      g+2     :     0.000000
      g-2     :     0.000002
      g+3     :     0.000001
      g-3     :     0.000001
      g+4     :     0.000002
      g-4     :     0.000001

  7 H s       :     0.820223  s :     0.820223
      pz      :     0.027486  p :     0.055289
      px      :     0.005705
      py      :     0.022097
      dz2     :     0.001600  d :     0.011670
      dxz     :     0.002634
      dyz     :     0.001914
      dx2y2   :     0.004143
      dxy     :     0.001379
      f0      :     0.000106  f :     0.001455
      f+1     :     0.000268
      f-1     :     0.000152
      f+2     :     0.000108
      f-2     :     0.000251
      f+3     :     0.000553
      f-3     :     0.000016
      g0      :     0.000001  g :     0.000009
      g+1     :     0.000001
      g-1     :     0.000000
      g+2     :     0.000000
      g-2     :     0.000002
      g+3     :     0.000001
      g-3     :     0.000001
      g+4     :     0.000002
      g-4     :     0.000001

  8 H s       :     0.820222  s :     0.820222
      pz      :     0.027487  p :     0.055289
      px      :     0.005706
      py      :     0.022097
      dz2     :     0.001600  d :     0.011670
      dxz     :     0.002634
      dyz     :     0.001914
      dx2y2   :     0.004143
      dxy     :     0.001379
      f0      :     0.000106  f :     0.001455
      f+1     :     0.000268
      f-1     :     0.000152
      f+2     :     0.000108
      f-2     :     0.000251
      f+3     :     0.000553
      f-3     :     0.000016
      g0      :     0.000001  g :     0.000009
      g+1     :     0.000001
      g-1     :     0.000000
      g+2     :     0.000000
      g-2     :     0.000002
      g+3     :     0.000001
      g-3     :     0.000001
      g+4     :     0.000002
      g-4     :     0.000001

  9 H s       :     0.820221  s :     0.820221
      pz      :     0.027487  p :     0.055289
      px      :     0.005706
      py      :     0.022097
      dz2     :     0.001600  d :     0.011670
      dxz     :     0.002634
      dyz     :     0.001914
      dx2y2   :     0.004143
      dxy     :     0.001379
      f0      :     0.000106  f :     0.001455
      f+1     :     0.000268
      f-1     :     0.000152
      f+2     :     0.000108
      f-2     :     0.000251
      f+3     :     0.000553
      f-3     :     0.000016
      g0      :     0.000001  g :     0.000009
      g+1     :     0.000001
      g-1     :     0.000000
      g+2     :     0.000000
      g-2     :     0.000002
      g+3     :     0.000001
      g-3     :     0.000001
      g+4     :     0.000002
      g-4     :     0.000001



                     *******************************
                     * LOEWDIN POPULATION ANALYSIS *
                     *******************************

----------------------
LOEWDIN ATOMIC CHARGES
----------------------
   0 C :    0.540855
   1 C :   -0.068117
   2 C :    0.408290
   3 C :    0.408290
   4 H :   -0.252001
   5 H :   -0.252001
   6 H :   -0.196329
   7 H :   -0.196329
   8 H :   -0.196329
   9 H :   -0.196329

-------------------------------
LOEWDIN REDUCED ORBITAL CHARGES
-------------------------------
  0 C s       :     2.475373  s :     2.475373
      pz      :     0.927233  p :     2.460589
      px      :     0.668575
      py      :     0.864780
      dz2     :     0.116331  d :     0.420090
      dxz     :     0.054899
      dyz     :     0.218477
      dx2y2   :     0.029583
      dxy     :     0.000800
      f0      :     0.019888  f :     0.087886
      f+1     :     0.019784
      f-1     :     0.034190
      f+2     :     0.008418
      f-2     :     0.000193
      f+3     :     0.000636
      f-3     :     0.004777
      g0      :     0.003921  g :     0.014548
      g+1     :     0.003375
      g-1     :     0.005027
      g+2     :     0.000278
      g-2     :     0.000007
      g+3     :     0.000041
      g-3     :     0.001531
      g+4     :     0.000368
      g-4     :     0.000000
      h0      :     0.000140  h :     0.000660
      h+1     :     0.000155
      h-1     :     0.000261
      h+2     :     0.000004
      h-2     :     0.000000
      h+3     :     0.000001
      h-3     :     0.000044
      h+4     :     0.000036
      h-4     :     0.000000
      h+5     :     0.000003
      h-5     :     0.000016

  1 C s       :     2.476155  s :     2.476155
      pz      :     0.980517  p :     2.442128
      px      :     0.668711
      py      :     0.792900
      dz2     :     0.276331  d :     0.935873
      dxz     :     0.231458
      dyz     :     0.315854
      dx2y2   :     0.043481
      dxy     :     0.068748
      f0      :     0.059885  f :     0.185792
      f+1     :     0.023602
      f-1     :     0.047933
      f+2     :     0.017812
      f-2     :     0.030323
      f+3     :     0.005346
      f-3     :     0.000891
      g0      :     0.008815  g :     0.027487
      g+1     :     0.004375
      g-1     :     0.006775
      g+2     :     0.002195
      g-2     :     0.003022
      g+3     :     0.001411
      g-3     :     0.000632
      g+4     :     0.000099
      g-4     :     0.000162
      h0      :     0.000111  h :     0.000682
      h+1     :     0.000120
      h-1     :     0.000193
      h+2     :     0.000053
      h-2     :     0.000075
      h+3     :     0.000068
      h-3     :     0.000033
      h+4     :     0.000011
      h-4     :     0.000017
      h+5     :     0.000001
      h-5     :     0.000001

  2 C s       :     2.410649  s :     2.410649
      pz      :     0.765747  p :     2.358675
      px      :     0.835678
      py      :     0.757250
      dz2     :     0.131087  d :     0.659460
      dxz     :     0.085492
      dyz     :     0.151412
      dx2y2   :     0.104393
      dxy     :     0.187076
      f0      :     0.033659  f :     0.147389
      f+1     :     0.014917
      f-1     :     0.016577
      f+2     :     0.032247
      f-2     :     0.011896
      f+3     :     0.019601
      f-3     :     0.018493
      g0      :     0.001298  g :     0.015001
      g+1     :     0.000985
      g-1     :     0.004243
      g+2     :     0.001275
      g-2     :     0.001566
      g+3     :     0.000488
      g-3     :     0.002143
      g+4     :     0.001157
      g-4     :     0.001848
      h0      :     0.000019  h :     0.000537
      h+1     :     0.000003
      h-1     :     0.000084
      h+2     :     0.000071
      h-2     :     0.000089
      h+3     :     0.000029
      h-3     :     0.000053
      h+4     :     0.000034
      h-4     :     0.000022
      h+5     :     0.000083
      h-5     :     0.000049

  3 C s       :     2.410649  s :     2.410649
      pz      :     0.765747  p :     2.358675
      px      :     0.835678
      py      :     0.757250
      dz2     :     0.131087  d :     0.659460
      dxz     :     0.085492
      dyz     :     0.151412
      dx2y2   :     0.104393
      dxy     :     0.187076
      f0      :     0.033659  f :     0.147389
      f+1     :     0.014917
      f-1     :     0.016577
      f+2     :     0.032247
      f-2     :     0.011896
      f+3     :     0.019601
      f-3     :     0.018493
      g0      :     0.001298  g :     0.015001
      g+1     :     0.000985
      g-1     :     0.004243
      g+2     :     0.001275
      g-2     :     0.001566
      g+3     :     0.000488
      g-3     :     0.002143
      g+4     :     0.001157
      g-4     :     0.001848
      h0      :     0.000019  h :     0.000537
      h+1     :     0.000003
      h-1     :     0.000084
      h+2     :     0.000071
      h-2     :     0.000089
      h+3     :     0.000029
      h-3     :     0.000053
      h+4     :     0.000034
      h-4     :     0.000022
      h+5     :     0.000083
      h-5     :     0.000049

  4 H s       :     0.756784  s :     0.756784
      pz      :     0.084984  p :     0.290256
      px      :     0.081050
      py      :     0.124223
      dz2     :     0.044278  d :     0.173045
      dxz     :     0.019639
      dyz     :     0.042096
      dx2y2   :     0.035274
      dxy     :     0.031756
      f0      :     0.002577  f :     0.031620
      f+1     :     0.000295
      f-1     :     0.010547
      f+2     :     0.005364
      f-2     :     0.005468
      f+3     :     0.003674
      f-3     :     0.003695
      g0      :     0.000023  g :     0.000295
      g+1     :     0.000001
      g-1     :     0.000058
      g+2     :     0.000060
      g-2     :     0.000012
      g+3     :     0.000055
      g-3     :     0.000035
      g+4     :     0.000020
      g-4     :     0.000031

  5 H s       :     0.756784  s :     0.756784
      pz      :     0.084984  p :     0.290256
      px      :     0.081050
      py      :     0.124223
      dz2     :     0.044278  d :     0.173045
      dxz     :     0.019639
      dyz     :     0.042096
      dx2y2   :     0.035274
      dxy     :     0.031756
      f0      :     0.002577  f :     0.031620
      f+1     :     0.000295
      f-1     :     0.010547
      f+2     :     0.005364
      f-2     :     0.005468
      f+3     :     0.003674
      f-3     :     0.003695
      g0      :     0.000023  g :     0.000295
      g+1     :     0.000001
      g-1     :     0.000058
      g+2     :     0.000060
      g-2     :     0.000012
      g+3     :     0.000055
      g-3     :     0.000035
      g+4     :     0.000020
      g-4     :     0.000031

  6 H s       :     0.722661  s :     0.722661
      pz      :     0.078905  p :     0.268870
      px      :     0.114161
      py      :     0.075804
      dz2     :     0.023948  d :     0.172181
      dxz     :     0.037409
      dyz     :     0.019791
      dx2y2   :     0.054735
      dxy     :     0.036297
      f0      :     0.002635  f :     0.032321
      f+1     :     0.005155
      f-1     :     0.002287
      f+2     :     0.002075
      f-2     :     0.005467
      f+3     :     0.009294
      f-3     :     0.005408
      g0      :     0.000030  g :     0.000296
      g+1     :     0.000025
      g-1     :     0.000010
      g+2     :     0.000012
      g-2     :     0.000043
      g+3     :     0.000019
      g-3     :     0.000043
      g+4     :     0.000069
      g-4     :     0.000045

  7 H s       :     0.722661  s :     0.722661
      pz      :     0.078905  p :     0.268870
      px      :     0.114161
      py      :     0.075804
      dz2     :     0.023948  d :     0.172181
      dxz     :     0.037409
      dyz     :     0.019791
      dx2y2   :     0.054735
      dxy     :     0.036297
      f0      :     0.002635  f :     0.032321
      f+1     :     0.005155
      f-1     :     0.002287
      f+2     :     0.002075
      f-2     :     0.005467
      f+3     :     0.009294
      f-3     :     0.005408
      g0      :     0.000030  g :     0.000296
      g+1     :     0.000025
      g-1     :     0.000010
      g+2     :     0.000012
      g-2     :     0.000043
      g+3     :     0.000019
      g-3     :     0.000043
      g+4     :     0.000069
      g-4     :     0.000045

  8 H s       :     0.722661  s :     0.722661
      pz      :     0.078905  p :     0.268870
      px      :     0.114161
      py      :     0.075804
      dz2     :     0.023948  d :     0.172181
      dxz     :     0.037409
      dyz     :     0.019791
      dx2y2   :     0.054735
      dxy     :     0.036297
      f0      :     0.002635  f :     0.032321
      f+1     :     0.005155
      f-1     :     0.002287
      f+2     :     0.002075
      f-2     :     0.005467
      f+3     :     0.009294
      f-3     :     0.005408
      g0      :     0.000030  g :     0.000296
      g+1     :     0.000025
      g-1     :     0.000010
      g+2     :     0.000012
      g-2     :     0.000043
      g+3     :     0.000019
      g-3     :     0.000043
      g+4     :     0.000069
      g-4     :     0.000045

  9 H s       :     0.722661  s :     0.722661
      pz      :     0.078905  p :     0.268870
      px      :     0.114161
      py      :     0.075804
      dz2     :     0.023948  d :     0.172181
      dxz     :     0.037409
      dyz     :     0.019791
      dx2y2   :     0.054735
      dxy     :     0.036297
      f0      :     0.002635  f :     0.032321
      f+1     :     0.005155
      f-1     :     0.002287
      f+2     :     0.002075
      f-2     :     0.005467
      f+3     :     0.009294
      f-3     :     0.005408
      g0      :     0.000030  g :     0.000296
      g+1     :     0.000025
      g-1     :     0.000010
      g+2     :     0.000012
      g-2     :     0.000043
      g+3     :     0.000019
      g-3     :     0.000043
      g+4     :     0.000069
      g-4     :     0.000045



                      *****************************
                      * MAYER POPULATION ANALYSIS *
                      *****************************

  NA   - Mulliken gross atomic population
  ZA   - Total nuclear charge
  QA   - Mulliken gross atomic charge
  VA   - Mayer's total valence
  BVA  - Mayer's bonded valence
  FA   - Mayer's free valence

  ATOM       NA         ZA         QA         VA         BVA        FA
  0 C      6.3700     6.0000    -0.3700     4.0691     4.0691    -0.0000
  1 C      6.2329     6.0000    -0.2329     4.8787     4.8787     0.0000
  2 C      6.0574     6.0000    -0.0574     4.6643     4.6643     0.0000
  3 C      6.0573     6.0000    -0.0573     4.6643     4.6643     0.0000
  4 H      0.8639     1.0000     0.1361     1.0247     1.0247    -0.0000
  5 H      0.8639     1.0000     0.1361     1.0247     1.0247     0.0000
  6 H      0.8886     1.0000     0.1114     1.0420     1.0420    -0.0000
  7 H      0.8886     1.0000     0.1114     1.0420     1.0420    -0.0000
  8 H      0.8886     1.0000     0.1114     1.0420     1.0420     0.0000
  9 H      0.8886     1.0000     0.1114     1.0420     1.0420     0.0000

  Mayer bond orders larger than 0.100000
B(  0-C ,  1-C ) :   1.9224 B(  0-C ,  2-C ) :   0.1276 B(  0-C ,  3-C ) :   0.1276 
B(  0-C ,  4-H ) :   0.9134 B(  0-C ,  5-H ) :   0.9134 B(  1-C ,  2-C ) :   1.2661 
B(  1-C ,  3-C ) :   1.2660 B(  2-C ,  3-C ) :   1.4063 B(  2-C ,  6-H ) :   0.8668 
B(  2-C ,  7-H ) :   0.8668 B(  3-C ,  8-H ) :   0.8668 B(  3-C ,  9-H ) :   0.8668 


-------
TIMINGS
-------

Total SCF time: 0 days 0 hours 10 min 24 sec 

Total time                  ....     624.112 sec
Sum of individual times     ....     590.454 sec  ( 94.6%)

SCF preparation             ....       0.148 sec  (  0.0%)
Fock matrix formation       ....     588.005 sec  ( 94.2%)
  Startup                   ....       0.029 sec  (  0.0% of F)
  Coulomb formation         ....     616.050 sec  (104.8% of F)
  XC integration            ....       5.211 sec  (  0.9% of F)
    XC Preparation          ....       0.000 sec  (  0.0% of XC)
    Basis function eval.    ....       0.429 sec  (  8.2% of XC)
    Density eval.           ....       1.180 sec  ( 22.6% of XC)
    XC-Functional eval.     ....       0.023 sec  (  0.4% of XC)
    XC-Potential eval.      ....       3.005 sec  ( 57.7% of XC)
Diagonalization             ....       0.000 sec  (  0.0%)
Density matrix formation    ....       0.183 sec  (  0.0%)
Total Energy calculation    ....       0.071 sec  (  0.0%)
Population analysis         ....       0.096 sec  (  0.0%)
Orbital Transformation      ....       0.260 sec  (  0.0%)
Orbital Orthonormalization  ....       0.000 sec  (  0.0%)
DIIS solution               ....       1.044 sec  (  0.2%)
SOSCF solution              ....       0.648 sec  (  0.1%)
Finished LeanSCF after 624.2 sec

Maximum memory used throughout the entire LEANSCF-calculation: 108.1 MB


           ************************************************************
           *        Program running with 8 parallel MPI-processes     *
           *              working on a common directory               *
           ************************************************************

------------------------------------------------------------------------------
                         ORCA PROPERTY INTEGRAL CALCULATIONS
------------------------------------------------------------------------------

GBWName                                   ... /cluster/projects/nn14654k/ylvaos/basis_set_n_funcs/functionals/gga_x_pbe/C4H6/inp/C4H6_gga_x_pbe_pcseg4.gbw
Number of atoms                           ...     10
Number of basis functions                 ...    770
Max core memory                           ...   4096 MB

Dipole integrals                          ... YES
Quadrupole integrals                      ... YES
Linear momentum integrals                 ...  NO
Angular momentum integrals                ...  NO
Higher moments length integrals           ...  NO
Higher moments velocity integrals         ...  NO
Kinetic energy integrals                  ...  NO
GIAO right hand sides                     ...  NO
GIAO dipole derivative integrals          ...  NO
SOC integrals                             ...  NO
EPR diamagnetic integrals (GIAO)          ...  NO
EPR gauge integrals                       ...  NO
Field gradient integrals                  ...  NO (   0 nuclei)
Spin-dipole/Fermi contact integrals       ...  NO (   0 nuclei)
Contact density integrals                 ...  NO (   0 nuclei)
Nucleus-orbit integrals                   ...  NO (   0 nuclei)
Geometric perturbations                   ...  NO (  10 nuclei)

Choice of electric origin   ... Center of mass
Position of electric origin ... (  0.0000,  0.0000,  0.0124) 
Choice of magnetic origin   ... GIAO
Position of magnetic origin ... (  0.0000,  0.0000,  0.0000) 

Calculating integrals                     ... Electric Dipole (Length)     done (  0.0 sec)
Calculating integrals                     ... Electric Quadrupole (Length) done (  0.1 sec)

Property integrals calculated in   0.1 sec

Maximum memory used throughout the entire PROPINT-calculation: 73.5 MB
------------------------------------------------------------------------------
                           ORCA ORBITAL LOCALIZATION
------------------------------------------------------------------------------

Input orbitals are from                  ... /cluster/projects/nn14654k/ylvaos/basis_set_n_funcs/functionals/gga_x_pbe/C4H6/inp/C4H6_gga_x_pbe_pcseg4.gbw
Output orbitals are to                   ... /cluster/projects/nn14654k/ylvaos/basis_set_n_funcs/functionals/gga_x_pbe/C4H6/inp/C4H6_gga_x_pbe_pcseg4.loc
Max. number of iterations                ... 128
Localizations seeded randomly            ... on
Convergence tolerance                    ... 1.000e-06
Threshold for strong local MOs           ... 9.500e-01
Threshold for bond MOs                   ... 8.500e-01
Operator                                 ... 0
Orbital range for localization           ... 4 to 14
Localization criterion                   ... NEW-BOYS
Doing the dipole integrals               ... o.k.
Initial value of the localization sum :    55.919266
ITERATION   0 : L=   83.2767112512 DL=  2.74e+01 (AVERGE_DL)=    0.7052716508 
ITERATION   1 : L=   86.8211240820 DL=  3.54e+00 (AVERGE_DL)=    0.2538579714 
ITERATION   2 : L=   86.8918228972 DL=  7.07e-02 (AVERGE_DL)=    0.0358529358 
ITERATION   3 : L=   86.8919401573 DL=  1.17e-04 (AVERGE_DL)=    0.0014601382 
ITERATION   4 : L=   86.8919409893 DL=  8.32e-07 (AVERGE_DL)=    0.0001229883 
LOCALIZATION SUM CONVERGED


--------------------------------------------------------------------------------
                    LOCALIZED MOLECULAR ORBITAL COMPOSITIONS
--------------------------------------------------------------------------------

The Mulliken populations for each LMO on each atom are computed
The LMO`s will be ordered according to atom index and type
  (A) Strongly localized MO`s have populations of >=0.950 on one atom
  (B) Two center bond orbitals have populations of >=0.850 on two atoms
  (C) Other MO`s are considered to be `delocalized`

FOUND  -   0 strongly local MO`s
       -  11 two center bond MO`s
       -   0 significantly delocalized MO`s

Bond-like localized orbitals:
MO  14:   9H  -   0.441107  and   3C  -   0.501672
MO  13:   8H  -   0.441108  and   3C  -   0.501675
MO  12:   7H  -   0.441108  and   2C  -   0.501666
MO  11:   6H  -   0.441108  and   2C  -   0.501662
MO  10:   5H  -   0.429176  and   0C  -   0.550750
MO   9:   4H  -   0.429175  and   0C  -   0.550757
MO   8:   3C  -   0.482416  and   2C  -   0.482432
MO   7:   3C  -   0.379809  and   1C  -   0.525408
MO   6:   2C  -   0.379830  and   1C  -   0.525416
MO   5:   1C  -   0.425301  and   0C  -   0.528531
MO   4:   1C  -   0.425316  and   0C  -   0.528526
Localized MO's were stored in: /cluster/projects/nn14654k/ylvaos/basis_set_n_funcs/functionals/gga_x_pbe/C4H6/inp/C4H6_gga_x_pbe_pcseg4.loc

-------------------------   --------------------
FINAL SINGLE POINT ENERGY      -154.855728162883
-------------------------   --------------------



           ************************************************************
           *        Program running with 8 parallel MPI-processes     *
           *              working on a common directory               *
           ************************************************************

------------------------------------------------------------------------------
                              ORCA PROPERTY CALCULATIONS
------------------------------------------------------------------------------

GBWName                                 ... /cluster/projects/nn14654k/ylvaos/basis_set_n_funcs/functionals/gga_x_pbe/C4H6/inp/C4H6_gga_x_pbe_pcseg4.gbw
Number of atoms                         ...     10
Number of basis functions               ...    770
Max core memory                         ...   4096 MB

Electric properties:
Dipole moment                           ... YES
Quadrupole moment                       ... YES
Static polarizability (Dipole/Dipole)   ...  NO
Static polarizability (Dipole/Quad.)    ...  NO
Static polarizability (Quad./Quad.)     ...  NO
Static polarizability (Velocity)        ...  NO
Static hyperpolarizability              ...  NO

Atomic electric properties:
Dipole moment                           ...  NO
Quadrupole moment                       ...  NO
Static polarizability                   ...  NO

Choice of electric origin               ... Center of mass
Position of electric origin             ...     0.000000     0.000000     0.012360

General magnetic properties:
Magnetizability                         ...  NO

EPR properties:
g-Tensor (aka g-matrix)                 ...  NO
Zero-Field splitting spin-orbit         ...  NO
Zero-field splitting spin-spin          ...  NO
Hyperfine couplings                     ...  NO (   0 nuclei)
Quadrupole couplings                    ...  NO (   0 nuclei)
Contact density                         ...  NO (   0 nuclei)

NMR properties:
Chemical shifts                         ...  NO (   0 nuclei)
Spin-rotation constants                 ...  NO (   0 nuclei)
Spin-spin couplings                     ...  NO (   0 nuclei,    0 pairs)

Choice of magnetic origin               ... GIAO
Position of magnetic origin             ...     0.000000     0.000000     0.000000

Properties with geometric perturbations:
SCF Hessian                             ...  NO
IR spectrum                             ...  NO
VCD spectrum                            ...  NO
X-ray spectroscopy properties:
SCF XES/XAS/RIXS spectra                ...  NO

SCF SOC stabilization energy            ...  NO
Diagonal Born-Oppenheimer correction    ...  NO

-------------
DIPOLE MOMENT
-------------

Method             : SCF
Type of density    : Electron Density
Multiplicity       :   1
Irrep              :   0
Energy             :  -154.8557281628833380 Eh
Basis              : AO
                                X                 Y                 Z
Electronic contribution:      0.000000008       0.000000015       0.196168063
Nuclear contribution   :      0.000000000       0.000000000      -0.371559272
                        -----------------------------------------
Total Dipole Moment    :      0.000000008       0.000000015      -0.175391208
                        -----------------------------------------
Magnitude (a.u.)       :      0.175391208
Magnitude (Debye)      :      0.445809022



--------------------
Rotational spectrum 
--------------------
 
Rotational constants in cm-1:             0.643527             0.230144             0.181788 
Rotational constants in MHz :         19292.450199          6899.535423          5449.866904 

Dipole components along the rotational axes: 
x,y,z [a.u.] :    -0.175391     0.000000     0.000000 
x,y,z [Debye]:    -0.445809     0.000000     0.000000 

 

Dipole moment calculation done in   0.0 sec 

-----------------
QUADRUPOLE MOMENT
-----------------

Method             : SCF
Type of density    : Electron Density
Multiplicity       :   1
Irrep              :   0
Energy             :  -154.8557281628833380 Eh
Basis              : AO

                XX              YY              ZZ              XY              XZ              YZ
  NUC       11.888664720    55.799971245   152.416444257     0.000000000     0.000000000     0.000000000
  EL       -31.656195880   -74.722427402  -172.096455085     0.000000003    -0.000000055     0.000000020
  TOT      -19.767531160   -18.922456158   -19.680010827     0.000000003    -0.000000055     0.000000020 (a.u.)
           -26.588005460   -25.451350680   -26.470287619     0.000000004    -0.000000074     0.000000027 (Buckingham)

diagonalized tensor:
           -19.767531160   -19.680010827   -18.922456158 (a.u.)
           -26.588005460   -26.470287619   -25.451350680 (Buckingham)
            -1.254372620    -0.901219098     2.155591719 (traceless form in Buckingham)

            -1.000000000     0.000000627     0.000000003
             0.000000003     0.000000026     1.000000000
            -0.000000627    -1.000000000     0.000000026
        
Isotropic quadrupole :   -19.456666048

Quadrupole moment calculation done in   0.0 sec (  0.0 sec for integrals)

Maximum memory used throughout the entire PROP-calculation: 72.3 MB

--------------------------------
SUGGESTED CITATIONS FOR THIS RUN
--------------------------------

Below you find a list of papers that are relevant to this ORCA run
We neither can nor want to force you to cite these papers, but we appreciate if you do
You receive ORCA, which is the product of decades of hard work by many enthusiastic individuals, for free
The only thing we kindly ask in return is that you cite our papers,
We deeply appreciate it, if you show your appreciation for ORCA by not just citing the generic ORCA reference.

Please note that relegating all ORCA citations to the supporting information does *not* help us.
SI sections are not indexed - citations you put there will not count into any citation statistics
But we need these citations in order to attract the funding resources that allow us to do what we are doing

Therefore, if you are a happy ORCA user, please consider citing a few of the papers listed below in the main body of your paper

In addition to the list printed below, the program has created the file /cluster/projects/nn14654k/ylvaos/basis_set_n_funcs/functionals/gga_x_pbe/C4H6/inp/C4H6_gga_x_pbe_pcseg4.bibtex that contains the list in bibtex format
You can import this file easily into all common literature databanks and citation aid programs

It goes without saying that in many instances, there are alternative algorithms to achieve similar
results as the ones you have gotten from ORCA. It is, of course, also the case that in some instances
ORCA just re-implements algorithms worked out by others. We are fully aware of that and we are also
fully appreciative of our colleagues work. Hence this citation list should not be read as indicating
that the listed papers, which are focused on our own work, are the only ones worth citing. It simply
meant to make it easier for users to cite ORCA specific papers. It is not a substitute for doing your
own literature research and citing the relevant literature in a scientifically appropriate manner.

List of essential papers. We consider these as the minimum necessary citations

  1. Neese, F.
     Software update: the ORCA program system, version 6.0
     WIRES Comput. Molec. Sci. 2025 15(1), e70019
     doi.org/10.1002/wcms.70019

List of papers to cite with high priority. The work reported in these papers was absolutely
necessary for this run to complete.
Our perspective: the developers of density functionals and basis sets usually get cited in chemistry papers
Good! But without the algorithms to do something with them, the functionals or basis sets would not do anything.
Hence, in our opinion, the algorithm design and method developments papers are equally worthy of getting cited

  1. Lehtola, S.; Steigemann, C.; Oliveira, M.; Marques, M.
     Recent developments in Libxc - A comprehensive library of functionals for density functional theory
     Software X 2018 7 , 
     doi.org/10.1016/j.softx.2017.11.002
  2. Neese, F.
     The SHARK Integral Generation and Digestion System
     J. Comp. Chem. 2022 44(3), 381
     doi.org/10.1002/jcc.26942

List of suggested additional citations. These are papers that are important in the 'surrounding' of 
of this run, or papers that preceded the highly important papers. If you like your results we are grateful for a citation.

  1. Neese, F.
     The ORCA program system
     WIRES Comput. Molec. Sci. 2012 2(1), 73-78
     doi.org/10.1002/wcms.81
  2. Neese, F.
     Software update: the ORCA program system, version 4.0
     WIRES Comput. Molec. Sci. 2018 8(1), 1-6
     doi.org/10.1002/wcms.1327
  3. Neese, F.; Wennmohs, F.; Becker, U.; Riplinger, C.
     The ORCA quantum chemistry program package
     J. Chem. Phys. 2020 152(22), 224108
     doi.org/10.1063/5.0004608
  4. Neese, F.
     Software update: The ORCA program system—Version 5.0
     WIRES Comput. Molec. Sci. 2022 12(1), e1606
     doi.org/10.1002/wcms.1606

List of optional additional citations

  1. Neese, F.
     Approximate second-order SCF convergence for spin unrestricted wavefunctions
     Chem. Phys. Lett. 2000 325(1-3), 93-98
     doi.org/10.1016/s0009-2614(00)00662-x

Timings for individual modules:

Sum of individual times          ...      627.219 sec (=  10.454 min)
Startup calculation              ...        1.276 sec (=   0.021 min)   0.2 %
SCF iterations                   ...      625.152 sec (=  10.419 min)  99.7 %
Property integrals               ...        0.419 sec (=   0.007 min)   0.1 %
Property calculations            ...        0.327 sec (=   0.005 min)   0.1 %
Orbital localization             ...        0.045 sec (=   0.001 min)   0.0 %
                             ****ORCA TERMINATED NORMALLY****
TOTAL RUN TIME: 0 days 0 hours 10 minutes 27 seconds 770 msec
