
                                 *****************
                                 * O   R   C   A *
                                 *****************

                                            #,                                       
                                            ###                                      
                                            ####                                     
                                            #####                                    
                                            ######                                   
                                           ########,                                 
                                     ,,################,,,,,                         
                               ,,#################################,,                 
                          ,,##########################################,,             
                       ,#########################################, ''#####,          
                    ,#############################################,,   '####,        
                  ,##################################################,,,,####,       
                ,###########''''           ''''###############################       
              ,#####''   ,,,,##########,,,,          '''####'''          '####       
            ,##' ,,,,###########################,,,                        '##       
           ' ,,###''''                  '''############,,,                           
         ,,##''                                '''############,,,,        ,,,,,,###''
      ,#''                                            '''#######################'''  
     '                                                          ''''####''''         
             ,#######,   #######,   ,#######,      ##                                
            ,#'     '#,  ##    ##  ,#'     '#,    #''#        ,####,    ,#,          
            ##       ##  ##   ,#'  ##            #'  '#       #'       ,# #          
            ##       ##  #######   ##           ,######,      #####,      #          
            '#,     ,#'  ##    ##  '#,     ,#' ,#      #,     #,   #      #          
             '#######'   ##     ##  '#######'  #'      '#     '####' #    #          



                #########################################################
                #                        -***-                          #
                #          Department of theory and spectroscopy        #
                #                                                       #
                #                      Frank Neese                      #
                #                                                       #
                #     Directorship, Architecture, Infrastructure        #
                #                    SHARK, DRIVERS                     #
                #        Core code/Algorithms in most modules           #
                #                                                       #
                #        Max Planck Institute fuer Kohlenforschung      #
                #                Kaiser Wilhelm Platz 1                 #
                #                 D-45470 Muelheim/Ruhr                 #
                #                      Germany                          #
                #                                                       #
                #                  All rights reserved                  #
                #                        -***-                          #
                #########################################################


                         Program Version 6.1.1  -  RELEASE   -
                                (GIT: $487d211c$)
                          ($2025-11-21 10:33:24 +0100$)


 With contributions from (in alphabetic order):
[Max-Planck-Institut fuer Kohlenforschung]                               
  Daniel Aravena         : Magnetic Suceptibility                        
  Michael Atanasov       : Ab Initio Ligand Field Theory (pilot matlab implementation)
  Alexander A. Auer      : GIAO ZORA, VPT2 properties, NMR spectrum      
  Ute Becker             : All parallelization in ORCA, NUMFREQ, NUMCALC 
  Giovanni Bistoni       : ED, misc. LED, open-shell LED, HFLD           
  Dmytro Bykov           : pre 5.0 version of the SCF Hessian            
  Marcos Casanova-Páez   : Triplet and SCS-CIS(D). UHF-(DLPNO)-IP/EA/STEOM-CCSD. UHF-CVS-IP/STEOM-CCSD   
  Vijay G. Chilkuri      : MRCI spin determinant printing, contributions to CSF-ICE 
  Pauline Colinet        : FMM embedding                                 
  Dipayan Datta          : RHF DLPNO-CCSD density                        
  Achintya Kumar Dutta   : EOM-CC, STEOM-CC                              
  Nicolas Foglia         : Exact transition moments, OPA infrastructure, MCD improvements    
  Dmitry Ganyushin       : Spin-Orbit,Spin-Spin,Magnetic field MRCI      
  Miquel Garcia-Rates    : C-PCM and meta-GGA Hessian, CCSD/C-PCM, Gaussian charge scheme 
  Tiago L. C. Gouveia    : GS-ROHF, GS-ROCIS                             
  Yang Guo               : DLPNO-NEVPT2, F12-NEVPT2, CIM, IAO-localization        
  Andreas Hansen         : Spin unrestricted coupled pair/coupled cluster methods 
  Ingolf Harden          : AUTO-CI MPn and infrastructure                
  Benjamin Helmich-Paris : MC-RPA, TRAH-(SCF,CASSCF), AVAS, COSX integrals, SCF dyn. polar., MC-PDFT, srDFT 
  Lee Huntington         : MR-EOM, pCC                                   
  Robert Izsak           : Overlap fitted RIJCOSX, COSX-SCS-MP3, EOM     
  Riya Kayal             : Wick's Theorem for AUTO-CI, AUTO-CI UHF-CCSDT 
  Emily Kempfer          : AUTO-CI RHF CISDT and CCSDT, approximate NEVPT4
  Christian Kollmar      : KDIIS, OOCD, Brueckner-CCSD(T), CCSD density, CASPT2, CASPT2-K, improved NEVPT2 
  Axel Koslowski         : Symmetry handling                             
  Simone Kossmann        : meta-GGA functionals, TD-DFT gradient, OOMP2, (MP2 Hessian; deprecated post 5.0) 
  Lucas Lang             : DCDCAS, Hyperfine gauge corrections, ICE-SOC+SSC
  Marvin Lechner         : AUTO-CI (C++ implementation), FIC-MRCC        
  Spencer Leger          : CASSCF response                               
  Dagmar Lenk            : GEPOL surface, SMD, ORCA-2-JSON               
  Dimitrios Liakos       : Extrapolation schemes; Compound Job, Property file
  Dimitrios Manganas     : Further ROCIS development; embedding schemes. LFT, Crystal Embedding 
  Dimitrios Pantazis     : SARC Basis sets                               
  Anastasios Papadopoulos: AUTO-CI, single reference methods and gradients 
  Taras Petrenko         : pre 6.0 DFT Hessian and TD-DFT gradient,  ECA, NRVS 
  Petra Pikulova         : Analytic Raman intensities                    
  Peter Pinski           : DLPNO-MP2, DLPNO-MP2 Gradient                 
  Shashank Vittal Rao    : ES-AILFT, MagRelax                            
  Christoph Reimann      : Effective Core Potentials                     
  Marius Retegan         : Local ZFS, SOC                                
  Christoph Riplinger    : Optimizer, TS searches, QM/MM, DLPNO-CCSD(T), (RO)-DLPNO pert. Triples 
  Michael Roemelt        : Original ROCIS implementation, recursive CI coupling coefficients
  Masaaki Saitow         : Open-shell DLPNO-CCSD energy and density      
  Barbara Sandhoefer     : DKH picture change effects                    
  Yorick L. A. Schmerwitz: GMF and freeze-and-release deltaSCF, NEB S-IDPP initial path                    
  Kantharuban Sivalingam : CASSCF convergence/infrastructure, NEVPT2, NEVPT3, NEVPT4(SD), FIC-MRCI and CEPA variants
  Bernardo de Souza      : ESD, SOC TD-DFT                               
  Georgi L. Stoychev     : AutoAux, RI-MP2 NMR, DLPNO-MP2 response, X2C  
  Van Anh Tran           : RI-MP2 g-tensors                              
  Willem Van den Heuvel  : Paramagnetic NMR                              
  Zikuan Wang            : NOTCH, Electric field optimization            
  Frank Wennmohs         : Technical directorship and infrastructure     
  Hang Xu                : AUTO-CI-Response properties                   
                                                                         
[FACCTs GmbH]                                                            
  Markus Bursch, Nicolas Foglia, Miquel Garcia-Rates, Ingolf Harden, Hagen Neugebauer, Anastasios Papadopoulos, 
  Christoph Riplinger, Bernardo de Souza, Georgi L. Stoychev                                                    
                                                                 
  APM, various basis sets, CI-OPT, improved COSX, DLPNO-Multilevel,           
  DOCKER, DRACO, updates on ESD, Fragmentator, GOAT, IRC, LR-CPCM, L-BFGS, MBIS, meta-GGA TD-DFT gradient, ML-optimized integration grids, 
  MM, NACMEs, nearIR, NEB, NEB-TS, NL-DFT gradient (VV10), 2- and 3-layer-ONIOM, interface openCOSMO-RS, QMMM,   
  Crystal-QMMM, RESP, rigid body optimization, SF, symmetry and pop. for TD-DFT, various functionals, SOLVATOR                                   
                                                                         
[Other institutions]                                                     
  V. Asgeirsson          : NEB                                           
  Christoph Bannwarth    : sTDA-DFT, sTD-DFT, PBEh-3c, B97-3c, D3        
  Giovanni Bistoni       : ETS/NOCV, ADLD/ADEX, COVALED                  
  Martin Brehm           : Molecular dynamics                            
  Ronald Cardenas        : ETS/NOCV                                      
  Martina Colucci        : COVALED                                       
  Sebastian Ehlert       : rSCAN, r2SCAN, r2SCAN-3c, D4, dhf basis sets  
  Marvin Friede          : D4 for Fr, Ra, Ac-Lr                          
  Lars Goerigk           : TD-DFT with DH, B97 family of functionals     
  Stefan Grimme          : VdW corrections, initial TS optimization, DFT functionals, gCP, sTDA/sTD-DF 
  Waldemar Hujo          : DFT-NL                                        
  H. Jonsson             : NEB                                           
  Holger Kruse           : gCP                                           
  Marcel Mueller         : wB97X-3c, vDZP basis set                      
  Hagen Neugebauer       : wr2SCAN, Native XTB                           
  Gianluca Regni         : ADLD/ADEX                                     
  Tobias Risthaus        : pre 6.0 range-separated hybrid DFT and stability analysis
  Lukas Wittmann         : regularized MP2, r2SCAN double-hybrids, wr2SCAN        
                                                                         
We gratefully acknowledge several colleagues who have allowed us to      
interface, adapt or use parts of their codes:                            
  Ed Valeev, F. Pavosevic, A. Kumar             : LibInt (2-el integral package), F12 methods 
  Garnet Chan, S. Sharma, J. Yang, R. Olivares  : DMRG                   
  Ulf Ekstrom                                   : XCFun DFT Library      
  Mihaly Kallay                                 : mrcc  (arbitrary order and MRCC methods)
  Frank Weinhold                                : gennbo (NPA and NBO analysis)           
  Simon Mueller                                 : openCOSMO-RS                            
  Christopher J. Cramer and Donald G. Truhlar   : smd solvation model                     
  S Lehtola, MJT Oliveira, MAL Marques          : LibXC Library                           
  Liviu Ungur et al                             : ANISO software                          


 Your calculation uses the libint2 library for the computation of 2-el integrals
 For citations please refer to: http://libint.valeyev.net

 Your ORCA version has been built with support for libXC version: 7.0.0
 For citations please refer to: https://libxc.gitlab.io

 This ORCA versions uses:
   CBLAS   interface :  Fast vector & matrix operations
   LAPACKE interface :  Fast linear algebra routines
   SCALAPACK package :  Parallel linear algebra routines
   Shared memory     :  Shared parallel matrices
   BLAS/LAPACK       :  OpenBLAS 0.3.29  USE64BITINT DYNAMIC_ARCH NO_AFFINITY Cooperlake SINGLE_THREADED
        Core in use  :  Cooperlake
   Copyright (c) 2011-2014, The OpenBLAS Project


  ***********************************
  * Starting time: Tue May 12 10:28:04 2026
  * Host name:     c1-113
  * Process ID:    279521
  * Working dir.:  /cluster/projects/nn14654k/ylvaos/basis_set_n_funcs/functionals/gga_x_pbe/C4H6/out
  ***********************************

Using LibXC functional ID 101 : Perdew, Burke & Ernzerhof
[ 1]  J. P. Perdew, K. Burke, and M. Ernzerhof.,  Phys. Rev. Lett. 77, 3865 (1996)
[ 2]  J. P. Perdew, K. Burke, and M. Ernzerhof.,  Phys. Rev. Lett. 78, 1396 (1997)
Using LibXC functional ID 101 : Perdew, Burke & Ernzerhof
[ 1]  J. P. Perdew, K. Burke, and M. Ernzerhof.,  Phys. Rev. Lett. 77, 3865 (1996)
[ 2]  J. P. Perdew, K. Burke, and M. Ernzerhof.,  Phys. Rev. Lett. 78, 1396 (1997)
Your calculation utilizes LibXC
by S. Lehtola, C. Steigemann, M. J. T. Oliveira & M. A. L. Marques
Please cite in your paper:
Lehtola, S.; Steigemann, C.; Oliveira, M.J.T.; Marques, M. A. L. Software X, 7, (2018), 1.
   

================================================================================

----- Orbital basis set information -----
Your calculation utilizes the basis: def2-QZVP
   F. Weigend and R. Ahlrichs, Phys. Chem. Chem. Phys. 7, 3297 (2005).

================================================================================
                                        WARNINGS
                       Please study these warnings very carefully!
================================================================================


================================================================================
                                       INPUT FILE
================================================================================
NAME = /cluster/projects/nn14654k/ylvaos/basis_set_n_funcs/functionals/gga_x_pbe/C4H6/inp/C4H6_gga_x_pbe_def2qzvp.inp
|  1> ! dft def2-QZVP TightSCF
|  2> %pal nprocs 8 end
|  3> 
|  4> %loc
|  5>   LocMet NewBoys
|  6>   Occ true
|  7> end
|  8> 
|  9> %method
| 10>   exchange gga_x_pbe
| 11> end
| 12> 
| 13> %elprop
| 14>   Dipole true
| 15> end
| 16> 
| 17> * xyz 0 1
| 18> C    0.000000000000   0.000000000000   1.632000000000
| 19> C    0.000000000000   0.000000000000   0.300000000000
| 20> C    0.000000000000   0.771000000000  -0.936300000000
| 21> C    0.000000000000  -0.771000000000  -0.936300000000
| 22> H    0.000000000000   0.914000000000   2.222200000000
| 23> H    0.000000000000  -0.914000000000   2.222200000000
| 24> H    0.912300000000   1.305900000000  -1.200300000000
| 25> H   -0.912300000000   1.305900000000  -1.200300000000
| 26> H   -0.912300000000  -1.305900000000  -1.200300000000
| 27> H    0.912300000000  -1.305900000000  -1.200300000000
| 28> *
| 29> 
| 30> 
| 31>                          ****END OF INPUT****
================================================================================

                       ****************************
                       * Single Point Calculation *
                       ****************************

---------------------------------
CARTESIAN COORDINATES (ANGSTROEM)
---------------------------------
  C      0.000000    0.000000    1.632000
  C      0.000000    0.000000    0.300000
  C      0.000000    0.771000   -0.936300
  C      0.000000   -0.771000   -0.936300
  H      0.000000    0.914000    2.222200
  H      0.000000   -0.914000    2.222200
  H      0.912300    1.305900   -1.200300
  H     -0.912300    1.305900   -1.200300
  H     -0.912300   -1.305900   -1.200300
  H      0.912300   -1.305900   -1.200300

----------------------------
CARTESIAN COORDINATES (A.U.)
----------------------------
  NO LB      ZA    FRAG     MASS         X           Y           Z
   0 C     6.0000    0    12.011    0.000000    0.000000    3.084033
   1 C     6.0000    0    12.011    0.000000    0.000000    0.566918
   2 C     6.0000    0    12.011    0.000000    1.456979   -1.769351
   3 C     6.0000    0    12.011    0.000000   -1.456979   -1.769351
   4 H     1.0000    0     1.008    0.000000    1.727210    4.199349
   5 H     1.0000    0     1.008    0.000000   -1.727210    4.199349
   6 H     1.0000    0     1.008    1.723997    2.467793   -2.268238
   7 H     1.0000    0     1.008   -1.723997    2.467793   -2.268238
   8 H     1.0000    0     1.008   -1.723997   -2.467793   -2.268238
   9 H     1.0000    0     1.008    1.723997   -2.467793   -2.268238

--------------------------------
INTERNAL COORDINATES (ANGSTROEM)
--------------------------------
 C      0   0   0     0.000000000000     0.00000000     0.00000000
 C      1   0   0     1.332000000000     0.00000000     0.00000000
 C      2   1   0     1.457010188708   148.05088964     0.00000000
 C      2   1   3     1.457010188708   148.05088964   180.00000000
 H      1   2   3     1.087994503663   122.85166680     0.00000000
 H      1   2   3     1.087994503663   122.85166680   180.00000000
 H      3   2   1     1.090002431190   117.72260444    70.99760541
 H      3   2   1     1.090002431190   117.72260444   289.00239459
 H      4   2   1     1.090002431190   117.72260444    70.99760541
 H      4   2   1     1.090002431190   117.72260444   289.00239459

---------------------------
INTERNAL COORDINATES (A.U.)
---------------------------
 C      0   0   0     0.000000000000     0.00000000     0.00000000
 C      1   0   0     2.517115210383     0.00000000     0.00000000
 C      2   1   0     2.753350230992   148.05088964     0.00000000
 C      2   1   3     2.753350230992   148.05088964   180.00000000
 H      1   2   3     2.056011647134   122.85166680     0.00000000
 H      1   2   3     2.056011647134   122.85166680   180.00000000
 H      3   2   1     2.059806080257   117.72260444    70.99760541
 H      3   2   1     2.059806080257   117.72260444   289.00239459
 H      4   2   1     2.059806080257   117.72260444    70.99760541
 H      4   2   1     2.059806080257   117.72260444   289.00239459

---------------------
BASIS SET INFORMATION
---------------------
There are 2 groups of distinct atoms

 Group   1 Type C   : 15s8p3d2f1g contracted to 7s4p3d2f1g pattern {8211111/5111/111/11/1}
 Group   2 Type H   : 7s3p2d1f contracted to 4s3p2d1f pattern {4111/111/11/1}

Atom   0C    basis set group =>   1
Atom   1C    basis set group =>   1
Atom   2C    basis set group =>   1
Atom   3C    basis set group =>   1
Atom   4H    basis set group =>   2
Atom   5H    basis set group =>   2
Atom   6H    basis set group =>   2
Atom   7H    basis set group =>   2
Atom   8H    basis set group =>   2
Atom   9H    basis set group =>   2


           ************************************************************
           *        Program running with 8 parallel MPI-processes     *
           *              working on a common directory               *
           ************************************************************
------------------------------------------------------------------------------
                             ORCA STARTUP CALCULATIONS
------------------------------------------------------------------------------
------------------------------------------------------------------------------
                   ___                                                        
                  /   \      - P O W E R E D   B Y -                         
                 /     \                                                     
                 |  |  |   _    _      __       _____    __    __             
                 |  |  |  | |  | |    /  \     |  _  \  |  |  /  |          
                  \  \/   | |  | |   /    \    | | | |  |  | /  /          
                 / \  \   | |__| |  /  /\  \   | |_| |  |  |/  /          
                |  |  |   |  __  | /  /__\  \  |    /   |      \           
                |  |  |   | |  | | |   __   |  |    \   |  |\   \          
                \     /   | |  | | |  |  |  |  | |\  \  |  | \   \       
                 \___/    |_|  |_| |__|  |__|  |_| \__\ |__|  \__/        
                                                                              
                      - O R C A' S   B I G   F R I E N D -                    
                                      &                                       
                       - I N T E G R A L  F E E D E R -                       
                                                                              
 v1 FN, 2020, v2 2021, v3 2022-2024                                           
------------------------------------------------------------------------------


----------------------
SHARK INTEGRAL PACKAGE
----------------------

Number of atoms                             ...     10
Number of basis functions                   ...    408
Number of shells                            ...    128
Maximum angular momentum                    ...      4
Integral batch strategy                     ... SHARK/LIBINT Hybrid
RI-J (if used) integral strategy            ... SPLIT-RIJ (Revised 2003 algorithm where possible)
Printlevel                                  ...      1
Contraction scheme used                     ... SEGMENTED contraction
Prescreening option                         ... SCHWARTZ
   Thresh                                   ... 2.500e-11
   Tcut                                     ... 2.500e-12
   Tpresel                                  ... 2.500e-12 
Coulomb Range Separation                    ... NOT USED
Exchange Range Separation                   ... NOT USED
Multipole approximations                    ... NOT USED
Finite Nucleus Model                        ... NOT USED
CABS basis                                  ... NOT available
Auxiliary Coulomb fitting basis             ... NOT available
Auxiliary J/K fitting basis                 ... NOT available
Auxiliary Correlation fitting basis         ... NOT available
Auxiliary 'external' fitting basis          ... NOT available

Checking pre-screening integrals            ... done (  0.0 sec) Dimension = 128
   => SHARK Basis and OBASIS are compatible. Storing Pre-screening
Shell pair information
Shell pair cut-off parameter TPreSel        ...   2.5e-12
Total number of shell pairs                 ...      8256
Shell pairs after pre-screening             ...      7738
Total number of primitive shell pairs       ...     19107
Primitive shell pairs kept                  ...     14829
          la=0 lb=0:   1246 shell pairs
          la=1 lb=0:   1660 shell pairs
          la=1 lb=1:    575 shell pairs
          la=2 lb=0:   1152 shell pairs
          la=2 lb=1:    770 shell pairs
          la=2 lb=2:    282 shell pairs
          la=3 lb=0:    672 shell pairs
          la=3 lb=1:    458 shell pairs
          la=3 lb=2:    316 shell pairs
          la=3 lb=3:    101 shell pairs
          la=4 lb=0:    208 shell pairs
          la=4 lb=1:    136 shell pairs
          la=4 lb=2:     96 shell pairs
          la=4 lb=3:     56 shell pairs
          la=4 lb=4:     10 shell pairs

Checking whether 4 symmetric matrices of dimension 408 fit in memory
:Max Core in MB      =   4096.00
 MB in use           =     12.97
 MB left             =   4083.03
 MB needed           =      2.55
 Data fit in memory  = YES
Calculating Nuclear repulsion               ... done (  0.0 sec) ENN=    109.249345578353 Eh

Diagonalization of the overlap matrix:
Smallest eigenvalue                        ... 5.265e-05
Time for diagonalization                   ...    0.040 sec
Threshold for overlap eigenvalues          ... 1.000e-07
Number of eigenvalues below threshold      ... 0
Time for construction of square roots      ...    0.024 sec
Total time needed                          ...    0.066 sec

-------------------
DFT GRID GENERATION
-------------------

General Integration Accuracy     IntAcc      ... 4.388
Radial Grid Type                 RadialGrid  ... OptM3 with GC (2021)
Angular Grid (max. ang.)         AngularGrid ... 4 (Lebedev-302)
Angular grid pruning method      GridPruning ... 4 (adaptive)
Weight generation scheme         WeightScheme... mBecke (2022)
Basis function cutoff            BFCut       ... 1.0000e-11
Integration weight cutoff        WCut        ... 1.0000e-14
Partially contracted basis set               ... off
Rotationally invariant grid construction     ... off
Angular grids for H and He will be reduced by one unit
Diffuse basis detected: some atoms will have their outermost
                        angular grid increased by 1.

Total number of grid points                  ...    44804
Total number of batches                      ...      705
Average number of points per batch           ...       63
Average number of grid points per atom       ...     4480
Grids setup in   0.2 sec
Initializing property integral containers    ... done (  0.0 sec)

SHARK setup successfully completed in   1.1 seconds

Maximum memory used throughout the entire STARTUP-calculation: 26.1 MB


           ************************************************************
           *        Program running with 8 parallel MPI-processes     *
           *              working on a common directory               *
           ************************************************************
-------------------------------------------------------------------------------
                                 ORCA GUESS
                   Start orbitals & Density for SCF / CASSCF
-------------------------------------------------------------------------------

------------
SCF SETTINGS
------------
Hamiltonian:
 Density Functional     Method          .... DFT(GTOs)
  Functional kind                       .... Exchange
  Functional name                       .... Perdew, Burke & Ernzerhof
  Functional family                     .... GGA
  Functional refs                              
    [ 0] J. P. Perdew, K. Burke, and M. Ernzerhof.,  Phys. Rev. Lett. 77, 3865 (1996), doi: 10.1103/PhysRevLett.77.3865
    [ 1] J. P. Perdew, K. Burke, and M. Ernzerhof.,  Phys. Rev. Lett. 78, 1396 (1997), doi: 10.1103/PhysRevLett.78.1396
  Functional external parameters        .... 2
    Parameter  0 _kappa     =  8.040000e-01 : Asymptotic value of the enhancement function
    Parameter  1 _mu        =  2.195150e-01 : Coefficient of the 2nd order expansion
 Correlation Functional Correlation     .... VWN-5
 Gradients option       PostSCFGGA      .... off


General Settings:
 Integral files         IntName         .... /cluster/projects/nn14654k/ylvaos/basis_set_n_funcs/functionals/gga_x_pbe/C4H6/inp/C4H6_gga_x_pbe_def2qzvp
 Hartree-Fock type      HFTyp           .... RHF
 Total Charge           Charge          ....    0
 Multiplicity           Mult            ....    1
 Number of Electrons    NEL             ....   30
 Basis Dimension        Dim             ....  408
 Nuclear Repulsion      ENuc            ....    109.2493455784 Eh

Convergence Acceleration:
 AO-DIIS                CNVDIIS         .... on
   Start iteration      DIISMaxIt       ....    12
   Startup error        DIISStart       ....  0.200000
   # of expansion vecs  DIISMaxEq       ....     5
   Bias factor          DIISBfac        ....   1.050
   Max. coefficient     DIISMaxC        ....  10.000
 MO-DIIS                CNVKDIIS        .... off
 Trust-Rad. Augm. Hess. CNVTRAH         .... auto
   Auto Start mean grad. ratio tolernc. ....  1.125000
   Auto Start start iteration           ....    50
   Auto Start num. interpolation iter.  ....    10
   Max. Number of Micro iterations      ....    24
   Max. Number of Macro iterations      .... Maxiter - #DIIS iter
   Number of Davidson start vectors     ....     2
   Converg. threshold    (grad. norm)   ....   1.000e-05
   Grad. Scal. Fac. for Micro threshold ....   0.100
   Minimum threshold for Micro iter.    ....   1.000e-02
   NR start threshold (gradient norm)   ....   1.000e-04
   Initial trust radius                 ....   0.400
   Minimum AH scaling param. (alpha)    ....   1.000
   Maximum AH scaling param. (alpha)    .... 1000.000
   Quad. conv. algorithm                .... NR
   White noise on init. David. guess    .... on
   Maximum white noise                  ....   0.010
   Pseudo random numbers                .... off
   Inactive MOs                         .... canonical
   Orbital update algorithm             .... Taylor
   Preconditioner                       .... Diag
   Full preconditioner red. dimension   ....   250
 SOSCF                 CNVSOSCF           .... on
   Start iteration     SOSCFMaxIt         ....   150
   Startup grad/error  SOSCFStart         ....  0.003300
   Hessian update      SOSCFHessUp        .... L-BFGS
   Autom. constraints  SOSCFAutoConstrain .... off
 Level Shifting         CNVShift        .... on
   Level shift para.    LevelShift      ....    0.2500
   Turn off err/grad.   ShiftErr        ....    0.0010
 Zerner damping         CNVZerner       .... off
 Static damping         CNVDamp         .... on
   Fraction old density DampFac         ....    0.7000
   Max. Damping (<1)    DampMax         ....    0.9800
   Min. Damping (>=0)   DampMin         ....    0.0000
   Turn off err/grad.   DampErr         ....    0.1000

SCF Procedure:
 Maximum # iterations   MaxIter         ....   125
 SCF integral mode      SCFMode         .... Direct
   Integral package                     .... SHARK and LIBINT hybrid scheme
 Reset frequency        DirectResetFreq ....    20
 Integral Threshold     Thresh          ....  2.500e-11 Eh
 Primitive CutOff       TCut            ....  2.500e-12 Eh

Convergence Tolerance:
 Convergence Check Mode ConvCheckMode   .... Total+1el-Energy
 Convergence forced     ConvForced      .... 0
 Energy Change          TolE            ....  1.000e-08 Eh
 1-El. energy change                    ....  1.000e-05 Eh
 Orbital Gradient       TolG            ....  1.000e-05
 Orbital Rotation angle TolX            ....  1.000e-05
 DIIS Error             TolErr          ....  5.000e-07

------------------------------
INITIAL GUESS: MODEL POTENTIAL
------------------------------
Loading Hartree-Fock densities                     ... done
Calculating cut-offs                               ... done
Initializing the effective Hamiltonian             ... done
Setting up the integral package (SHARK)            ... done
Starting the Coulomb interaction                   ... done (   0.2 sec)
Making the grid                                    ... done (   0.0 sec)
Mapping shells                                     ... done
Starting the XC term evaluation                    ... done (   0.0 sec)
  promolecular density results
     # of electrons  =     29.996285088
     EX              =    -22.197086217
     EC              =     -1.852099387
     EX+EC           =    -24.049185604
Transforming the Hamiltonian                       ... done (   0.0 sec)
Diagonalizing the Hamiltonian                      ... done (   0.0 sec)
Back transforming the eigenvectors                 ... done (   0.0 sec)
Now organizing SCF variables                       ... done
                      ------------------
                      INITIAL GUESS DONE (   0.4 sec)
                      ------------------
             **** ENERGY FILE WAS UPDATED (/cluster/projects/nn14654k/ylvaos/basis_set_n_funcs/functionals/gga_x_pbe/C4H6/inp/C4H6_gga_x_pbe_def2qzvp.en.tmp) ****
Finished Guess after   0.7 sec
Maximum memory used throughout the entire GUESS-calculation: 24.0 MB


           ************************************************************
           *        Program running with 8 parallel MPI-processes     *
           *              working on a common directory               *
           ************************************************************

-------------------------------------------------------------------------------------------
                                      ORCA LEAN-SCF
                              memory conserving SCF solver
-------------------------------------------------------------------------------------------

----------------------------------------D-I-I-S--------------------------------------------
Iteration    Energy (Eh)           Delta-E    RMSDP     MaxDP     DIISErr   Damp  Time(sec)
-------------------------------------------------------------------------------------------
               ***  Starting incremental Fock matrix formation  ***
    1    -156.6023458597921945     0.00e+00  1.53e-03  2.25e-02  1.92e-01  0.700   5.2
    2    -156.6683871867481344    -6.60e-02  1.12e-03  1.47e-02  9.10e-02  0.700   4.7
                               ***Turning on AO-DIIS***
    3    -156.6919395551969387    -2.36e-02  5.17e-04  6.69e-03  2.49e-02  0.700   4.6
    4    -156.7053601038144279    -1.34e-02  1.01e-03  1.55e-02  1.09e-02  0.000   4.5
    5    -156.7358316787381227    -3.05e-02  2.16e-04  2.37e-03  8.46e-03  0.000   4.6
                              *** Initializing SOSCF ***
---------------------------------------S-O-S-C-F--------------------------------------
Iteration    Energy (Eh)           Delta-E    RMSDP     MaxDP     MaxGrad    Time(sec)
--------------------------------------------------------------------------------------
    6    -156.7362570954199441    -4.25e-04  1.30e-04  1.58e-03  2.15e-03     4.3
               *** Restarting incremental Fock matrix formation ***
    7    -156.7362887011352655    -3.16e-05  1.33e-04  1.78e-03  3.77e-04     4.9
    8    -156.7362868001392826     1.90e-06  3.09e-05  4.91e-04  6.88e-04     4.1
    9    -156.7362917927201806    -4.99e-06  3.30e-05  4.37e-04  2.39e-04     3.9
   10    -156.7362907824982017     1.01e-06  1.16e-05  2.05e-04  2.88e-04     3.9
   11    -156.7362923612881787    -1.58e-06  5.84e-06  7.63e-05  3.01e-05     3.7
   12    -156.7362923531759407     8.11e-09  1.87e-06  2.34e-05  3.99e-05     3.5
                 **** Energy Check signals convergence ****

               *****************************************************
               *                     SUCCESS                       *
               *           SCF CONVERGED AFTER  12 CYCLES          *
               *****************************************************

             **** ENERGY FILE WAS UPDATED (/cluster/projects/nn14654k/ylvaos/basis_set_n_funcs/functionals/gga_x_pbe/C4H6/inp/C4H6_gga_x_pbe_def2qzvp.en.tmp) ****

----------------
TOTAL SCF ENERGY
----------------

Total Energy       :       -156.73629237505895 Eh           -4265.01134 eV

Components:
Nuclear Repulsion  :        109.24934557835338 Eh            2972.82583 eV
Electronic Energy  :       -265.98563795341238 Eh           -7237.83717 eV
One Electron Energy:       -424.52915280840097 Eh          -11552.02554 eV
Two Electron Energy:        158.54351485498862 Eh            4314.18837 eV

Virial components:
Potential Energy   :       -312.26073637184891 Eh           -8497.04662 eV
Kinetic Energy     :        155.52444399678996 Eh            4232.03527 eV
Virial Ratio       :          2.00779201228518

DFT components:
N(Alpha)           :       14.999994474557 electrons
N(Beta)            :       14.999994474557 electrons
N(Total)           :       29.999988949113 electrons
E(X)               :      -22.772301838792 Eh       
E(C)               :       -1.884748221102 Eh       
E(XC)              :      -24.657050059894 Eh       

---------------
SCF CONVERGENCE
---------------

  Last Energy change         ...   -8.1122e-09  Tolerance :   1.0000e-08
  Last MAX-Density change    ...    2.3446e-05  Tolerance :   1.0000e-07
  Last RMS-Density change    ...    1.8659e-06  Tolerance :   5.0000e-09
  Last DIIS Error            ...    2.1480e-03  Tolerance :   5.0000e-07
  Last Orbital Gradient      ...    3.9898e-05  Tolerance :   1.0000e-05
  Last Orbital Rotation      ...    4.6746e-05  Tolerance :   1.0000e-05


----------------
ORBITAL ENERGIES
----------------

  NO   OCC          E(Eh)            E(eV) 
   0   2.0000      -9.950315      -270.7618 
   1   2.0000      -9.949428      -270.7377 
   2   2.0000      -9.949349      -270.7356 
   3   2.0000      -9.932830      -270.2860 
   4   2.0000      -0.802350       -21.8331 
   5   2.0000      -0.656965       -17.8769 
   6   2.0000      -0.565667       -15.3926 
   7   2.0000      -0.493613       -13.4319 
   8   2.0000      -0.443831       -12.0773 
   9   2.0000      -0.435637       -11.8543 
  10   2.0000      -0.394481       -10.7344 
  11   2.0000      -0.347332        -9.4514 
  12   2.0000      -0.289745        -7.8844 
  13   2.0000      -0.270635        -7.3644 
  14   2.0000      -0.239161        -6.5079 
  15   0.0000      -0.048789        -1.3276 
  16   0.0000      -0.006633        -0.1805 
  17   0.0000       0.011859         0.3227 
  18   0.0000       0.020442         0.5563 
  19   0.0000       0.046069         1.2536 
  20   0.0000       0.046511         1.2656 
  21   0.0000       0.055793         1.5182 
  22   0.0000       0.079251         2.1565 
  23   0.0000       0.083092         2.2610 
  24   0.0000       0.094703         2.5770 
  25   0.0000       0.118734         3.2309 
*Only the first 10 virtual orbitals were printed.

                    ********************************
                    * MULLIKEN POPULATION ANALYSIS *
                    ********************************

-----------------------
MULLIKEN ATOMIC CHARGES
-----------------------
   0 C :   -0.165223
   1 C :    0.117059
   2 C :   -0.071799
   3 C :   -0.071800
   4 H :    0.041462
   5 H :    0.041462
   6 H :    0.027210
   7 H :    0.027209
   8 H :    0.027210
   9 H :    0.027210
Sum of atomic charges:   -0.0000000

--------------------------------
MULLIKEN REDUCED ORBITAL CHARGES
--------------------------------
  0 C s       :     3.379932  s :     3.379932
      pz      :     0.813063  p :     2.713734
      px      :     0.985988
      py      :     0.914683
      dz2     :    -0.000638  d :     0.062493
      dxz     :     0.011629
      dyz     :     0.047748
      dx2y2   :     0.003726
      dxy     :     0.000027
      f0      :     0.001061  f :     0.008526
      f+1     :     0.002002
      f-1     :     0.005411
      f+2     :     0.000615
      f-2     :     0.000061
      f+3     :    -0.000081
      f-3     :    -0.000543
      g0      :     0.000054  g :     0.000539
      g+1     :     0.000224
      g-1     :     0.000295
      g+2     :     0.000015
      g-2     :    -0.000002
      g+3     :    -0.000006
      g-3     :    -0.000055
      g+4     :     0.000014
      g-4     :    -0.000000

  1 C s       :     3.305788  s :     3.305788
      pz      :     0.595021  p :     2.405648
      px      :     0.922842
      py      :     0.887785
      dz2     :     0.037572  d :     0.152460
      dxz     :     0.046900
      dyz     :     0.047092
      dx2y2   :     0.008867
      dxy     :     0.012029
      f0      :     0.006140  f :     0.017234
      f+1     :     0.002827
      f-1     :     0.002281
      f+2     :     0.002779
      f-2     :     0.002962
      f+3     :     0.000292
      f-3     :    -0.000047
      g0      :     0.000550  g :     0.001810
      g+1     :     0.000312
      g-1     :     0.000374
      g+2     :     0.000243
      g-2     :     0.000197
      g+3     :     0.000074
      g-3     :     0.000051
      g+4     :     0.000007
      g-4     :     0.000003

  2 C s       :     3.304225  s :     3.304225
      pz      :     0.967254  p :     2.673020
      px      :     0.872365
      py      :     0.833401
      dz2     :     0.017566  d :     0.078727
      dxz     :     0.014312
      dyz     :     0.019265
      dx2y2   :     0.011619
      dxy     :     0.015965
      f0      :     0.004109  f :     0.014923
      f+1     :     0.001437
      f-1     :     0.000957
      f+2     :     0.002699
      f-2     :     0.001169
      f+3     :     0.002594
      f-3     :     0.001959
      g0      :     0.000094  g :     0.000905
      g+1     :     0.000026
      g-1     :     0.000236
      g+2     :     0.000071
      g-2     :     0.000092
      g+3     :     0.000043
      g-3     :     0.000160
      g+4     :     0.000112
      g-4     :     0.000071

  3 C s       :     3.304225  s :     3.304225
      pz      :     0.967254  p :     2.673019
      px      :     0.872365
      py      :     0.833401
      dz2     :     0.017566  d :     0.078727
      dxz     :     0.014312
      dyz     :     0.019265
      dx2y2   :     0.011619
      dxy     :     0.015965
      f0      :     0.004109  f :     0.014923
      f+1     :     0.001437
      f-1     :     0.000957
      f+2     :     0.002699
      f-2     :     0.001169
      f+3     :     0.002594
      f-3     :     0.001959
      g0      :     0.000094  g :     0.000905
      g+1     :     0.000026
      g-1     :     0.000236
      g+2     :     0.000071
      g-2     :     0.000092
      g+3     :     0.000043
      g-3     :     0.000160
      g+4     :     0.000112
      g-4     :     0.000071

  4 H s       :     0.913104  s :     0.913104
      pz      :     0.010014  p :     0.039324
      px      :     0.019095
      py      :     0.010214
      dz2     :     0.001596  d :     0.005735
      dxz     :     0.001058
      dyz     :     0.000683
      dx2y2   :     0.000660
      dxy     :     0.001739
      f0      :     0.000025  f :     0.000376
      f+1     :     0.000006
      f-1     :     0.000129
      f+2     :     0.000021
      f-2     :     0.000089
      f+3     :     0.000076
      f-3     :     0.000030

  5 H s       :     0.913104  s :     0.913104
      pz      :     0.010014  p :     0.039324
      px      :     0.019095
      py      :     0.010214
      dz2     :     0.001596  d :     0.005735
      dxz     :     0.001058
      dyz     :     0.000683
      dx2y2   :     0.000660
      dxy     :     0.001739
      f0      :     0.000025  f :     0.000376
      f+1     :     0.000006
      f-1     :     0.000129
      f+2     :     0.000021
      f-2     :     0.000089
      f+3     :     0.000076
      f-3     :     0.000030

  6 H s       :     0.921091  s :     0.921091
      pz      :     0.018382  p :     0.045030
      px      :     0.009049
      py      :     0.017599
      dz2     :     0.000878  d :     0.006294
      dxz     :     0.001553
      dyz     :     0.000922
      dx2y2   :     0.001845
      dxy     :     0.001097
      f0      :     0.000032  f :     0.000375
      f+1     :     0.000067
      f-1     :     0.000042
      f+2     :     0.000028
      f-2     :     0.000059
      f+3     :     0.000121
      f-3     :     0.000026

  7 H s       :     0.921091  s :     0.921091
      pz      :     0.018382  p :     0.045030
      px      :     0.009049
      py      :     0.017599
      dz2     :     0.000878  d :     0.006294
      dxz     :     0.001553
      dyz     :     0.000922
      dx2y2   :     0.001845
      dxy     :     0.001097
      f0      :     0.000032  f :     0.000375
      f+1     :     0.000067
      f-1     :     0.000042
      f+2     :     0.000028
      f-2     :     0.000059
      f+3     :     0.000121
      f-3     :     0.000026

  8 H s       :     0.921091  s :     0.921091
      pz      :     0.018382  p :     0.045030
      px      :     0.009049
      py      :     0.017599
      dz2     :     0.000878  d :     0.006294
      dxz     :     0.001553
      dyz     :     0.000922
      dx2y2   :     0.001845
      dxy     :     0.001097
      f0      :     0.000032  f :     0.000375
      f+1     :     0.000067
      f-1     :     0.000042
      f+2     :     0.000028
      f-2     :     0.000059
      f+3     :     0.000121
      f-3     :     0.000026

  9 H s       :     0.921091  s :     0.921091
      pz      :     0.018382  p :     0.045030
      px      :     0.009049
      py      :     0.017599
      dz2     :     0.000878  d :     0.006294
      dxz     :     0.001553
      dyz     :     0.000922
      dx2y2   :     0.001845
      dxy     :     0.001097
      f0      :     0.000032  f :     0.000375
      f+1     :     0.000067
      f-1     :     0.000042
      f+2     :     0.000028
      f-2     :     0.000059
      f+3     :     0.000121
      f-3     :     0.000026



                     *******************************
                     * LOEWDIN POPULATION ANALYSIS *
                     *******************************

----------------------
LOEWDIN ATOMIC CHARGES
----------------------
   0 C :    0.192650
   1 C :   -0.103879
   2 C :    0.168246
   3 C :    0.168246
   4 H :   -0.088954
   5 H :   -0.088954
   6 H :   -0.061839
   7 H :   -0.061839
   8 H :   -0.061839
   9 H :   -0.061839

-------------------------------
LOEWDIN REDUCED ORBITAL CHARGES
-------------------------------
  0 C s       :     2.628066  s :     2.628066
      pz      :     1.010356  p :     2.785363
      px      :     0.818375
      py      :     0.956632
      dz2     :     0.077605  d :     0.319473
      dxz     :     0.041962
      dyz     :     0.178083
      dx2y2   :     0.021635
      dxy     :     0.000187
      f0      :     0.014625  f :     0.065359
      f+1     :     0.013783
      f-1     :     0.026756
      f+2     :     0.006262
      f-2     :     0.000134
      f+3     :     0.000921
      f-3     :     0.002878
      g0      :     0.002442  g :     0.009089
      g+1     :     0.001954
      g-1     :     0.003224
      g+2     :     0.000106
      g-2     :     0.000004
      g+3     :     0.000150
      g-3     :     0.000900
      g+4     :     0.000309
      g-4     :     0.000000

  1 C s       :     2.595715  s :     2.595715
      pz      :     1.051948  p :     2.686812
      px      :     0.758239
      py      :     0.876625
      dz2     :     0.204832  d :     0.659252
      dxz     :     0.162548
      dyz     :     0.211699
      dx2y2   :     0.035360
      dxy     :     0.044813
      f0      :     0.049295  f :     0.143363
      f+1     :     0.018195
      f-1     :     0.035119
      f+2     :     0.014841
      f-2     :     0.021574
      f+3     :     0.003536
      f-3     :     0.000804
      g0      :     0.006143  g :     0.018738
      g+1     :     0.002974
      g-1     :     0.004661
      g+2     :     0.001538
      g-2     :     0.001929
      g+3     :     0.000915
      g-3     :     0.000427
      g+4     :     0.000065
      g-4     :     0.000086

  2 C s       :     2.553880  s :     2.553880
      pz      :     0.888661  p :     2.690111
      px      :     0.939738
      py      :     0.861712
      dz2     :     0.085751  d :     0.467104
      dxz     :     0.059683
      dyz     :     0.113586
      dx2y2   :     0.072510
      dxy     :     0.135573
      f0      :     0.026729  f :     0.111574
      f+1     :     0.010682
      f-1     :     0.010988
      f+2     :     0.025339
      f-2     :     0.009086
      f+3     :     0.013957
      f-3     :     0.014792
      g0      :     0.000886  g :     0.009085
      g+1     :     0.000590
      g-1     :     0.002622
      g+2     :     0.000843
      g-2     :     0.000931
      g+3     :     0.000296
      g-3     :     0.001411
      g+4     :     0.000471
      g-4     :     0.001035

  3 C s       :     2.553880  s :     2.553880
      pz      :     0.888661  p :     2.690111
      px      :     0.939738
      py      :     0.861712
      dz2     :     0.085751  d :     0.467104
      dxz     :     0.059683
      dyz     :     0.113586
      dx2y2   :     0.072510
      dxy     :     0.135573
      f0      :     0.026729  f :     0.111574
      f+1     :     0.010682
      f-1     :     0.010988
      f+2     :     0.025339
      f-2     :     0.009086
      f+3     :     0.013957
      f-3     :     0.014792
      g0      :     0.000886  g :     0.009085
      g+1     :     0.000590
      g-1     :     0.002622
      g+2     :     0.000843
      g-2     :     0.000931
      g+3     :     0.000296
      g-3     :     0.001411
      g+4     :     0.000471
      g-4     :     0.001035

  4 H s       :     0.817870  s :     0.817870
      pz      :     0.057316  p :     0.198266
      px      :     0.058144
      py      :     0.082806
      dz2     :     0.014599  d :     0.063489
      dxz     :     0.007477
      dyz     :     0.016090
      dx2y2   :     0.011683
      dxy     :     0.013640
      f0      :     0.000797  f :     0.009329
      f+1     :     0.000084
      f-1     :     0.002902
      f+2     :     0.001629
      f-2     :     0.001650
      f+3     :     0.001213
      f-3     :     0.001053

  5 H s       :     0.817870  s :     0.817870
      pz      :     0.057316  p :     0.198266
      px      :     0.058144
      py      :     0.082806
      dz2     :     0.014599  d :     0.063489
      dxz     :     0.007477
      dyz     :     0.016090
      dx2y2   :     0.011683
      dxy     :     0.013640
      f0      :     0.000797  f :     0.009329
      f+1     :     0.000084
      f-1     :     0.002902
      f+2     :     0.001629
      f-2     :     0.001650
      f+3     :     0.001213
      f-3     :     0.001053

  6 H s       :     0.796543  s :     0.796543
      pz      :     0.059488  p :     0.191266
      px      :     0.078633
      py      :     0.053145
      dz2     :     0.008639  d :     0.064482
      dxz     :     0.015355
      dyz     :     0.006671
      dx2y2   :     0.018709
      dxy     :     0.015108
      f0      :     0.000822  f :     0.009548
      f+1     :     0.001477
      f-1     :     0.000687
      f+2     :     0.000662
      f-2     :     0.001591
      f+3     :     0.002624
      f-3     :     0.001684

  7 H s       :     0.796543  s :     0.796543
      pz      :     0.059488  p :     0.191266
      px      :     0.078633
      py      :     0.053145
      dz2     :     0.008639  d :     0.064482
      dxz     :     0.015355
      dyz     :     0.006671
      dx2y2   :     0.018709
      dxy     :     0.015108
      f0      :     0.000822  f :     0.009548
      f+1     :     0.001477
      f-1     :     0.000687
      f+2     :     0.000662
      f-2     :     0.001591
      f+3     :     0.002624
      f-3     :     0.001684

  8 H s       :     0.796543  s :     0.796543
      pz      :     0.059488  p :     0.191266
      px      :     0.078633
      py      :     0.053145
      dz2     :     0.008639  d :     0.064482
      dxz     :     0.015355
      dyz     :     0.006671
      dx2y2   :     0.018709
      dxy     :     0.015108
      f0      :     0.000822  f :     0.009548
      f+1     :     0.001477
      f-1     :     0.000687
      f+2     :     0.000662
      f-2     :     0.001591
      f+3     :     0.002624
      f-3     :     0.001684

  9 H s       :     0.796543  s :     0.796543
      pz      :     0.059488  p :     0.191266
      px      :     0.078633
      py      :     0.053145
      dz2     :     0.008639  d :     0.064482
      dxz     :     0.015355
      dyz     :     0.006671
      dx2y2   :     0.018709
      dxy     :     0.015108
      f0      :     0.000822  f :     0.009548
      f+1     :     0.001477
      f-1     :     0.000687
      f+2     :     0.000662
      f-2     :     0.001591
      f+3     :     0.002624
      f-3     :     0.001684



                      *****************************
                      * MAYER POPULATION ANALYSIS *
                      *****************************

  NA   - Mulliken gross atomic population
  ZA   - Total nuclear charge
  QA   - Mulliken gross atomic charge
  VA   - Mayer's total valence
  BVA  - Mayer's bonded valence
  FA   - Mayer's free valence

  ATOM       NA         ZA         QA         VA         BVA        FA
  0 C      6.1652     6.0000    -0.1652     3.7867     3.7867    -0.0000
  1 C      5.8829     6.0000     0.1171     3.5922     3.5922    -0.0000
  2 C      6.0718     6.0000    -0.0718     3.8308     3.8308     0.0000
  3 C      6.0718     6.0000    -0.0718     3.8308     3.8308     0.0000
  4 H      0.9585     1.0000     0.0415     1.0183     1.0183    -0.0000
  5 H      0.9585     1.0000     0.0415     1.0183     1.0183    -0.0000
  6 H      0.9728     1.0000     0.0272     1.0264     1.0264    -0.0000
  7 H      0.9728     1.0000     0.0272     1.0264     1.0264     0.0000
  8 H      0.9728     1.0000     0.0272     1.0264     1.0264    -0.0000
  9 H      0.9728     1.0000     0.0272     1.0264     1.0264     0.0000

  Mayer bond orders larger than 0.100000
B(  0-C ,  1-C ) :   1.7071 B(  0-C ,  4-H ) :   0.9674 B(  0-C ,  5-H ) :   0.9674 
B(  1-C ,  2-C ) :   0.9047 B(  1-C ,  3-C ) :   0.9047 B(  2-C ,  3-C ) :   0.9026 
B(  2-C ,  6-H ) :   0.9628 B(  2-C ,  7-H ) :   0.9628 B(  3-C ,  8-H ) :   0.9628 
B(  3-C ,  9-H ) :   0.9628 

-------
TIMINGS
-------

Total SCF time: 0 days 0 hours 0 min 55 sec 

Total time                  ....      55.237 sec
Sum of individual times     ....      52.027 sec  ( 94.2%)

SCF preparation             ....       0.190 sec  (  0.3%)
Fock matrix formation       ....      51.252 sec  ( 92.8%)
  Startup                   ....       0.010 sec  (  0.0% of F)
  Coulomb formation         ....      52.799 sec  (103.0% of F)
  XC integration            ....       1.484 sec  (  2.9% of F)
    XC Preparation          ....       0.000 sec  (  0.0% of XC)
    Basis function eval.    ....       0.210 sec  ( 14.1% of XC)
    Density eval.           ....       0.300 sec  ( 20.2% of XC)
    XC-Functional eval.     ....       0.024 sec  (  1.6% of XC)
    XC-Potential eval.      ....       0.699 sec  ( 47.1% of XC)
Diagonalization             ....       0.000 sec  (  0.0%)
Density matrix formation    ....       0.062 sec  (  0.1%)
Total Energy calculation    ....       0.025 sec  (  0.0%)
Population analysis         ....       0.027 sec  (  0.0%)
Orbital Transformation      ....       0.058 sec  (  0.1%)
Orbital Orthonormalization  ....       0.000 sec  (  0.0%)
DIIS solution               ....       0.259 sec  (  0.5%)
SOSCF solution              ....       0.153 sec  (  0.3%)
Finished LeanSCF after  55.3 sec

Maximum memory used throughout the entire LEANSCF-calculation: 39.2 MB
------------------------------------------------------------------------------
                           ORCA ORBITAL LOCALIZATION
------------------------------------------------------------------------------

Input orbitals are from                  ... /cluster/projects/nn14654k/ylvaos/basis_set_n_funcs/functionals/gga_x_pbe/C4H6/inp/C4H6_gga_x_pbe_def2qzvp.gbw
Output orbitals are to                   ... /cluster/projects/nn14654k/ylvaos/basis_set_n_funcs/functionals/gga_x_pbe/C4H6/inp/C4H6_gga_x_pbe_def2qzvp.loc
Max. number of iterations                ... 128
Localizations seeded randomly            ... on
Convergence tolerance                    ... 1.000e-06
Threshold for strong local MOs           ... 9.500e-01
Threshold for bond MOs                   ... 8.500e-01
Operator                                 ... 0
Orbital range for localization           ... 4 to 14
Localization criterion                   ... NEW-BOYS
Doing the dipole integrals               ... o.k.
Initial value of the localization sum :    55.551719
ITERATION   0 : L=   79.8396774487 DL=  2.43e+01 (AVERGE_DL)=    0.6645293428 
ITERATION   1 : L=   86.5325250771 DL=  6.69e+00 (AVERGE_DL)=    0.3488382701 
ITERATION   2 : L=   86.6758354465 DL=  1.43e-01 (AVERGE_DL)=    0.0510455001 
ITERATION   3 : L=   86.6765715254 DL=  7.36e-04 (AVERGE_DL)=    0.0036583129 
ITERATION   4 : L=   86.6765752456 DL=  3.72e-06 (AVERGE_DL)=    0.0002600749 
ITERATION   5 : L=   86.6765752818 DL=  3.63e-08 (AVERGE_DL)=    0.0000256745 
LOCALIZATION SUM CONVERGED


--------------------------------------------------------------------------------
                    LOCALIZED MOLECULAR ORBITAL COMPOSITIONS
--------------------------------------------------------------------------------

The Mulliken populations for each LMO on each atom are computed
The LMO`s will be ordered according to atom index and type
  (A) Strongly localized MO`s have populations of >=0.950 on one atom
  (B) Two center bond orbitals have populations of >=0.850 on two atoms
  (C) Other MO`s are considered to be `delocalized`

FOUND  -   0 strongly local MO`s
       -  11 two center bond MO`s
       -   0 significantly delocalized MO`s

Bond-like localized orbitals:
MO  14:   9H  -   0.497216  and   3C  -   0.524801
MO  13:   8H  -   0.497216  and   3C  -   0.524801
MO  12:   7H  -   0.497216  and   2C  -   0.524800
MO  11:   6H  -   0.497216  and   2C  -   0.524801
MO  10:   5H  -   0.490617  and   0C  -   0.537171
MO   9:   4H  -   0.490618  and   0C  -   0.537171
MO   8:   3C  -   0.509183  and   2C  -   0.509183
MO   7:   3C  -   0.524011  and   1C  -   0.514253
MO   6:   2C  -   0.524012  and   1C  -   0.514252
MO   5:   1C  -   0.502807  and   0C  -   0.511531
MO   4:   1C  -   0.502807  and   0C  -   0.511531
Localized MO's were stored in: /cluster/projects/nn14654k/ylvaos/basis_set_n_funcs/functionals/gga_x_pbe/C4H6/inp/C4H6_gga_x_pbe_def2qzvp.loc

-------------------------   --------------------
FINAL SINGLE POINT ENERGY      -156.736292375059
-------------------------   --------------------



           ************************************************************
           *        Program running with 8 parallel MPI-processes     *
           *              working on a common directory               *
           ************************************************************

------------------------------------------------------------------------------
                              ORCA PROPERTY CALCULATIONS
------------------------------------------------------------------------------

GBWName                                 ... /cluster/projects/nn14654k/ylvaos/basis_set_n_funcs/functionals/gga_x_pbe/C4H6/inp/C4H6_gga_x_pbe_def2qzvp.gbw
Number of atoms                         ...     10
Number of basis functions               ...    408
Max core memory                         ...   4096 MB

Electric properties:
Dipole moment                           ... YES
Quadrupole moment                       ...  NO
Static polarizability (Dipole/Dipole)   ...  NO
Static polarizability (Dipole/Quad.)    ...  NO
Static polarizability (Quad./Quad.)     ...  NO
Static polarizability (Velocity)        ...  NO
Static hyperpolarizability              ...  NO

Atomic electric properties:
Dipole moment                           ...  NO
Quadrupole moment                       ...  NO
Static polarizability                   ...  NO

Choice of electric origin               ... Center of mass
Position of electric origin             ...     0.000000     0.000000     0.012360

General magnetic properties:
Magnetizability                         ...  NO

EPR properties:
g-Tensor (aka g-matrix)                 ...  NO
Zero-Field splitting spin-orbit         ...  NO
Zero-field splitting spin-spin          ...  NO
Hyperfine couplings                     ...  NO (   0 nuclei)
Quadrupole couplings                    ...  NO (   0 nuclei)
Contact density                         ...  NO (   0 nuclei)

NMR properties:
Chemical shifts                         ...  NO (   0 nuclei)
Spin-rotation constants                 ...  NO (   0 nuclei)
Spin-spin couplings                     ...  NO (   0 nuclei,    0 pairs)

Choice of magnetic origin               ... GIAO
Position of magnetic origin             ...     0.000000     0.000000     0.000000

Properties with geometric perturbations:
SCF Hessian                             ...  NO
IR spectrum                             ...  NO
VCD spectrum                            ...  NO
X-ray spectroscopy properties:
SCF XES/XAS/RIXS spectra                ...  NO

SCF SOC stabilization energy            ...  NO
Diagonal Born-Oppenheimer correction    ...  NO

-------------
DIPOLE MOMENT
-------------

Method             : SCF
Type of density    : Electron Density
Multiplicity       :   1
Irrep              :   0
Energy             :  -156.7362923750589516 Eh
Basis              : AO
                                X                 Y                 Z
Electronic contribution:     -0.000000006      -0.000000013       0.207580065
Nuclear contribution   :      0.000000000       0.000000000      -0.371559272
                        -----------------------------------------
Total Dipole Moment    :     -0.000000006      -0.000000013      -0.163979206
                        -----------------------------------------
Magnitude (a.u.)       :      0.163979206
Magnitude (Debye)      :      0.416802018



--------------------
Rotational spectrum 
--------------------
 
Rotational constants in cm-1:             0.643527             0.230144             0.181788 
Rotational constants in MHz :         19292.450199          6899.535423          5449.866904 

Dipole components along the rotational axes: 
x,y,z [a.u.] :    -0.163979    -0.000000    -0.000000 
x,y,z [Debye]:    -0.416802    -0.000000    -0.000000 

 

Dipole moment calculation done in   0.0 sec 

Maximum memory used throughout the entire PROP-calculation: 21.7 MB

--------------------------------
SUGGESTED CITATIONS FOR THIS RUN
--------------------------------

Below you find a list of papers that are relevant to this ORCA run
We neither can nor want to force you to cite these papers, but we appreciate if you do
You receive ORCA, which is the product of decades of hard work by many enthusiastic individuals, for free
The only thing we kindly ask in return is that you cite our papers,
We deeply appreciate it, if you show your appreciation for ORCA by not just citing the generic ORCA reference.

Please note that relegating all ORCA citations to the supporting information does *not* help us.
SI sections are not indexed - citations you put there will not count into any citation statistics
But we need these citations in order to attract the funding resources that allow us to do what we are doing

Therefore, if you are a happy ORCA user, please consider citing a few of the papers listed below in the main body of your paper

In addition to the list printed below, the program has created the file /cluster/projects/nn14654k/ylvaos/basis_set_n_funcs/functionals/gga_x_pbe/C4H6/inp/C4H6_gga_x_pbe_def2qzvp.bibtex that contains the list in bibtex format
You can import this file easily into all common literature databanks and citation aid programs

It goes without saying that in many instances, there are alternative algorithms to achieve similar
results as the ones you have gotten from ORCA. It is, of course, also the case that in some instances
ORCA just re-implements algorithms worked out by others. We are fully aware of that and we are also
fully appreciative of our colleagues work. Hence this citation list should not be read as indicating
that the listed papers, which are focused on our own work, are the only ones worth citing. It simply
meant to make it easier for users to cite ORCA specific papers. It is not a substitute for doing your
own literature research and citing the relevant literature in a scientifically appropriate manner.

List of essential papers. We consider these as the minimum necessary citations

  1. Neese, F.
     Software update: the ORCA program system, version 6.0
     WIRES Comput. Molec. Sci. 2025 15(1), e70019
     doi.org/10.1002/wcms.70019

List of papers to cite with high priority. The work reported in these papers was absolutely
necessary for this run to complete.
Our perspective: the developers of density functionals and basis sets usually get cited in chemistry papers
Good! But without the algorithms to do something with them, the functionals or basis sets would not do anything.
Hence, in our opinion, the algorithm design and method developments papers are equally worthy of getting cited

  1. Lehtola, S.; Steigemann, C.; Oliveira, M.; Marques, M.
     Recent developments in Libxc - A comprehensive library of functionals for density functional theory
     Software X 2018 7 , 
     doi.org/10.1016/j.softx.2017.11.002
  2. Neese, F.
     The SHARK Integral Generation and Digestion System
     J. Comp. Chem. 2022 44(3), 381
     doi.org/10.1002/jcc.26942

List of suggested additional citations. These are papers that are important in the 'surrounding' of 
of this run, or papers that preceded the highly important papers. If you like your results we are grateful for a citation.

  1. Neese, F.
     The ORCA program system
     WIRES Comput. Molec. Sci. 2012 2(1), 73-78
     doi.org/10.1002/wcms.81
  2. Neese, F.
     Software update: the ORCA program system, version 4.0
     WIRES Comput. Molec. Sci. 2018 8(1), 1-6
     doi.org/10.1002/wcms.1327
  3. Neese, F.; Wennmohs, F.; Becker, U.; Riplinger, C.
     The ORCA quantum chemistry program package
     J. Chem. Phys. 2020 152(22), 224108
     doi.org/10.1063/5.0004608
  4. Neese, F.
     Software update: The ORCA program system—Version 5.0
     WIRES Comput. Molec. Sci. 2022 12(1), e1606
     doi.org/10.1002/wcms.1606

List of optional additional citations

  1. Neese, F.
     Approximate second-order SCF convergence for spin unrestricted wavefunctions
     Chem. Phys. Lett. 2000 325(1-3), 93-98
     doi.org/10.1016/s0009-2614(00)00662-x

Timings for individual modules:

Sum of individual times          ...       65.259 sec (=   1.088 min)
Startup calculation              ...        3.936 sec (=   0.066 min)   6.0 %
SCF iterations                   ...       59.440 sec (=   0.991 min)  91.1 %
Property calculations            ...        1.856 sec (=   0.031 min)   2.8 %
Orbital localization             ...        0.028 sec (=   0.000 min)   0.0 %
                             ****ORCA TERMINATED NORMALLY****
TOTAL RUN TIME: 0 days 0 hours 1 minutes 7 seconds 649 msec
