
                                 *****************
                                 * O   R   C   A *
                                 *****************

                                            #,                                       
                                            ###                                      
                                            ####                                     
                                            #####                                    
                                            ######                                   
                                           ########,                                 
                                     ,,################,,,,,                         
                               ,,#################################,,                 
                          ,,##########################################,,             
                       ,#########################################, ''#####,          
                    ,#############################################,,   '####,        
                  ,##################################################,,,,####,       
                ,###########''''           ''''###############################       
              ,#####''   ,,,,##########,,,,          '''####'''          '####       
            ,##' ,,,,###########################,,,                        '##       
           ' ,,###''''                  '''############,,,                           
         ,,##''                                '''############,,,,        ,,,,,,###''
      ,#''                                            '''#######################'''  
     '                                                          ''''####''''         
             ,#######,   #######,   ,#######,      ##                                
            ,#'     '#,  ##    ##  ,#'     '#,    #''#        ,####,    ,#,          
            ##       ##  ##   ,#'  ##            #'  '#       #'       ,# #          
            ##       ##  #######   ##           ,######,      #####,      #          
            '#,     ,#'  ##    ##  '#,     ,#' ,#      #,     #,   #      #          
             '#######'   ##     ##  '#######'  #'      '#     '####' #    #          



                #########################################################
                #                        -***-                          #
                #          Department of theory and spectroscopy        #
                #                                                       #
                #                      Frank Neese                      #
                #                                                       #
                #     Directorship, Architecture, Infrastructure        #
                #                    SHARK, DRIVERS                     #
                #        Core code/Algorithms in most modules           #
                #                                                       #
                #        Max Planck Institute fuer Kohlenforschung      #
                #                Kaiser Wilhelm Platz 1                 #
                #                 D-45470 Muelheim/Ruhr                 #
                #                      Germany                          #
                #                                                       #
                #                  All rights reserved                  #
                #                        -***-                          #
                #########################################################


                         Program Version 6.1.1  -  RELEASE   -
                                (GIT: $487d211c$)
                          ($2025-11-21 10:33:24 +0100$)


 With contributions from (in alphabetic order):
[Max-Planck-Institut fuer Kohlenforschung]                               
  Daniel Aravena         : Magnetic Suceptibility                        
  Michael Atanasov       : Ab Initio Ligand Field Theory (pilot matlab implementation)
  Alexander A. Auer      : GIAO ZORA, VPT2 properties, NMR spectrum      
  Ute Becker             : All parallelization in ORCA, NUMFREQ, NUMCALC 
  Giovanni Bistoni       : ED, misc. LED, open-shell LED, HFLD           
  Dmytro Bykov           : pre 5.0 version of the SCF Hessian            
  Marcos Casanova-Páez   : Triplet and SCS-CIS(D). UHF-(DLPNO)-IP/EA/STEOM-CCSD. UHF-CVS-IP/STEOM-CCSD   
  Vijay G. Chilkuri      : MRCI spin determinant printing, contributions to CSF-ICE 
  Pauline Colinet        : FMM embedding                                 
  Dipayan Datta          : RHF DLPNO-CCSD density                        
  Achintya Kumar Dutta   : EOM-CC, STEOM-CC                              
  Nicolas Foglia         : Exact transition moments, OPA infrastructure, MCD improvements    
  Dmitry Ganyushin       : Spin-Orbit,Spin-Spin,Magnetic field MRCI      
  Miquel Garcia-Rates    : C-PCM and meta-GGA Hessian, CCSD/C-PCM, Gaussian charge scheme 
  Tiago L. C. Gouveia    : GS-ROHF, GS-ROCIS                             
  Yang Guo               : DLPNO-NEVPT2, F12-NEVPT2, CIM, IAO-localization        
  Andreas Hansen         : Spin unrestricted coupled pair/coupled cluster methods 
  Ingolf Harden          : AUTO-CI MPn and infrastructure                
  Benjamin Helmich-Paris : MC-RPA, TRAH-(SCF,CASSCF), AVAS, COSX integrals, SCF dyn. polar., MC-PDFT, srDFT 
  Lee Huntington         : MR-EOM, pCC                                   
  Robert Izsak           : Overlap fitted RIJCOSX, COSX-SCS-MP3, EOM     
  Riya Kayal             : Wick's Theorem for AUTO-CI, AUTO-CI UHF-CCSDT 
  Emily Kempfer          : AUTO-CI RHF CISDT and CCSDT, approximate NEVPT4
  Christian Kollmar      : KDIIS, OOCD, Brueckner-CCSD(T), CCSD density, CASPT2, CASPT2-K, improved NEVPT2 
  Axel Koslowski         : Symmetry handling                             
  Simone Kossmann        : meta-GGA functionals, TD-DFT gradient, OOMP2, (MP2 Hessian; deprecated post 5.0) 
  Lucas Lang             : DCDCAS, Hyperfine gauge corrections, ICE-SOC+SSC
  Marvin Lechner         : AUTO-CI (C++ implementation), FIC-MRCC        
  Spencer Leger          : CASSCF response                               
  Dagmar Lenk            : GEPOL surface, SMD, ORCA-2-JSON               
  Dimitrios Liakos       : Extrapolation schemes; Compound Job, Property file
  Dimitrios Manganas     : Further ROCIS development; embedding schemes. LFT, Crystal Embedding 
  Dimitrios Pantazis     : SARC Basis sets                               
  Anastasios Papadopoulos: AUTO-CI, single reference methods and gradients 
  Taras Petrenko         : pre 6.0 DFT Hessian and TD-DFT gradient,  ECA, NRVS 
  Petra Pikulova         : Analytic Raman intensities                    
  Peter Pinski           : DLPNO-MP2, DLPNO-MP2 Gradient                 
  Shashank Vittal Rao    : ES-AILFT, MagRelax                            
  Christoph Reimann      : Effective Core Potentials                     
  Marius Retegan         : Local ZFS, SOC                                
  Christoph Riplinger    : Optimizer, TS searches, QM/MM, DLPNO-CCSD(T), (RO)-DLPNO pert. Triples 
  Michael Roemelt        : Original ROCIS implementation, recursive CI coupling coefficients
  Masaaki Saitow         : Open-shell DLPNO-CCSD energy and density      
  Barbara Sandhoefer     : DKH picture change effects                    
  Yorick L. A. Schmerwitz: GMF and freeze-and-release deltaSCF, NEB S-IDPP initial path                    
  Kantharuban Sivalingam : CASSCF convergence/infrastructure, NEVPT2, NEVPT3, NEVPT4(SD), FIC-MRCI and CEPA variants
  Bernardo de Souza      : ESD, SOC TD-DFT                               
  Georgi L. Stoychev     : AutoAux, RI-MP2 NMR, DLPNO-MP2 response, X2C  
  Van Anh Tran           : RI-MP2 g-tensors                              
  Willem Van den Heuvel  : Paramagnetic NMR                              
  Zikuan Wang            : NOTCH, Electric field optimization            
  Frank Wennmohs         : Technical directorship and infrastructure     
  Hang Xu                : AUTO-CI-Response properties                   
                                                                         
[FACCTs GmbH]                                                            
  Markus Bursch, Nicolas Foglia, Miquel Garcia-Rates, Ingolf Harden, Hagen Neugebauer, Anastasios Papadopoulos, 
  Christoph Riplinger, Bernardo de Souza, Georgi L. Stoychev                                                    
                                                                 
  APM, various basis sets, CI-OPT, improved COSX, DLPNO-Multilevel,           
  DOCKER, DRACO, updates on ESD, Fragmentator, GOAT, IRC, LR-CPCM, L-BFGS, MBIS, meta-GGA TD-DFT gradient, ML-optimized integration grids, 
  MM, NACMEs, nearIR, NEB, NEB-TS, NL-DFT gradient (VV10), 2- and 3-layer-ONIOM, interface openCOSMO-RS, QMMM,   
  Crystal-QMMM, RESP, rigid body optimization, SF, symmetry and pop. for TD-DFT, various functionals, SOLVATOR                                   
                                                                         
[Other institutions]                                                     
  V. Asgeirsson          : NEB                                           
  Christoph Bannwarth    : sTDA-DFT, sTD-DFT, PBEh-3c, B97-3c, D3        
  Giovanni Bistoni       : ETS/NOCV, ADLD/ADEX, COVALED                  
  Martin Brehm           : Molecular dynamics                            
  Ronald Cardenas        : ETS/NOCV                                      
  Martina Colucci        : COVALED                                       
  Sebastian Ehlert       : rSCAN, r2SCAN, r2SCAN-3c, D4, dhf basis sets  
  Marvin Friede          : D4 for Fr, Ra, Ac-Lr                          
  Lars Goerigk           : TD-DFT with DH, B97 family of functionals     
  Stefan Grimme          : VdW corrections, initial TS optimization, DFT functionals, gCP, sTDA/sTD-DF 
  Waldemar Hujo          : DFT-NL                                        
  H. Jonsson             : NEB                                           
  Holger Kruse           : gCP                                           
  Marcel Mueller         : wB97X-3c, vDZP basis set                      
  Hagen Neugebauer       : wr2SCAN, Native XTB                           
  Gianluca Regni         : ADLD/ADEX                                     
  Tobias Risthaus        : pre 6.0 range-separated hybrid DFT and stability analysis
  Lukas Wittmann         : regularized MP2, r2SCAN double-hybrids, wr2SCAN        
                                                                         
We gratefully acknowledge several colleagues who have allowed us to      
interface, adapt or use parts of their codes:                            
  Ed Valeev, F. Pavosevic, A. Kumar             : LibInt (2-el integral package), F12 methods 
  Garnet Chan, S. Sharma, J. Yang, R. Olivares  : DMRG                   
  Ulf Ekstrom                                   : XCFun DFT Library      
  Mihaly Kallay                                 : mrcc  (arbitrary order and MRCC methods)
  Frank Weinhold                                : gennbo (NPA and NBO analysis)           
  Simon Mueller                                 : openCOSMO-RS                            
  Christopher J. Cramer and Donald G. Truhlar   : smd solvation model                     
  S Lehtola, MJT Oliveira, MAL Marques          : LibXC Library                           
  Liviu Ungur et al                             : ANISO software                          


 Your calculation uses the libint2 library for the computation of 2-el integrals
 For citations please refer to: http://libint.valeyev.net

 Your ORCA version has been built with support for libXC version: 7.0.0
 For citations please refer to: https://libxc.gitlab.io

 This ORCA versions uses:
   CBLAS   interface :  Fast vector & matrix operations
   LAPACKE interface :  Fast linear algebra routines
   SCALAPACK package :  Parallel linear algebra routines
   Shared memory     :  Shared parallel matrices
   BLAS/LAPACK       :  OpenBLAS 0.3.29  USE64BITINT DYNAMIC_ARCH NO_AFFINITY Cooperlake SINGLE_THREADED
        Core in use  :  Cooperlake
   Copyright (c) 2011-2014, The OpenBLAS Project


  ***********************************
  * Starting time: Tue May 12 11:21:02 2026
  * Host name:     c1-124
  * Process ID:    2095552
  * Working dir.:  /cluster/projects/nn14654k/ylvaos/basis_set_n_funcs/functionals/gga_x_pbe/C4H6/out
  ***********************************

Using LibXC functional ID 101 : Perdew, Burke & Ernzerhof
[ 1]  J. P. Perdew, K. Burke, and M. Ernzerhof.,  Phys. Rev. Lett. 77, 3865 (1996)
[ 2]  J. P. Perdew, K. Burke, and M. Ernzerhof.,  Phys. Rev. Lett. 78, 1396 (1997)
Using LibXC functional ID 101 : Perdew, Burke & Ernzerhof
[ 1]  J. P. Perdew, K. Burke, and M. Ernzerhof.,  Phys. Rev. Lett. 77, 3865 (1996)
[ 2]  J. P. Perdew, K. Burke, and M. Ernzerhof.,  Phys. Rev. Lett. 78, 1396 (1997)
Your calculation utilizes LibXC
by S. Lehtola, C. Steigemann, M. J. T. Oliveira & M. A. L. Marques
Please cite in your paper:
Lehtola, S.; Steigemann, C.; Oliveira, M.J.T.; Marques, M. A. L. Software X, 7, (2018), 1.
   

================================================================================

----- Orbital basis set information -----
Your calculation utilizes the basis: cc-pVQZ 
       H, B-Ne : Obtained from the ccRepo (grant-hill.group.shef.ac.uk/ccrepo) Feb. 2017
                 T. H. Dunning, Jr., J. Chem. Phys. 90, 1007 (1989)
            He : Obtained from the ccRepo (grant-hill.group.shef.ac.uk/ccrepo) Feb. 2017
                 D. E. Woon, T. H. Dunning, Jr., J. Chem. Phys. 100, 2975 (1994)
  Li-Be, Na-Mg : Obtained from the ccRepo (grant-hill.group.shef.ac.uk/ccrepo) Feb. 2017
                 B. P. Prascher, D. E. Woon, K. A. Peterson, T. H. Dunning, Jr., A. K. Wilson, Theor. Chem. Acc. 128, 69 (2011)
         Al-Ar : Obtained from the ccRepo (grant-hill.group.shef.ac.uk/ccrepo) Feb. 2017
                 D. E. Woon, T. H. Dunning, Jr., J. Chem. Phys. 98, 1358 (1993)
            Ca : Obtained from the Peterson Research Group Website (tyr0.chem.wsu.edu/~kipeters) Feb. 2017
                 J. Koput, K. A. Peterson, J. Phys. Chem. 106, 9595 (2002)
         Sc-Zn : Obtained from the ccRepo (grant-hill.group.shef.ac.uk/ccrepo) Feb. 2017
                 N. B. Balabanov, K. A. Peterson, J. Chem. Phys. 123, 064107 (2005)
                 N. B. Balabanov, K. A. Peterson, J. Chem. Phys. 125, 074110 (2006)
         Ga-Kr : Obtained from the ccRepo (grant-hill.group.shef.ac.uk/ccrepo) Feb. 2017
                 A. K. Wilson, D. E. Woon, K. A. Peterson, T. H. Dunning, Jr., J. Chem. Phys. 110, 7667 (1999)

================================================================================
                                        WARNINGS
                       Please study these warnings very carefully!
================================================================================


================================================================================
                                       INPUT FILE
================================================================================
NAME = /cluster/projects/nn14654k/ylvaos/basis_set_n_funcs/functionals/gga_x_pbe/C4H6/inp/C4H6_gga_x_pbe_ccpvqz.inp
|  1> ! dft cc-pVQZ TightSCF
|  2> %pal nprocs 8 end
|  3> 
|  4> %loc
|  5>   LocMet NewBoys
|  6>   Occ true
|  7> end
|  8> 
|  9> %method
| 10>   exchange gga_x_pbe
| 11> end
| 12> 
| 13> %elprop
| 14>   Dipole true
| 15> end
| 16> 
| 17> * xyz 0 1
| 18> C    0.000000000000   0.000000000000   1.632000000000
| 19> C    0.000000000000   0.000000000000   0.300000000000
| 20> C    0.000000000000   0.771000000000  -0.936300000000
| 21> C    0.000000000000  -0.771000000000  -0.936300000000
| 22> H    0.000000000000   0.914000000000   2.222200000000
| 23> H    0.000000000000  -0.914000000000   2.222200000000
| 24> H    0.912300000000   1.305900000000  -1.200300000000
| 25> H   -0.912300000000   1.305900000000  -1.200300000000
| 26> H   -0.912300000000  -1.305900000000  -1.200300000000
| 27> H    0.912300000000  -1.305900000000  -1.200300000000
| 28> *
| 29> 
| 30> 
| 31>                          ****END OF INPUT****
================================================================================

                       ****************************
                       * Single Point Calculation *
                       ****************************

---------------------------------
CARTESIAN COORDINATES (ANGSTROEM)
---------------------------------
  C      0.000000    0.000000    1.632000
  C      0.000000    0.000000    0.300000
  C      0.000000    0.771000   -0.936300
  C      0.000000   -0.771000   -0.936300
  H      0.000000    0.914000    2.222200
  H      0.000000   -0.914000    2.222200
  H      0.912300    1.305900   -1.200300
  H     -0.912300    1.305900   -1.200300
  H     -0.912300   -1.305900   -1.200300
  H      0.912300   -1.305900   -1.200300

----------------------------
CARTESIAN COORDINATES (A.U.)
----------------------------
  NO LB      ZA    FRAG     MASS         X           Y           Z
   0 C     6.0000    0    12.011    0.000000    0.000000    3.084033
   1 C     6.0000    0    12.011    0.000000    0.000000    0.566918
   2 C     6.0000    0    12.011    0.000000    1.456979   -1.769351
   3 C     6.0000    0    12.011    0.000000   -1.456979   -1.769351
   4 H     1.0000    0     1.008    0.000000    1.727210    4.199349
   5 H     1.0000    0     1.008    0.000000   -1.727210    4.199349
   6 H     1.0000    0     1.008    1.723997    2.467793   -2.268238
   7 H     1.0000    0     1.008   -1.723997    2.467793   -2.268238
   8 H     1.0000    0     1.008   -1.723997   -2.467793   -2.268238
   9 H     1.0000    0     1.008    1.723997   -2.467793   -2.268238

--------------------------------
INTERNAL COORDINATES (ANGSTROEM)
--------------------------------
 C      0   0   0     0.000000000000     0.00000000     0.00000000
 C      1   0   0     1.332000000000     0.00000000     0.00000000
 C      2   1   0     1.457010188708   148.05088964     0.00000000
 C      2   1   3     1.457010188708   148.05088964   180.00000000
 H      1   2   3     1.087994503663   122.85166680     0.00000000
 H      1   2   3     1.087994503663   122.85166680   180.00000000
 H      3   2   1     1.090002431190   117.72260444    70.99760541
 H      3   2   1     1.090002431190   117.72260444   289.00239459
 H      4   2   1     1.090002431190   117.72260444    70.99760541
 H      4   2   1     1.090002431190   117.72260444   289.00239459

---------------------------
INTERNAL COORDINATES (A.U.)
---------------------------
 C      0   0   0     0.000000000000     0.00000000     0.00000000
 C      1   0   0     2.517115210383     0.00000000     0.00000000
 C      2   1   0     2.753350230992   148.05088964     0.00000000
 C      2   1   3     2.753350230992   148.05088964   180.00000000
 H      1   2   3     2.056011647134   122.85166680     0.00000000
 H      1   2   3     2.056011647134   122.85166680   180.00000000
 H      3   2   1     2.059806080257   117.72260444    70.99760541
 H      3   2   1     2.059806080257   117.72260444   289.00239459
 H      4   2   1     2.059806080257   117.72260444    70.99760541
 H      4   2   1     2.059806080257   117.72260444   289.00239459

---------------------
BASIS SET INFORMATION
---------------------
There are 2 groups of distinct atoms

 Group   1 Type C   : 21s6p3d2f1g contracted to 5s4p3d2f1g pattern {99111/3111/111/11/1}
 Group   2 Type H   : 6s3p2d1f contracted to 4s3p2d1f pattern {3111/111/11/1}

Atom   0C    basis set group =>   1
Atom   1C    basis set group =>   1
Atom   2C    basis set group =>   1
Atom   3C    basis set group =>   1
Atom   4H    basis set group =>   2
Atom   5H    basis set group =>   2
Atom   6H    basis set group =>   2
Atom   7H    basis set group =>   2
Atom   8H    basis set group =>   2
Atom   9H    basis set group =>   2


           ************************************************************
           *        Program running with 8 parallel MPI-processes     *
           *              working on a common directory               *
           ************************************************************
------------------------------------------------------------------------------
                             ORCA STARTUP CALCULATIONS
------------------------------------------------------------------------------
------------------------------------------------------------------------------
                   ___                                                        
                  /   \      - P O W E R E D   B Y -                         
                 /     \                                                     
                 |  |  |   _    _      __       _____    __    __             
                 |  |  |  | |  | |    /  \     |  _  \  |  |  /  |          
                  \  \/   | |  | |   /    \    | | | |  |  | /  /          
                 / \  \   | |__| |  /  /\  \   | |_| |  |  |/  /          
                |  |  |   |  __  | /  /__\  \  |    /   |      \           
                |  |  |   | |  | | |   __   |  |    \   |  |\   \          
                \     /   | |  | | |  |  |  |  | |\  \  |  | \   \       
                 \___/    |_|  |_| |__|  |__|  |_| \__\ |__|  \__/        
                                                                              
                      - O R C A' S   B I G   F R I E N D -                    
                                      &                                       
                       - I N T E G R A L  F E E D E R -                       
                                                                              
 v1 FN, 2020, v2 2021, v3 2022-2024                                           
------------------------------------------------------------------------------


----------------------
SHARK INTEGRAL PACKAGE
----------------------

Number of atoms                             ...     10
Number of basis functions                   ...    428
Number of shells                            ...    148
Maximum angular momentum                    ...      4
Integral batch strategy                     ... SHARK/LIBINT Hybrid
RI-J (if used) integral strategy            ... SPLIT-RIJ (Revised 2003 algorithm where possible)
Printlevel                                  ...      1
Contraction scheme used                     ... PARTIAL GENERAL contraction
Prescreening option                         ... SCHWARTZ
   Thresh                                   ... 2.500e-11
   Tcut                                     ... 2.500e-12
   Tpresel                                  ... 2.500e-12 
Coulomb Range Separation                    ... NOT USED
Exchange Range Separation                   ... NOT USED
Multipole approximations                    ... NOT USED
Finite Nucleus Model                        ... NOT USED
CABS basis                                  ... NOT available
Auxiliary Coulomb fitting basis             ... NOT available
Auxiliary J/K fitting basis                 ... NOT available
Auxiliary Correlation fitting basis         ... NOT available
Auxiliary 'external' fitting basis          ... NOT available

Checking pre-screening integrals            ... done (  0.0 sec) Dimension = 148
Save PGC pre-screening integrals            ... done (  0.0 sec) Dimension = 148
Calculate PGC overlap integrals             ... done (  0.0 sec) Dimension = 120
Calculating pre-screening integrals (ORCA)  ... done (  0.1 sec) Dimension = 120
Shell pair information
Shell pair cut-off parameter TPreSel        ...   2.5e-12
Total number of shell pairs                 ...     11026
Shell pairs after pre-screening             ...      9566
Total number of primitive shell pairs       ...     14226
Primitive shell pairs kept                  ...     11451
          la=0 lb=0:   1970 shell pairs
          la=1 lb=0:   2150 shell pairs
          la=1 lb=1:    569 shell pairs
          la=2 lb=0:   1500 shell pairs
          la=2 lb=1:    764 shell pairs
          la=2 lb=2:    282 shell pairs
          la=3 lb=0:    874 shell pairs
          la=3 lb=1:    456 shell pairs
          la=3 lb=2:    316 shell pairs
          la=3 lb=3:    101 shell pairs
          la=4 lb=0:    286 shell pairs
          la=4 lb=1:    136 shell pairs
          la=4 lb=2:     96 shell pairs
          la=4 lb=3:     56 shell pairs
          la=4 lb=4:     10 shell pairs

Checking whether 4 symmetric matrices of dimension 428 fit in memory
:Max Core in MB      =   4096.00
 MB in use           =     14.64
 MB left             =   4081.36
 MB needed           =      2.80
 Data fit in memory  = YES
Calculating Nuclear repulsion               ... done (  0.0 sec) ENN=    109.249345578353 Eh

Diagonalization of the overlap matrix:
Smallest eigenvalue                        ... 5.716e-05
Time for diagonalization                   ...    0.034 sec
Threshold for overlap eigenvalues          ... 1.000e-07
Number of eigenvalues below threshold      ... 0
Time for construction of square roots      ...    0.005 sec
Total time needed                          ...    0.042 sec

-------------------
DFT GRID GENERATION
-------------------

General Integration Accuracy     IntAcc      ... 4.388
Radial Grid Type                 RadialGrid  ... OptM3 with GC (2021)
Angular Grid (max. ang.)         AngularGrid ... 4 (Lebedev-302)
Angular grid pruning method      GridPruning ... 4 (adaptive)
Weight generation scheme         WeightScheme... mBecke (2022)
Basis function cutoff            BFCut       ... 1.0000e-11
Integration weight cutoff        WCut        ... 1.0000e-14
Partially contracted basis set               ... off
Rotationally invariant grid construction     ... off
Angular grids for H and He will be reduced by one unit

Total number of grid points                  ...    43682
Total number of batches                      ...      687
Average number of points per batch           ...       63
Average number of grid points per atom       ...     4368

---------------------
SHARK GRID GENERATION
---------------------

General Integration Accuracy     IntAcc      ... 4.388
Radial Grid Type                 RadialGrid  ... OptM3 with GC (2021)
Angular Grid (max. ang.)         AngularGrid ... 4 (Lebedev-302)
Angular grid pruning method      GridPruning ... 4 (adaptive)
Weight generation scheme         WeightScheme... mBecke (2022)
Basis function cutoff            BFCut       ... 1.0000e-11
Integration weight cutoff        WCut        ... 1.0000e-14
Partially contracted basis set               ... off
Rotationally invariant grid construction     ... off
Angular grids for H and He will be reduced by one unit
Steep s-basis detected: some atoms will have their radial
                        grid points doubled.

Total number of grid points                  ...    68153
Total number of batches                      ...     1069
Average number of points per batch           ...       63
Average number of grid points per atom       ...     6815
Grids setup in   0.5 sec
Initializing property integral containers    ... done (  0.0 sec)

SHARK setup successfully completed in   1.5 seconds

Maximum memory used throughout the entire STARTUP-calculation: 40.7 MB


           ************************************************************
           *        Program running with 8 parallel MPI-processes     *
           *              working on a common directory               *
           ************************************************************
-------------------------------------------------------------------------------
                                 ORCA GUESS
                   Start orbitals & Density for SCF / CASSCF
-------------------------------------------------------------------------------

------------
SCF SETTINGS
------------
Hamiltonian:
 Density Functional     Method          .... DFT(GTOs)
  Functional kind                       .... Exchange
  Functional name                       .... Perdew, Burke & Ernzerhof
  Functional family                     .... GGA
  Functional refs                              
    [ 0] J. P. Perdew, K. Burke, and M. Ernzerhof.,  Phys. Rev. Lett. 77, 3865 (1996), doi: 10.1103/PhysRevLett.77.3865
    [ 1] J. P. Perdew, K. Burke, and M. Ernzerhof.,  Phys. Rev. Lett. 78, 1396 (1997), doi: 10.1103/PhysRevLett.78.1396
  Functional external parameters        .... 2
    Parameter  0 _kappa     =  8.040000e-01 : Asymptotic value of the enhancement function
    Parameter  1 _mu        =  2.195150e-01 : Coefficient of the 2nd order expansion
 Correlation Functional Correlation     .... VWN-5
 Gradients option       PostSCFGGA      .... off


General Settings:
 Integral files         IntName         .... /cluster/projects/nn14654k/ylvaos/basis_set_n_funcs/functionals/gga_x_pbe/C4H6/inp/C4H6_gga_x_pbe_ccpvqz
 Hartree-Fock type      HFTyp           .... RHF
 Total Charge           Charge          ....    0
 Multiplicity           Mult            ....    1
 Number of Electrons    NEL             ....   30
 Basis Dimension        Dim             ....  400
 Nuclear Repulsion      ENuc            ....    109.2493455784 Eh

Convergence Acceleration:
 AO-DIIS                CNVDIIS         .... on
   Start iteration      DIISMaxIt       ....    12
   Startup error        DIISStart       ....  0.200000
   # of expansion vecs  DIISMaxEq       ....     5
   Bias factor          DIISBfac        ....   1.050
   Max. coefficient     DIISMaxC        ....  10.000
 MO-DIIS                CNVKDIIS        .... off
 Trust-Rad. Augm. Hess. CNVTRAH         .... auto
   Auto Start mean grad. ratio tolernc. ....  1.125000
   Auto Start start iteration           ....    50
   Auto Start num. interpolation iter.  ....    10
   Max. Number of Micro iterations      ....    24
   Max. Number of Macro iterations      .... Maxiter - #DIIS iter
   Number of Davidson start vectors     ....     2
   Converg. threshold    (grad. norm)   ....   1.000e-05
   Grad. Scal. Fac. for Micro threshold ....   0.100
   Minimum threshold for Micro iter.    ....   1.000e-02
   NR start threshold (gradient norm)   ....   1.000e-04
   Initial trust radius                 ....   0.400
   Minimum AH scaling param. (alpha)    ....   1.000
   Maximum AH scaling param. (alpha)    .... 1000.000
   Quad. conv. algorithm                .... NR
   White noise on init. David. guess    .... on
   Maximum white noise                  ....   0.010
   Pseudo random numbers                .... off
   Inactive MOs                         .... canonical
   Orbital update algorithm             .... Taylor
   Preconditioner                       .... Diag
   Full preconditioner red. dimension   ....   250
 SOSCF                 CNVSOSCF           .... on
   Start iteration     SOSCFMaxIt         ....   150
   Startup grad/error  SOSCFStart         ....  0.003300
   Hessian update      SOSCFHessUp        .... L-BFGS
   Autom. constraints  SOSCFAutoConstrain .... off
 Level Shifting         CNVShift        .... on
   Level shift para.    LevelShift      ....    0.2500
   Turn off err/grad.   ShiftErr        ....    0.0010
 Zerner damping         CNVZerner       .... off
 Static damping         CNVDamp         .... on
   Fraction old density DampFac         ....    0.7000
   Max. Damping (<1)    DampMax         ....    0.9800
   Min. Damping (>=0)   DampMin         ....    0.0000
   Turn off err/grad.   DampErr         ....    0.1000

SCF Procedure:
 Maximum # iterations   MaxIter         ....   125
 SCF integral mode      SCFMode         .... Direct
   Integral package                     .... SHARK and LIBINT hybrid scheme
 Reset frequency        DirectResetFreq ....    20
 Integral Threshold     Thresh          ....  2.500e-11 Eh
 Primitive CutOff       TCut            ....  2.500e-12 Eh

Convergence Tolerance:
 Convergence Check Mode ConvCheckMode   .... Total+1el-Energy
 Convergence forced     ConvForced      .... 0
 Energy Change          TolE            ....  1.000e-08 Eh
 1-El. energy change                    ....  1.000e-05 Eh
 Orbital Gradient       TolG            ....  1.000e-05
 Orbital Rotation angle TolX            ....  1.000e-05
 DIIS Error             TolErr          ....  5.000e-07

------------------------------
INITIAL GUESS: MODEL POTENTIAL
------------------------------
Loading Hartree-Fock densities                     ... done
Calculating cut-offs                               ... done
Initializing the effective Hamiltonian             ... done
Setting up the integral package (SHARK)            ... done
Starting the Coulomb interaction                   ... done (   0.2 sec)
Making the grid                                    ... done (   0.0 sec)
Mapping shells                                     ... done
Starting the XC term evaluation                    ... done (   0.0 sec)
  promolecular density results
     # of electrons  =     29.996209296
     EX              =    -22.197083970
     EC              =     -1.852098693
     EX+EC           =    -24.049182662
Transforming the Hamiltonian                       ... done (   0.0 sec)
Diagonalizing the Hamiltonian                      ... done (   0.0 sec)
Back transforming the eigenvectors                 ... done (   0.0 sec)
Now organizing SCF variables                       ... done
                      ------------------
                      INITIAL GUESS DONE (   0.3 sec)
                      ------------------
             **** ENERGY FILE WAS UPDATED (/cluster/projects/nn14654k/ylvaos/basis_set_n_funcs/functionals/gga_x_pbe/C4H6/inp/C4H6_gga_x_pbe_ccpvqz.en.tmp) ****
Finished Guess after   0.4 sec
Maximum memory used throughout the entire GUESS-calculation: 24.8 MB


           ************************************************************
           *        Program running with 8 parallel MPI-processes     *
           *              working on a common directory               *
           ************************************************************

-------------------------------------------------------------------------------------------
                                      ORCA LEAN-SCF
                              memory conserving SCF solver
-------------------------------------------------------------------------------------------

----------------------------------------D-I-I-S--------------------------------------------
Iteration    Energy (Eh)           Delta-E    RMSDP     MaxDP     DIISErr   Damp  Time(sec)
-------------------------------------------------------------------------------------------
               ***  Starting incremental Fock matrix formation  ***
    1    -156.5993380491934772     0.00e+00  1.77e-03  3.22e-02  1.71e-01  0.700   4.2
    2    -156.6651793635667786    -6.58e-02  1.37e-03  2.13e-02  8.67e-02  0.700   3.8
                               ***Turning on AO-DIIS***
    3    -156.6886860056157502    -2.35e-02  6.40e-04  6.86e-03  2.78e-02  0.700   3.8
    4    -156.7020949729041490    -1.34e-02  1.01e-03  1.30e-02  1.07e-02  0.000   3.6
    5    -156.7325262867806828    -3.04e-02  3.33e-04  4.32e-03  9.37e-03  0.000   3.7
                              *** Initializing SOSCF ***
---------------------------------------S-O-S-C-F--------------------------------------
Iteration    Energy (Eh)           Delta-E    RMSDP     MaxDP     MaxGrad    Time(sec)
--------------------------------------------------------------------------------------
    6    -156.7329532396620948    -4.27e-04  1.75e-04  2.28e-03  2.19e-03     3.5
               *** Restarting incremental Fock matrix formation ***
    7    -156.7329834192708518    -3.02e-05  1.40e-04  1.92e-03  3.60e-04     4.1
    8    -156.7329810074954821     2.41e-06  2.81e-05  5.37e-04  7.32e-04     3.3
    9    -156.7329861208637567    -5.11e-06  3.85e-05  5.13e-04  2.19e-04     3.0
   10    -156.7329851298753738     9.91e-07  1.57e-05  2.30e-04  2.79e-04     3.1
   11    -156.7329866307829320    -1.50e-06  5.39e-06  6.72e-05  2.70e-05     2.9
   12    -156.7329866233374673     7.45e-09  2.03e-06  2.31e-05  3.95e-05     2.6
                 **** Energy Check signals convergence ****

               *****************************************************
               *                     SUCCESS                       *
               *           SCF CONVERGED AFTER  12 CYCLES          *
               *****************************************************

             **** ENERGY FILE WAS UPDATED (/cluster/projects/nn14654k/ylvaos/basis_set_n_funcs/functionals/gga_x_pbe/C4H6/inp/C4H6_gga_x_pbe_ccpvqz.en.tmp) ****

----------------
TOTAL SCF ENERGY
----------------

Total Energy       :       -156.73298664130891 Eh           -4264.92139 eV

Components:
Nuclear Repulsion  :        109.24934557835338 Eh            2972.82583 eV
Electronic Energy  :       -265.98233221966228 Eh           -7237.74722 eV
One Electron Energy:       -424.55825693351608 Eh          -11552.81751 eV
Two Electron Energy:        158.57592471385379 Eh            4315.07029 eV

Virial components:
Potential Energy   :       -312.21219178475792 Eh           -8495.72565 eV
Kinetic Energy     :        155.47920514344901 Eh            4230.80426 eV
Virial Ratio       :          2.00806398191130

DFT components:
N(Alpha)           :       14.999997481201 electrons
N(Beta)            :       14.999997481201 electrons
N(Total)           :       29.999994962401 electrons
E(X)               :      -22.781885743037 Eh       
E(C)               :       -1.885082237308 Eh       
E(XC)              :      -24.666967980345 Eh       

---------------
SCF CONVERGENCE
---------------

  Last Energy change         ...   -7.4455e-09  Tolerance :   1.0000e-08
  Last MAX-Density change    ...    2.3102e-05  Tolerance :   1.0000e-07
  Last RMS-Density change    ...    2.0329e-06  Tolerance :   5.0000e-09
  Last DIIS Error            ...    2.1927e-03  Tolerance :   5.0000e-07
  Last Orbital Gradient      ...    3.9535e-05  Tolerance :   1.0000e-05
  Last Orbital Rotation      ...    3.8274e-05  Tolerance :   1.0000e-05


----------------
ORBITAL ENERGIES
----------------

  NO   OCC          E(Eh)            E(eV) 
   0   2.0000      -9.946122      -270.6478 
   1   2.0000      -9.945715      -270.6367 
   2   2.0000      -9.945710      -270.6365 
   3   2.0000      -9.928829      -270.1772 
   4   2.0000      -0.801869       -21.8200 
   5   2.0000      -0.656385       -17.8611 
   6   2.0000      -0.565262       -15.3816 
   7   2.0000      -0.493193       -13.4205 
   8   2.0000      -0.443428       -12.0663 
   9   2.0000      -0.435187       -11.8420 
  10   2.0000      -0.393992       -10.7211 
  11   2.0000      -0.346940        -9.4407 
  12   2.0000      -0.289296        -7.8721 
  13   2.0000      -0.270142        -7.3509 
  14   2.0000      -0.238482        -6.4894 
  15   0.0000      -0.046781        -1.2730 
  16   0.0000      -0.000178        -0.0048 
  17   0.0000       0.019968         0.5434 
  18   0.0000       0.028641         0.7794 
  19   0.0000       0.051399         1.3986 
  20   0.0000       0.051618         1.4046 
  21   0.0000       0.079269         2.1570 
  22   0.0000       0.089896         2.4462 
  23   0.0000       0.102317         2.7842 
  24   0.0000       0.110771         3.0142 
  25   0.0000       0.154120         4.1938 
*Only the first 10 virtual orbitals were printed.

                    ********************************
                    * MULLIKEN POPULATION ANALYSIS *
                    ********************************

-----------------------
MULLIKEN ATOMIC CHARGES
-----------------------
   0 C :   -0.146627
   1 C :   -0.089124
   2 C :   -0.139099
   3 C :   -0.139098
   4 H :    0.077805
   5 H :    0.077805
   6 H :    0.089584
   7 H :    0.089584
   8 H :    0.089584
   9 H :    0.089584
Sum of atomic charges:   -0.0000000

--------------------------------
MULLIKEN REDUCED ORBITAL CHARGES
--------------------------------
  0 C s       :     3.227062  s :     3.227062
      pz      :     0.866028  p :     2.859831
      px      :     1.025013
      py      :     0.968791
      dz2     :     0.008386  d :     0.052290
      dxz     :     0.016259
      dyz     :     0.020955
      dx2y2   :     0.006530
      dxy     :     0.000161
      f0      :    -0.000114  f :     0.006649
      f+1     :     0.002461
      f-1     :     0.003120
      f+2     :     0.000994
      f-2     :     0.000040
      f+3     :    -0.000061
      f-3     :     0.000208
      g0      :     0.000102  g :     0.000794
      g+1     :     0.000245
      g-1     :     0.000340
      g+2     :     0.000058
      g-2     :    -0.000000
      g+3     :    -0.000002
      g-3     :     0.000044
      g+4     :     0.000007
      g-4     :    -0.000000

  1 C s       :     3.155436  s :     3.155436
      pz      :     0.904972  p :     2.882942
      px      :     0.967957
      py      :     1.010014
      dz2     :     0.014422  d :     0.032728
      dxz     :    -0.002714
      dyz     :     0.009490
      dx2y2   :     0.003477
      dxy     :     0.008053
      f0      :     0.003664  f :     0.017131
      f+1     :     0.005489
      f-1     :     0.003566
      f+2     :     0.002805
      f-2     :     0.001538
      f+3     :     0.000014
      f-3     :     0.000056
      g0      :     0.000200  g :     0.000886
      g+1     :     0.000220
      g-1     :     0.000051
      g+2     :     0.000203
      g-2     :     0.000084
      g+3     :     0.000047
      g-3     :     0.000072
      g+4     :     0.000005
      g-4     :     0.000003

  2 C s       :     3.215103  s :     3.215103
      pz      :     0.991119  p :     2.846883
      px      :     0.996171
      py      :     0.859592
      dz2     :     0.020911  d :     0.065216
      dxz     :     0.001118
      dyz     :     0.011045
      dx2y2   :     0.013221
      dxy     :     0.018921
      f0      :     0.002906  f :     0.010858
      f+1     :     0.000541
      f-1     :     0.001489
      f+2     :     0.001133
      f-2     :     0.001141
      f+3     :     0.001562
      f-3     :     0.002086
      g0      :     0.000082  g :     0.001039
      g+1     :     0.000071
      g-1     :     0.000233
      g+2     :     0.000023
      g-2     :     0.000097
      g+3     :     0.000025
      g-3     :     0.000163
      g+4     :     0.000193
      g-4     :     0.000152

  3 C s       :     3.215103  s :     3.215103
      pz      :     0.991119  p :     2.846883
      px      :     0.996171
      py      :     0.859592
      dz2     :     0.020911  d :     0.065216
      dxz     :     0.001118
      dyz     :     0.011045
      dx2y2   :     0.013220
      dxy     :     0.018921
      f0      :     0.002906  f :     0.010858
      f+1     :     0.000541
      f-1     :     0.001489
      f+2     :     0.001133
      f-2     :     0.001141
      f+3     :     0.001562
      f-3     :     0.002086
      g0      :     0.000082  g :     0.001039
      g+1     :     0.000071
      g-1     :     0.000233
      g+2     :     0.000023
      g-2     :     0.000097
      g+3     :     0.000025
      g-3     :     0.000163
      g+4     :     0.000193
      g-4     :     0.000152

  4 H s       :     0.878346  s :     0.878346
      pz      :     0.010716  p :     0.039702
      px      :     0.017312
      py      :     0.011674
      dz2     :     0.001045  d :     0.004027
      dxz     :     0.000984
      dyz     :     0.000341
      dx2y2   :     0.000023
      dxy     :     0.001635
      f0      :     0.000001  f :     0.000119
      f+1     :     0.000007
      f-1     :     0.000034
      f+2     :    -0.000044
      f-2     :     0.000089
      f+3     :     0.000070
      f-3     :    -0.000038

  5 H s       :     0.878346  s :     0.878346
      pz      :     0.010716  p :     0.039702
      px      :     0.017312
      py      :     0.011674
      dz2     :     0.001045  d :     0.004027
      dxz     :     0.000984
      dyz     :     0.000341
      dx2y2   :     0.000023
      dxy     :     0.001635
      f0      :     0.000001  f :     0.000119
      f+1     :     0.000007
      f-1     :     0.000034
      f+2     :    -0.000044
      f-2     :     0.000089
      f+3     :     0.000070
      f-3     :    -0.000038

  6 H s       :     0.857017  s :     0.857017
      pz      :     0.018290  p :     0.048716
      px      :     0.012836
      py      :     0.017590
      dz2     :     0.000596  d :     0.004588
      dxz     :     0.001291
      dyz     :     0.000834
      dx2y2   :     0.001274
      dxy     :     0.000593
      f0      :     0.000003  f :     0.000095
      f+1     :     0.000021
      f-1     :     0.000024
      f+2     :     0.000016
      f-2     :     0.000023
      f+3     :     0.000066
      f-3     :    -0.000057

  7 H s       :     0.857017  s :     0.857017
      pz      :     0.018290  p :     0.048716
      px      :     0.012836
      py      :     0.017590
      dz2     :     0.000596  d :     0.004588
      dxz     :     0.001291
      dyz     :     0.000834
      dx2y2   :     0.001274
      dxy     :     0.000593
      f0      :     0.000003  f :     0.000095
      f+1     :     0.000021
      f-1     :     0.000024
      f+2     :     0.000016
      f-2     :     0.000023
      f+3     :     0.000066
      f-3     :    -0.000057

  8 H s       :     0.857017  s :     0.857017
      pz      :     0.018290  p :     0.048716
      px      :     0.012836
      py      :     0.017590
      dz2     :     0.000596  d :     0.004588
      dxz     :     0.001291
      dyz     :     0.000834
      dx2y2   :     0.001274
      dxy     :     0.000593
      f0      :     0.000003  f :     0.000095
      f+1     :     0.000021
      f-1     :     0.000024
      f+2     :     0.000016
      f-2     :     0.000023
      f+3     :     0.000066
      f-3     :    -0.000057

  9 H s       :     0.857017  s :     0.857017
      pz      :     0.018290  p :     0.048716
      px      :     0.012836
      py      :     0.017590
      dz2     :     0.000596  d :     0.004588
      dxz     :     0.001291
      dyz     :     0.000834
      dx2y2   :     0.001274
      dxy     :     0.000593
      f0      :     0.000003  f :     0.000095
      f+1     :     0.000021
      f-1     :     0.000024
      f+2     :     0.000016
      f-2     :     0.000023
      f+3     :     0.000066
      f-3     :    -0.000057



                     *******************************
                     * LOEWDIN POPULATION ANALYSIS *
                     *******************************

----------------------
LOEWDIN ATOMIC CHARGES
----------------------
   0 C :    0.247202
   1 C :   -0.086811
   2 C :    0.220638
   3 C :    0.220638
   4 H :   -0.120128
   5 H :   -0.120128
   6 H :   -0.090353
   7 H :   -0.090353
   8 H :   -0.090353
   9 H :   -0.090353

-------------------------------
LOEWDIN REDUCED ORBITAL CHARGES
-------------------------------
  0 C s       :     2.641574  s :     2.641574
      pz      :     0.976277  p :     2.700781
      px      :     0.799354
      py      :     0.925151
      dz2     :     0.080285  d :     0.334561
      dxz     :     0.045454
      dyz     :     0.186310
      dx2y2   :     0.022306
      dxy     :     0.000207
      f0      :     0.015766  f :     0.067299
      f+1     :     0.013634
      f-1     :     0.028029
      f+2     :     0.006011
      f-2     :     0.000145
      f+3     :     0.001187
      f-3     :     0.002527
      g0      :     0.002388  g :     0.008582
      g+1     :     0.001805
      g-1     :     0.003054
      g+2     :     0.000092
      g-2     :     0.000004
      g+3     :     0.000197
      g-3     :     0.000749
      g+4     :     0.000293
      g-4     :     0.000000

  1 C s       :     2.616513  s :     2.616513
      pz      :     1.011625  p :     2.606732
      px      :     0.742899
      py      :     0.852208
      dz2     :     0.213177  d :     0.695459
      dxz     :     0.174706
      dyz     :     0.222687
      dx2y2   :     0.037268
      dxy     :     0.047621
      f0      :     0.052040  f :     0.149393
      f+1     :     0.017886
      f-1     :     0.036619
      f+2     :     0.015464
      f-2     :     0.022767
      f+3     :     0.003799
      f-3     :     0.000816
      g0      :     0.006194  g :     0.018714
      g+1     :     0.002902
      g-1     :     0.004618
      g+2     :     0.001480
      g-2     :     0.002015
      g+3     :     0.000959
      g-3     :     0.000393
      g+4     :     0.000065
      g-4     :     0.000087

  2 C s       :     2.567295  s :     2.567295
      pz      :     0.859338  p :     2.596607
      px      :     0.908587
      py      :     0.828681
      dz2     :     0.089617  d :     0.489986
      dxz     :     0.063091
      dyz     :     0.119618
      dx2y2   :     0.074499
      dxy     :     0.143161
      f0      :     0.028289  f :     0.116648
      f+1     :     0.011181
      f-1     :     0.011256
      f+2     :     0.026781
      f-2     :     0.009234
      f+3     :     0.014931
      f-3     :     0.014976
      g0      :     0.000923  g :     0.008826
      g+1     :     0.000535
      g-1     :     0.002558
      g+2     :     0.000803
      g-2     :     0.000930
      g+3     :     0.000296
      g-3     :     0.001432
      g+4     :     0.000365
      g-4     :     0.000985

  3 C s       :     2.567295  s :     2.567295
      pz      :     0.859338  p :     2.596607
      px      :     0.908587
      py      :     0.828681
      dz2     :     0.089617  d :     0.489986
      dxz     :     0.063091
      dyz     :     0.119618
      dx2y2   :     0.074499
      dxy     :     0.143161
      f0      :     0.028289  f :     0.116648
      f+1     :     0.011181
      f-1     :     0.011256
      f+2     :     0.026781
      f-2     :     0.009234
      f+3     :     0.014931
      f-3     :     0.014976
      g0      :     0.000923  g :     0.008826
      g+1     :     0.000535
      g-1     :     0.002558
      g+2     :     0.000803
      g-2     :     0.000930
      g+3     :     0.000296
      g-3     :     0.001432
      g+4     :     0.000365
      g-4     :     0.000985

  4 H s       :     0.831423  s :     0.831423
      pz      :     0.062091  p :     0.212102
      px      :     0.063863
      py      :     0.086148
      dz2     :     0.015515  d :     0.067338
      dxz     :     0.007965
      dyz     :     0.017007
      dx2y2   :     0.012357
      dxy     :     0.014494
      f0      :     0.000777  f :     0.009265
      f+1     :     0.000083
      f-1     :     0.002922
      f+2     :     0.001613
      f-2     :     0.001630
      f+3     :     0.001183
      f-3     :     0.001057

  5 H s       :     0.831423  s :     0.831423
      pz      :     0.062091  p :     0.212102
      px      :     0.063863
      py      :     0.086148
      dz2     :     0.015515  d :     0.067338
      dxz     :     0.007965
      dyz     :     0.017007
      dx2y2   :     0.012357
      dxy     :     0.014494
      f0      :     0.000777  f :     0.009265
      f+1     :     0.000083
      f-1     :     0.002922
      f+2     :     0.001613
      f-2     :     0.001630
      f+3     :     0.001183
      f-3     :     0.001057

  6 H s       :     0.808926  s :     0.808926
      pz      :     0.064668  p :     0.203818
      px      :     0.081818
      py      :     0.057332
      dz2     :     0.009077  d :     0.068104
      dxz     :     0.016240
      dyz     :     0.007060
      dx2y2   :     0.019880
      dxy     :     0.015847
      f0      :     0.000816  f :     0.009505
      f+1     :     0.001478
      f-1     :     0.000682
      f+2     :     0.000656
      f-2     :     0.001577
      f+3     :     0.002631
      f-3     :     0.001665

  7 H s       :     0.808926  s :     0.808926
      pz      :     0.064668  p :     0.203818
      px      :     0.081818
      py      :     0.057332
      dz2     :     0.009077  d :     0.068104
      dxz     :     0.016240
      dyz     :     0.007060
      dx2y2   :     0.019880
      dxy     :     0.015847
      f0      :     0.000816  f :     0.009505
      f+1     :     0.001478
      f-1     :     0.000682
      f+2     :     0.000656
      f-2     :     0.001577
      f+3     :     0.002631
      f-3     :     0.001665

  8 H s       :     0.808926  s :     0.808926
      pz      :     0.064668  p :     0.203818
      px      :     0.081818
      py      :     0.057332
      dz2     :     0.009077  d :     0.068104
      dxz     :     0.016240
      dyz     :     0.007060
      dx2y2   :     0.019880
      dxy     :     0.015847
      f0      :     0.000816  f :     0.009505
      f+1     :     0.001478
      f-1     :     0.000682
      f+2     :     0.000656
      f-2     :     0.001577
      f+3     :     0.002631
      f-3     :     0.001665

  9 H s       :     0.808926  s :     0.808926
      pz      :     0.064668  p :     0.203818
      px      :     0.081818
      py      :     0.057332
      dz2     :     0.009077  d :     0.068104
      dxz     :     0.016240
      dyz     :     0.007060
      dx2y2   :     0.019880
      dxy     :     0.015847
      f0      :     0.000816  f :     0.009505
      f+1     :     0.001478
      f-1     :     0.000682
      f+2     :     0.000656
      f-2     :     0.001577
      f+3     :     0.002631
      f-3     :     0.001665



                      *****************************
                      * MAYER POPULATION ANALYSIS *
                      *****************************

  NA   - Mulliken gross atomic population
  ZA   - Total nuclear charge
  QA   - Mulliken gross atomic charge
  VA   - Mayer's total valence
  BVA  - Mayer's bonded valence
  FA   - Mayer's free valence

  ATOM       NA         ZA         QA         VA         BVA        FA
  0 C      6.1466     6.0000    -0.1466     3.8493     3.8493    -0.0000
  1 C      6.0891     6.0000    -0.0891     3.8173     3.8173     0.0000
  2 C      6.1391     6.0000    -0.1391     3.8517     3.8517    -0.0000
  3 C      6.1391     6.0000    -0.1391     3.8517     3.8517     0.0000
  4 H      0.9222     1.0000     0.0778     1.0045     1.0045    -0.0000
  5 H      0.9222     1.0000     0.0778     1.0045     1.0045    -0.0000
  6 H      0.9104     1.0000     0.0896     1.0276     1.0276     0.0000
  7 H      0.9104     1.0000     0.0896     1.0276     1.0276    -0.0000
  8 H      0.9104     1.0000     0.0896     1.0276     1.0276     0.0000
  9 H      0.9104     1.0000     0.0896     1.0276     1.0276    -0.0000

  Mayer bond orders larger than 0.100000
B(  0-C ,  1-C ) :   1.8832 B(  0-C ,  4-H ) :   0.9614 B(  0-C ,  5-H ) :   0.9614 
B(  1-C ,  2-C ) :   0.9404 B(  1-C ,  3-C ) :   0.9404 B(  2-C ,  3-C ) :   0.9126 
B(  2-C ,  6-H ) :   0.9730 B(  2-C ,  7-H ) :   0.9730 B(  3-C ,  8-H ) :   0.9730 
B(  3-C ,  9-H ) :   0.9730 

-------
TIMINGS
-------

Total SCF time: 0 days 0 hours 0 min 44 sec 

Total time                  ....      44.397 sec
Sum of individual times     ....      41.995 sec  ( 94.6%)

SCF preparation             ....       0.175 sec  (  0.4%)
Fock matrix formation       ....      41.229 sec  ( 92.9%)
  Startup                   ....       0.011 sec  (  0.0% of F)
  Coulomb formation         ....      42.040 sec  (102.0% of F)
  XC integration            ....       1.412 sec  (  3.4% of F)
    XC Preparation          ....       0.000 sec  (  0.0% of XC)
    Basis function eval.    ....       0.206 sec  ( 14.6% of XC)
    Density eval.           ....       0.284 sec  ( 20.1% of XC)
    XC-Functional eval.     ....       0.025 sec  (  1.7% of XC)
    XC-Potential eval.      ....       0.685 sec  ( 48.6% of XC)
Diagonalization             ....       0.000 sec  (  0.0%)
Density matrix formation    ....       0.063 sec  (  0.1%)
Total Energy calculation    ....       0.024 sec  (  0.1%)
Population analysis         ....       0.026 sec  (  0.1%)
Orbital Transformation      ....       0.055 sec  (  0.1%)
Orbital Orthonormalization  ....       0.000 sec  (  0.0%)
DIIS solution               ....       0.248 sec  (  0.6%)
SOSCF solution              ....       0.175 sec  (  0.4%)
Finished LeanSCF after  44.4 sec

Maximum memory used throughout the entire LEANSCF-calculation: 35.1 MB
------------------------------------------------------------------------------
                           ORCA ORBITAL LOCALIZATION
------------------------------------------------------------------------------

Input orbitals are from                  ... /cluster/projects/nn14654k/ylvaos/basis_set_n_funcs/functionals/gga_x_pbe/C4H6/inp/C4H6_gga_x_pbe_ccpvqz.gbw
Output orbitals are to                   ... /cluster/projects/nn14654k/ylvaos/basis_set_n_funcs/functionals/gga_x_pbe/C4H6/inp/C4H6_gga_x_pbe_ccpvqz.loc
Max. number of iterations                ... 128
Localizations seeded randomly            ... on
Convergence tolerance                    ... 1.000e-06
Threshold for strong local MOs           ... 9.500e-01
Threshold for bond MOs                   ... 8.500e-01
Operator                                 ... 0
Orbital range for localization           ... 4 to 14
Localization criterion                   ... NEW-BOYS
Doing the dipole integrals               ... o.k.
Initial value of the localization sum :    54.581606
ITERATION   0 : L=   83.9730132327 DL=  2.94e+01 (AVERGE_DL)=    0.7310193052 
ITERATION   1 : L=   86.6722965731 DL=  2.70e+00 (AVERGE_DL)=    0.2215352769 
ITERATION   2 : L=   86.6908582433 DL=  1.86e-02 (AVERGE_DL)=    0.0183707624 
ITERATION   3 : L=   86.6909501546 DL=  9.19e-05 (AVERGE_DL)=    0.0012927161 
ITERATION   4 : L=   86.6909509863 DL=  8.32e-07 (AVERGE_DL)=    0.0001229680 
LOCALIZATION SUM CONVERGED


--------------------------------------------------------------------------------
                    LOCALIZED MOLECULAR ORBITAL COMPOSITIONS
--------------------------------------------------------------------------------

The Mulliken populations for each LMO on each atom are computed
The LMO`s will be ordered according to atom index and type
  (A) Strongly localized MO`s have populations of >=0.950 on one atom
  (B) Two center bond orbitals have populations of >=0.850 on two atoms
  (C) Other MO`s are considered to be `delocalized`

FOUND  -   0 strongly local MO`s
       -  11 two center bond MO`s
       -   0 significantly delocalized MO`s

Bond-like localized orbitals:
MO  14:   9H  -   0.456425  and   3C  -   0.557830
MO  13:   8H  -   0.456424  and   3C  -   0.557831
MO  12:   7H  -   0.456425  and   2C  -   0.557830
MO  11:   6H  -   0.456424  and   2C  -   0.557831
MO  10:   5H  -   0.471092  and   0C  -   0.546028
MO   9:   4H  -   0.471092  and   0C  -   0.546029
MO   8:   3C  -   0.501166  and   2C  -   0.501165
MO   7:   3C  -   0.506380  and   1C  -   0.525518
MO   6:   2C  -   0.506381  and   1C  -   0.525518
MO   5:   1C  -   0.525765  and   0C  -   0.488182
MO   4:   1C  -   0.525766  and   0C  -   0.488181
Localized MO's were stored in: /cluster/projects/nn14654k/ylvaos/basis_set_n_funcs/functionals/gga_x_pbe/C4H6/inp/C4H6_gga_x_pbe_ccpvqz.loc

-------------------------   --------------------
FINAL SINGLE POINT ENERGY      -156.732986641309
-------------------------   --------------------



           ************************************************************
           *        Program running with 8 parallel MPI-processes     *
           *              working on a common directory               *
           ************************************************************

------------------------------------------------------------------------------
                              ORCA PROPERTY CALCULATIONS
------------------------------------------------------------------------------

GBWName                                 ... /cluster/projects/nn14654k/ylvaos/basis_set_n_funcs/functionals/gga_x_pbe/C4H6/inp/C4H6_gga_x_pbe_ccpvqz.gbw
Number of atoms                         ...     10
Number of basis functions               ...    428
Max core memory                         ...   4096 MB

Electric properties:
Dipole moment                           ... YES
Quadrupole moment                       ...  NO
Static polarizability (Dipole/Dipole)   ...  NO
Static polarizability (Dipole/Quad.)    ...  NO
Static polarizability (Quad./Quad.)     ...  NO
Static polarizability (Velocity)        ...  NO
Static hyperpolarizability              ...  NO

Atomic electric properties:
Dipole moment                           ...  NO
Quadrupole moment                       ...  NO
Static polarizability                   ...  NO

Choice of electric origin               ... Center of mass
Position of electric origin             ...     0.000000     0.000000     0.012360

General magnetic properties:
Magnetizability                         ...  NO

EPR properties:
g-Tensor (aka g-matrix)                 ...  NO
Zero-Field splitting spin-orbit         ...  NO
Zero-field splitting spin-spin          ...  NO
Hyperfine couplings                     ...  NO (   0 nuclei)
Quadrupole couplings                    ...  NO (   0 nuclei)
Contact density                         ...  NO (   0 nuclei)

NMR properties:
Chemical shifts                         ...  NO (   0 nuclei)
Spin-rotation constants                 ...  NO (   0 nuclei)
Spin-spin couplings                     ...  NO (   0 nuclei,    0 pairs)

Choice of magnetic origin               ... GIAO
Position of magnetic origin             ...     0.000000     0.000000     0.000000

Properties with geometric perturbations:
SCF Hessian                             ...  NO
IR spectrum                             ...  NO
VCD spectrum                            ...  NO
X-ray spectroscopy properties:
SCF XES/XAS/RIXS spectra                ...  NO

SCF SOC stabilization energy            ...  NO
Diagonal Born-Oppenheimer correction    ...  NO

-------------
DIPOLE MOMENT
-------------

Method             : SCF
Type of density    : Electron Density
Multiplicity       :   1
Irrep              :   0
Energy             :  -156.7329866413089121 Eh
Basis              : AO
                                X                 Y                 Z
Electronic contribution:      0.000000003      -0.000000003       0.209535888
Nuclear contribution   :      0.000000000       0.000000000      -0.371559272
                        -----------------------------------------
Total Dipole Moment    :      0.000000003      -0.000000003      -0.162023384
                        -----------------------------------------
Magnitude (a.u.)       :      0.162023384
Magnitude (Debye)      :      0.411830713



--------------------
Rotational spectrum 
--------------------
 
Rotational constants in cm-1:             0.643527             0.230144             0.181788 
Rotational constants in MHz :         19292.450199          6899.535423          5449.866904 

Dipole components along the rotational axes: 
x,y,z [a.u.] :    -0.162023    -0.000000     0.000000 
x,y,z [Debye]:    -0.411831    -0.000000     0.000000 

 

Dipole moment calculation done in   0.0 sec 

Maximum memory used throughout the entire PROP-calculation: 22.1 MB

--------------------------------
SUGGESTED CITATIONS FOR THIS RUN
--------------------------------

Below you find a list of papers that are relevant to this ORCA run
We neither can nor want to force you to cite these papers, but we appreciate if you do
You receive ORCA, which is the product of decades of hard work by many enthusiastic individuals, for free
The only thing we kindly ask in return is that you cite our papers,
We deeply appreciate it, if you show your appreciation for ORCA by not just citing the generic ORCA reference.

Please note that relegating all ORCA citations to the supporting information does *not* help us.
SI sections are not indexed - citations you put there will not count into any citation statistics
But we need these citations in order to attract the funding resources that allow us to do what we are doing

Therefore, if you are a happy ORCA user, please consider citing a few of the papers listed below in the main body of your paper

In addition to the list printed below, the program has created the file /cluster/projects/nn14654k/ylvaos/basis_set_n_funcs/functionals/gga_x_pbe/C4H6/inp/C4H6_gga_x_pbe_ccpvqz.bibtex that contains the list in bibtex format
You can import this file easily into all common literature databanks and citation aid programs

It goes without saying that in many instances, there are alternative algorithms to achieve similar
results as the ones you have gotten from ORCA. It is, of course, also the case that in some instances
ORCA just re-implements algorithms worked out by others. We are fully aware of that and we are also
fully appreciative of our colleagues work. Hence this citation list should not be read as indicating
that the listed papers, which are focused on our own work, are the only ones worth citing. It simply
meant to make it easier for users to cite ORCA specific papers. It is not a substitute for doing your
own literature research and citing the relevant literature in a scientifically appropriate manner.

List of essential papers. We consider these as the minimum necessary citations

  1. Neese, F.
     Software update: the ORCA program system, version 6.0
     WIRES Comput. Molec. Sci. 2025 15(1), e70019
     doi.org/10.1002/wcms.70019

List of papers to cite with high priority. The work reported in these papers was absolutely
necessary for this run to complete.
Our perspective: the developers of density functionals and basis sets usually get cited in chemistry papers
Good! But without the algorithms to do something with them, the functionals or basis sets would not do anything.
Hence, in our opinion, the algorithm design and method developments papers are equally worthy of getting cited

  1. Lehtola, S.; Steigemann, C.; Oliveira, M.; Marques, M.
     Recent developments in Libxc - A comprehensive library of functionals for density functional theory
     Software X 2018 7 , 
     doi.org/10.1016/j.softx.2017.11.002
  2. Neese, F.
     The SHARK Integral Generation and Digestion System
     J. Comp. Chem. 2022 44(3), 381
     doi.org/10.1002/jcc.26942

List of suggested additional citations. These are papers that are important in the 'surrounding' of 
of this run, or papers that preceded the highly important papers. If you like your results we are grateful for a citation.

  1. Neese, F.
     The ORCA program system
     WIRES Comput. Molec. Sci. 2012 2(1), 73-78
     doi.org/10.1002/wcms.81
  2. Neese, F.
     Software update: the ORCA program system, version 4.0
     WIRES Comput. Molec. Sci. 2018 8(1), 1-6
     doi.org/10.1002/wcms.1327
  3. Neese, F.; Wennmohs, F.; Becker, U.; Riplinger, C.
     The ORCA quantum chemistry program package
     J. Chem. Phys. 2020 152(22), 224108
     doi.org/10.1063/5.0004608
  4. Neese, F.
     Software update: The ORCA program system—Version 5.0
     WIRES Comput. Molec. Sci. 2022 12(1), e1606
     doi.org/10.1002/wcms.1606

List of optional additional citations

  1. Neese, F.
     Approximate second-order SCF convergence for spin unrestricted wavefunctions
     Chem. Phys. Lett. 2000 325(1-3), 93-98
     doi.org/10.1016/s0009-2614(00)00662-x

Timings for individual modules:

Sum of individual times          ...       54.650 sec (=   0.911 min)
Startup calculation              ...        4.743 sec (=   0.079 min)   8.7 %
SCF iterations                   ...       48.187 sec (=   0.803 min)  88.2 %
Property calculations            ...        1.692 sec (=   0.028 min)   3.1 %
Orbital localization             ...        0.027 sec (=   0.000 min)   0.1 %
                             ****ORCA TERMINATED NORMALLY****
TOTAL RUN TIME: 0 days 0 hours 0 minutes 58 seconds 897 msec
