
                                 *****************
                                 * O   R   C   A *
                                 *****************

                                            #,                                       
                                            ###                                      
                                            ####                                     
                                            #####                                    
                                            ######                                   
                                           ########,                                 
                                     ,,################,,,,,                         
                               ,,#################################,,                 
                          ,,##########################################,,             
                       ,#########################################, ''#####,          
                    ,#############################################,,   '####,        
                  ,##################################################,,,,####,       
                ,###########''''           ''''###############################       
              ,#####''   ,,,,##########,,,,          '''####'''          '####       
            ,##' ,,,,###########################,,,                        '##       
           ' ,,###''''                  '''############,,,                           
         ,,##''                                '''############,,,,        ,,,,,,###''
      ,#''                                            '''#######################'''  
     '                                                          ''''####''''         
             ,#######,   #######,   ,#######,      ##                                
            ,#'     '#,  ##    ##  ,#'     '#,    #''#        ,####,    ,#,          
            ##       ##  ##   ,#'  ##            #'  '#       #'       ,# #          
            ##       ##  #######   ##           ,######,      #####,      #          
            '#,     ,#'  ##    ##  '#,     ,#' ,#      #,     #,   #      #          
             '#######'   ##     ##  '#######'  #'      '#     '####' #    #          



                #########################################################
                #                        -***-                          #
                #          Department of theory and spectroscopy        #
                #                                                       #
                #                      Frank Neese                      #
                #                                                       #
                #     Directorship, Architecture, Infrastructure        #
                #                    SHARK, DRIVERS                     #
                #        Core code/Algorithms in most modules           #
                #                                                       #
                #        Max Planck Institute fuer Kohlenforschung      #
                #                Kaiser Wilhelm Platz 1                 #
                #                 D-45470 Muelheim/Ruhr                 #
                #                      Germany                          #
                #                                                       #
                #                  All rights reserved                  #
                #                        -***-                          #
                #########################################################


                         Program Version 6.1.1  -  RELEASE   -
                                (GIT: $487d211c$)
                          ($2025-11-21 10:33:24 +0100$)


 With contributions from (in alphabetic order):
[Max-Planck-Institut fuer Kohlenforschung]                               
  Daniel Aravena         : Magnetic Suceptibility                        
  Michael Atanasov       : Ab Initio Ligand Field Theory (pilot matlab implementation)
  Alexander A. Auer      : GIAO ZORA, VPT2 properties, NMR spectrum      
  Ute Becker             : All parallelization in ORCA, NUMFREQ, NUMCALC 
  Giovanni Bistoni       : ED, misc. LED, open-shell LED, HFLD           
  Dmytro Bykov           : pre 5.0 version of the SCF Hessian            
  Marcos Casanova-Páez   : Triplet and SCS-CIS(D). UHF-(DLPNO)-IP/EA/STEOM-CCSD. UHF-CVS-IP/STEOM-CCSD   
  Vijay G. Chilkuri      : MRCI spin determinant printing, contributions to CSF-ICE 
  Pauline Colinet        : FMM embedding                                 
  Dipayan Datta          : RHF DLPNO-CCSD density                        
  Achintya Kumar Dutta   : EOM-CC, STEOM-CC                              
  Nicolas Foglia         : Exact transition moments, OPA infrastructure, MCD improvements    
  Dmitry Ganyushin       : Spin-Orbit,Spin-Spin,Magnetic field MRCI      
  Miquel Garcia-Rates    : C-PCM and meta-GGA Hessian, CCSD/C-PCM, Gaussian charge scheme 
  Tiago L. C. Gouveia    : GS-ROHF, GS-ROCIS                             
  Yang Guo               : DLPNO-NEVPT2, F12-NEVPT2, CIM, IAO-localization        
  Andreas Hansen         : Spin unrestricted coupled pair/coupled cluster methods 
  Ingolf Harden          : AUTO-CI MPn and infrastructure                
  Benjamin Helmich-Paris : MC-RPA, TRAH-(SCF,CASSCF), AVAS, COSX integrals, SCF dyn. polar., MC-PDFT, srDFT 
  Lee Huntington         : MR-EOM, pCC                                   
  Robert Izsak           : Overlap fitted RIJCOSX, COSX-SCS-MP3, EOM     
  Riya Kayal             : Wick's Theorem for AUTO-CI, AUTO-CI UHF-CCSDT 
  Emily Kempfer          : AUTO-CI RHF CISDT and CCSDT, approximate NEVPT4
  Christian Kollmar      : KDIIS, OOCD, Brueckner-CCSD(T), CCSD density, CASPT2, CASPT2-K, improved NEVPT2 
  Axel Koslowski         : Symmetry handling                             
  Simone Kossmann        : meta-GGA functionals, TD-DFT gradient, OOMP2, (MP2 Hessian; deprecated post 5.0) 
  Lucas Lang             : DCDCAS, Hyperfine gauge corrections, ICE-SOC+SSC
  Marvin Lechner         : AUTO-CI (C++ implementation), FIC-MRCC        
  Spencer Leger          : CASSCF response                               
  Dagmar Lenk            : GEPOL surface, SMD, ORCA-2-JSON               
  Dimitrios Liakos       : Extrapolation schemes; Compound Job, Property file
  Dimitrios Manganas     : Further ROCIS development; embedding schemes. LFT, Crystal Embedding 
  Dimitrios Pantazis     : SARC Basis sets                               
  Anastasios Papadopoulos: AUTO-CI, single reference methods and gradients 
  Taras Petrenko         : pre 6.0 DFT Hessian and TD-DFT gradient,  ECA, NRVS 
  Petra Pikulova         : Analytic Raman intensities                    
  Peter Pinski           : DLPNO-MP2, DLPNO-MP2 Gradient                 
  Shashank Vittal Rao    : ES-AILFT, MagRelax                            
  Christoph Reimann      : Effective Core Potentials                     
  Marius Retegan         : Local ZFS, SOC                                
  Christoph Riplinger    : Optimizer, TS searches, QM/MM, DLPNO-CCSD(T), (RO)-DLPNO pert. Triples 
  Michael Roemelt        : Original ROCIS implementation, recursive CI coupling coefficients
  Masaaki Saitow         : Open-shell DLPNO-CCSD energy and density      
  Barbara Sandhoefer     : DKH picture change effects                    
  Yorick L. A. Schmerwitz: GMF and freeze-and-release deltaSCF, NEB S-IDPP initial path                    
  Kantharuban Sivalingam : CASSCF convergence/infrastructure, NEVPT2, NEVPT3, NEVPT4(SD), FIC-MRCI and CEPA variants
  Bernardo de Souza      : ESD, SOC TD-DFT                               
  Georgi L. Stoychev     : AutoAux, RI-MP2 NMR, DLPNO-MP2 response, X2C  
  Van Anh Tran           : RI-MP2 g-tensors                              
  Willem Van den Heuvel  : Paramagnetic NMR                              
  Zikuan Wang            : NOTCH, Electric field optimization            
  Frank Wennmohs         : Technical directorship and infrastructure     
  Hang Xu                : AUTO-CI-Response properties                   
                                                                         
[FACCTs GmbH]                                                            
  Markus Bursch, Nicolas Foglia, Miquel Garcia-Rates, Ingolf Harden, Hagen Neugebauer, Anastasios Papadopoulos, 
  Christoph Riplinger, Bernardo de Souza, Georgi L. Stoychev                                                    
                                                                 
  APM, various basis sets, CI-OPT, improved COSX, DLPNO-Multilevel,           
  DOCKER, DRACO, updates on ESD, Fragmentator, GOAT, IRC, LR-CPCM, L-BFGS, MBIS, meta-GGA TD-DFT gradient, ML-optimized integration grids, 
  MM, NACMEs, nearIR, NEB, NEB-TS, NL-DFT gradient (VV10), 2- and 3-layer-ONIOM, interface openCOSMO-RS, QMMM,   
  Crystal-QMMM, RESP, rigid body optimization, SF, symmetry and pop. for TD-DFT, various functionals, SOLVATOR                                   
                                                                         
[Other institutions]                                                     
  V. Asgeirsson          : NEB                                           
  Christoph Bannwarth    : sTDA-DFT, sTD-DFT, PBEh-3c, B97-3c, D3        
  Giovanni Bistoni       : ETS/NOCV, ADLD/ADEX, COVALED                  
  Martin Brehm           : Molecular dynamics                            
  Ronald Cardenas        : ETS/NOCV                                      
  Martina Colucci        : COVALED                                       
  Sebastian Ehlert       : rSCAN, r2SCAN, r2SCAN-3c, D4, dhf basis sets  
  Marvin Friede          : D4 for Fr, Ra, Ac-Lr                          
  Lars Goerigk           : TD-DFT with DH, B97 family of functionals     
  Stefan Grimme          : VdW corrections, initial TS optimization, DFT functionals, gCP, sTDA/sTD-DF 
  Waldemar Hujo          : DFT-NL                                        
  H. Jonsson             : NEB                                           
  Holger Kruse           : gCP                                           
  Marcel Mueller         : wB97X-3c, vDZP basis set                      
  Hagen Neugebauer       : wr2SCAN, Native XTB                           
  Gianluca Regni         : ADLD/ADEX                                     
  Tobias Risthaus        : pre 6.0 range-separated hybrid DFT and stability analysis
  Lukas Wittmann         : regularized MP2, r2SCAN double-hybrids, wr2SCAN        
                                                                         
We gratefully acknowledge several colleagues who have allowed us to      
interface, adapt or use parts of their codes:                            
  Ed Valeev, F. Pavosevic, A. Kumar             : LibInt (2-el integral package), F12 methods 
  Garnet Chan, S. Sharma, J. Yang, R. Olivares  : DMRG                   
  Ulf Ekstrom                                   : XCFun DFT Library      
  Mihaly Kallay                                 : mrcc  (arbitrary order and MRCC methods)
  Frank Weinhold                                : gennbo (NPA and NBO analysis)           
  Simon Mueller                                 : openCOSMO-RS                            
  Christopher J. Cramer and Donald G. Truhlar   : smd solvation model                     
  S Lehtola, MJT Oliveira, MAL Marques          : LibXC Library                           
  Liviu Ungur et al                             : ANISO software                          


 Your calculation uses the libint2 library for the computation of 2-el integrals
 For citations please refer to: http://libint.valeyev.net

 Your ORCA version has been built with support for libXC version: 7.0.0
 For citations please refer to: https://libxc.gitlab.io

 This ORCA versions uses:
   CBLAS   interface :  Fast vector & matrix operations
   LAPACKE interface :  Fast linear algebra routines
   SCALAPACK package :  Parallel linear algebra routines
   Shared memory     :  Shared parallel matrices
   BLAS/LAPACK       :  OpenBLAS 0.3.29  USE64BITINT DYNAMIC_ARCH NO_AFFINITY Cooperlake SINGLE_THREADED
        Core in use  :  Cooperlake
   Copyright (c) 2011-2014, The OpenBLAS Project


  ***********************************
  * Starting time: Fri May 15 14:02:00 2026
  * Host name:     c1-3
  * Process ID:    403711
  * Working dir.:  /cluster/projects/nn14654k/ylvaos/basis_set_n_funcs/functionals/gga_x_pbe/C4H6/out
  ***********************************

Using LibXC functional ID 101 : Perdew, Burke & Ernzerhof
[ 1]  J. P. Perdew, K. Burke, and M. Ernzerhof.,  Phys. Rev. Lett. 77, 3865 (1996)
[ 2]  J. P. Perdew, K. Burke, and M. Ernzerhof.,  Phys. Rev. Lett. 78, 1396 (1997)
Using LibXC functional ID 101 : Perdew, Burke & Ernzerhof
[ 1]  J. P. Perdew, K. Burke, and M. Ernzerhof.,  Phys. Rev. Lett. 77, 3865 (1996)
[ 2]  J. P. Perdew, K. Burke, and M. Ernzerhof.,  Phys. Rev. Lett. 78, 1396 (1997)
Your calculation utilizes LibXC
by S. Lehtola, C. Steigemann, M. J. T. Oliveira & M. A. L. Marques
Please cite in your paper:
Lehtola, S.; Steigemann, C.; Oliveira, M.J.T.; Marques, M. A. L. Software X, 7, (2018), 1.
   

================================================================================

----- Orbital basis set information -----
Your calculation utilizes the basis: pc-4
   H, C-F              : F. Jensen, J. Chem. Phys. 115, 9113 (2001).
                         F. Jensen, J. Chem. Phys. 116, 7372 (2002).
                         F. Jensen, J. Chem. Phys. 117, 9234 (2002).
   Si-Cl               : F. Jensen, T. Helgaker, J. Chem. Phys. 121, 3463 (2004).
   He-B, Ne-Mg, Al, Ar : F. Jensen, J. Phys. Chem. A 111, 11198 (2007).
   K, Ca, Ga-Kr        : F. Jensen, J. Chem. Phys. 136, 094110 (2012).
   Sc-Zn               : F. Jensen, J. Chem. Phys. 138, 014107 (2013).

================================================================================
                                        WARNINGS
                       Please study these warnings very carefully!
================================================================================


WARNING: The basis set has functions with high angular momentum (Lmax>4).
         We might need to increase small grids for safety reasons and
         in general, DEFGRID3 is recommend for such cases.
  ===> : GRIDX1, TD-DFT and the CP-SCF AngGrids will be increased to at least 2


================================================================================
                                       INPUT FILE
================================================================================
NAME = /cluster/projects/nn14654k/ylvaos/basis_set_n_funcs/functionals/gga_x_pbe/C4H6/inp/C4H6_gga_x_pbe_pc4.inp
|  1> ! dft pc-4 TightSCF
|  2> %pal nprocs 8 end
|  3> 
|  4> %loc
|  5>   LocMet NewBoys
|  6>   Occ true
|  7> end
|  8> 
|  9> %method
| 10>   exchange gga_x_pbe
| 11>   correlation None
| 12> end
| 13> 
| 14> %elprop
| 15>   Dipole true
| 16>   Quadrupole true
| 17> end
| 18> 
| 19> * xyz 0 1
| 20> C    0.000000000000   0.000000000000   1.632000000000
| 21> C    0.000000000000   0.000000000000   0.300000000000
| 22> C    0.000000000000   0.771000000000  -0.936300000000
| 23> C    0.000000000000  -0.771000000000  -0.936300000000
| 24> H    0.000000000000   0.914000000000   2.222200000000
| 25> H    0.000000000000  -0.914000000000   2.222200000000
| 26> H    0.912300000000   1.305900000000  -1.200300000000
| 27> H   -0.912300000000   1.305900000000  -1.200300000000
| 28> H   -0.912300000000  -1.305900000000  -1.200300000000
| 29> H    0.912300000000  -1.305900000000  -1.200300000000
| 30> *
| 31> 
| 32> 
| 33>                          ****END OF INPUT****
================================================================================

                       ****************************
                       * Single Point Calculation *
                       ****************************

---------------------------------
CARTESIAN COORDINATES (ANGSTROEM)
---------------------------------
  C      0.000000    0.000000    1.632000
  C      0.000000    0.000000    0.300000
  C      0.000000    0.771000   -0.936300
  C      0.000000   -0.771000   -0.936300
  H      0.000000    0.914000    2.222200
  H      0.000000   -0.914000    2.222200
  H      0.912300    1.305900   -1.200300
  H     -0.912300    1.305900   -1.200300
  H     -0.912300   -1.305900   -1.200300
  H      0.912300   -1.305900   -1.200300

----------------------------
CARTESIAN COORDINATES (A.U.)
----------------------------
  NO LB      ZA    FRAG     MASS         X           Y           Z
   0 C     6.0000    0    12.011    0.000000    0.000000    3.084033
   1 C     6.0000    0    12.011    0.000000    0.000000    0.566918
   2 C     6.0000    0    12.011    0.000000    1.456979   -1.769351
   3 C     6.0000    0    12.011    0.000000   -1.456979   -1.769351
   4 H     1.0000    0     1.008    0.000000    1.727210    4.199349
   5 H     1.0000    0     1.008    0.000000   -1.727210    4.199349
   6 H     1.0000    0     1.008    1.723997    2.467793   -2.268238
   7 H     1.0000    0     1.008   -1.723997    2.467793   -2.268238
   8 H     1.0000    0     1.008   -1.723997   -2.467793   -2.268238
   9 H     1.0000    0     1.008    1.723997   -2.467793   -2.268238

--------------------------------
INTERNAL COORDINATES (ANGSTROEM)
--------------------------------
 C      0   0   0     0.000000000000     0.00000000     0.00000000
 C      1   0   0     1.332000000000     0.00000000     0.00000000
 C      2   1   0     1.457010188708   148.05088964     0.00000000
 C      2   1   3     1.457010188708   148.05088964   180.00000000
 H      1   2   3     1.087994503663   122.85166680     0.00000000
 H      1   2   3     1.087994503663   122.85166680   180.00000000
 H      3   2   1     1.090002431190   117.72260444    70.99760541
 H      3   2   1     1.090002431190   117.72260444   289.00239459
 H      4   2   1     1.090002431190   117.72260444    70.99760541
 H      4   2   1     1.090002431190   117.72260444   289.00239459

---------------------------
INTERNAL COORDINATES (A.U.)
---------------------------
 C      0   0   0     0.000000000000     0.00000000     0.00000000
 C      1   0   0     2.517115210383     0.00000000     0.00000000
 C      2   1   0     2.753350230992   148.05088964     0.00000000
 C      2   1   3     2.753350230992   148.05088964   180.00000000
 H      1   2   3     2.056011647134   122.85166680     0.00000000
 H      1   2   3     2.056011647134   122.85166680   180.00000000
 H      3   2   1     2.059806080257   117.72260444    70.99760541
 H      3   2   1     2.059806080257   117.72260444   289.00239459
 H      4   2   1     2.059806080257   117.72260444    70.99760541
 H      4   2   1     2.059806080257   117.72260444   289.00239459

---------------------
BASIS SET INFORMATION
---------------------
There are 2 groups of distinct atoms

 Group   1 Type C   : 27s11p6d3f2g1h contracted to 8s7p6d3f2g1h pattern {1110111111/5111111/111111/111/11/1}
 Group   2 Type H   : 11s6p3d2f1g contracted to 7s6p3d2f1g pattern {5111111/111111/111/11/1}

Atom   0C    basis set group =>   1
Atom   1C    basis set group =>   1
Atom   2C    basis set group =>   1
Atom   3C    basis set group =>   1
Atom   4H    basis set group =>   2
Atom   5H    basis set group =>   2
Atom   6H    basis set group =>   2
Atom   7H    basis set group =>   2
Atom   8H    basis set group =>   2
Atom   9H    basis set group =>   2


           ************************************************************
           *        Program running with 8 parallel MPI-processes     *
           *              working on a common directory               *
           ************************************************************
------------------------------------------------------------------------------
                             ORCA STARTUP CALCULATIONS
------------------------------------------------------------------------------
------------------------------------------------------------------------------
                   ___                                                        
                  /   \      - P O W E R E D   B Y -                         
                 /     \                                                     
                 |  |  |   _    _      __       _____    __    __             
                 |  |  |  | |  | |    /  \     |  _  \  |  |  /  |          
                  \  \/   | |  | |   /    \    | | | |  |  | /  /          
                 / \  \   | |__| |  /  /\  \   | |_| |  |  |/  /          
                |  |  |   |  __  | /  /__\  \  |    /   |      \           
                |  |  |   | |  | | |   __   |  |    \   |  |\   \          
                \     /   | |  | | |  |  |  |  | |\  \  |  | \   \       
                 \___/    |_|  |_| |__|  |__|  |_| \__\ |__|  \__/        
                                                                              
                      - O R C A' S   B I G   F R I E N D -                    
                                      &                                       
                       - I N T E G R A L  F E E D E R -                       
                                                                              
 v1 FN, 2020, v2 2021, v3 2022-2024                                           
------------------------------------------------------------------------------


----------------------
SHARK INTEGRAL PACKAGE
----------------------

Number of atoms                             ...     10
Number of basis functions                   ...    814
Number of shells                            ...    222
Maximum angular momentum                    ...      5
Integral batch strategy                     ... SHARK/LIBINT Hybrid
RI-J (if used) integral strategy            ... SPLIT-RIJ (Revised 2003 algorithm where possible)
Printlevel                                  ...      1
Contraction scheme used                     ... SEGMENTED contraction
Prescreening option                         ... SCHWARTZ
   Thresh                                   ... 2.500e-11
   Tcut                                     ... 2.500e-12
   Tpresel                                  ... 2.500e-12 
Coulomb Range Separation                    ... NOT USED
Exchange Range Separation                   ... NOT USED
Multipole approximations                    ... NOT USED
Finite Nucleus Model                        ... NOT USED
CABS basis                                  ... NOT available
Auxiliary Coulomb fitting basis             ... NOT available
Auxiliary J/K fitting basis                 ... NOT available
Auxiliary Correlation fitting basis         ... NOT available
Auxiliary 'external' fitting basis          ... NOT available

Checking pre-screening integrals            ... done (  0.0 sec) Dimension = 222
   => SHARK Basis and OBASIS are compatible. Storing Pre-screening
Shell pair information
Shell pair cut-off parameter TPreSel        ...   2.5e-12
Total number of shell pairs                 ...     24753
Shell pairs after pre-screening             ...     22077
Total number of primitive shell pairs       ...     57791
Primitive shell pairs kept                  ...     41448
          la=0 lb=0:   2472 shell pairs
          la=1 lb=0:   4144 shell pairs
          la=1 lb=1:   1806 shell pairs
          la=2 lb=0:   2854 shell pairs
          la=2 lb=1:   2438 shell pairs
          la=2 lb=2:    866 shell pairs
          la=3 lb=0:   1580 shell pairs
          la=3 lb=1:   1358 shell pairs
          la=3 lb=2:    936 shell pairs
          la=3 lb=3:    274 shell pairs
          la=4 lb=0:    882 shell pairs
          la=4 lb=1:    754 shell pairs
          la=4 lb=2:    520 shell pairs
          la=4 lb=3:    292 shell pairs
          la=4 lb=4:     87 shell pairs
          la=5 lb=0:    270 shell pairs
          la=5 lb=1:    234 shell pairs
          la=5 lb=2:    162 shell pairs
          la=5 lb=3:     90 shell pairs
          la=5 lb=4:     48 shell pairs
          la=5 lb=5:     10 shell pairs

Checking whether 4 symmetric matrices of dimension 814 fit in memory
:Max Core in MB      =   4096.00
 MB in use           =     34.66
 MB left             =   4061.34
 MB needed           =     10.12
 Data fit in memory  = YES
Calculating Nuclear repulsion               ... done (  0.0 sec) ENN=    109.249345578353 Eh

Diagonalization of the overlap matrix:
Smallest eigenvalue                        ... 8.915e-07
Time for diagonalization                   ...    0.058 sec
Threshold for overlap eigenvalues          ... 1.000e-07
Number of eigenvalues below threshold      ... 0

IMPORTANT:
Smallest eigenvalue of S below the DiffSThresh (1.000e-06) while
Thresh>1e-12 and/or TCut>1e-13! In order to avoid SCF convergence issues,
Thresh will be set to at least 1e-12 and TCut to at least 1e-13.
This can be turned off by adding %SCF DiffSThresh -1 END to the input.

Time for construction of square roots      ...    0.033 sec
Total time needed                          ...    0.095 sec

-------------------
DFT GRID GENERATION
-------------------

General Integration Accuracy     IntAcc      ... 4.388
Radial Grid Type                 RadialGrid  ... OptM3 with GC (2021)
Angular Grid (max. ang.)         AngularGrid ... 4 (Lebedev-302)
Angular grid pruning method      GridPruning ... 4 (adaptive)
Weight generation scheme         WeightScheme... mBecke (2022)
Basis function cutoff            BFCut       ... 1.0000e-11
Integration weight cutoff        WCut        ... 1.0000e-14
Partially contracted basis set               ... off
Rotationally invariant grid construction     ... off
Angular grids for H and He will be reduced by one unit
Diffuse basis detected: some atoms will have their outermost
                        angular grid increased by 1.
Core-polarized basis detected: some atoms will have their core
                               angular grid increased.

Total number of grid points                  ...    53104
Total number of batches                      ...      835
Average number of points per batch           ...       63
Average number of grid points per atom       ...     5310
Grids setup in   0.2 sec
Initializing property integral containers    ... done (  0.0 sec)

SHARK setup successfully completed in   0.9 seconds

Maximum memory used throughout the entire STARTUP-calculation: 70.4 MB


           ************************************************************
           *        Program running with 8 parallel MPI-processes     *
           *              working on a common directory               *
           ************************************************************
-------------------------------------------------------------------------------
                                 ORCA GUESS
                   Start orbitals & Density for SCF / CASSCF
-------------------------------------------------------------------------------

------------
SCF SETTINGS
------------
Hamiltonian:
 Density Functional     Method          .... DFT(GTOs)
  Functional kind                       .... Exchange
  Functional name                       .... Perdew, Burke & Ernzerhof
  Functional family                     .... GGA
  Functional refs                              
    [ 0] J. P. Perdew, K. Burke, and M. Ernzerhof.,  Phys. Rev. Lett. 77, 3865 (1996), doi: 10.1103/PhysRevLett.77.3865
    [ 1] J. P. Perdew, K. Burke, and M. Ernzerhof.,  Phys. Rev. Lett. 78, 1396 (1997), doi: 10.1103/PhysRevLett.78.1396
  Functional external parameters        .... 2
    Parameter  0 _kappa     =  8.040000e-01 : Asymptotic value of the enhancement function
    Parameter  1 _mu        =  2.195150e-01 : Coefficient of the 2nd order expansion
 Correlation Functional Correlation     .... No Correlation
 Gradients option       PostSCFGGA      .... off


General Settings:
 Integral files         IntName         .... /cluster/projects/nn14654k/ylvaos/basis_set_n_funcs/functionals/gga_x_pbe/C4H6/inp/C4H6_gga_x_pbe_pc4
 Hartree-Fock type      HFTyp           .... RHF
 Total Charge           Charge          ....    0
 Multiplicity           Mult            ....    1
 Number of Electrons    NEL             ....   30
 Basis Dimension        Dim             ....  814
 Nuclear Repulsion      ENuc            ....    109.2493455784 Eh

Convergence Acceleration:
 AO-DIIS                CNVDIIS         .... on
   Start iteration      DIISMaxIt       ....    12
   Startup error        DIISStart       ....  0.200000
   # of expansion vecs  DIISMaxEq       ....     5
   Bias factor          DIISBfac        ....   1.050
   Max. coefficient     DIISMaxC        ....  10.000
 MO-DIIS                CNVKDIIS        .... off
 Trust-Rad. Augm. Hess. CNVTRAH         .... auto
   Auto Start mean grad. ratio tolernc. ....  1.125000
   Auto Start start iteration           ....    50
   Auto Start num. interpolation iter.  ....    10
   Max. Number of Micro iterations      ....    24
   Max. Number of Macro iterations      .... Maxiter - #DIIS iter
   Number of Davidson start vectors     ....     2
   Converg. threshold    (grad. norm)   ....   1.000e-05
   Grad. Scal. Fac. for Micro threshold ....   0.100
   Minimum threshold for Micro iter.    ....   1.000e-02
   NR start threshold (gradient norm)   ....   1.000e-04
   Initial trust radius                 ....   0.400
   Minimum AH scaling param. (alpha)    ....   1.000
   Maximum AH scaling param. (alpha)    .... 1000.000
   Quad. conv. algorithm                .... NR
   White noise on init. David. guess    .... on
   Maximum white noise                  ....   0.010
   Pseudo random numbers                .... off
   Inactive MOs                         .... canonical
   Orbital update algorithm             .... Taylor
   Preconditioner                       .... Diag
   Full preconditioner red. dimension   ....   250
 SOSCF                 CNVSOSCF           .... on
   Start iteration     SOSCFMaxIt         ....   150
   Startup grad/error  SOSCFStart         ....  0.003300
   Hessian update      SOSCFHessUp        .... L-BFGS
   Autom. constraints  SOSCFAutoConstrain .... off
 Level Shifting         CNVShift        .... on
   Level shift para.    LevelShift      ....    0.2500
   Turn off err/grad.   ShiftErr        ....    0.0010
 Zerner damping         CNVZerner       .... off
 Static damping         CNVDamp         .... on
   Fraction old density DampFac         ....    0.7000
   Max. Damping (<1)    DampMax         ....    0.9800
   Min. Damping (>=0)   DampMin         ....    0.0000
   Turn off err/grad.   DampErr         ....    0.1000

SCF Procedure:
 Maximum # iterations   MaxIter         ....   125
 SCF integral mode      SCFMode         .... Direct
   Integral package                     .... SHARK and LIBINT hybrid scheme
 Reset frequency        DirectResetFreq ....    20
 Integral Threshold     Thresh          ....  1.000e-12 Eh
 Primitive CutOff       TCut            ....  1.000e-13 Eh

Convergence Tolerance:
 Convergence Check Mode ConvCheckMode   .... Total+1el-Energy
 Convergence forced     ConvForced      .... 0
 Energy Change          TolE            ....  1.000e-08 Eh
 1-El. energy change                    ....  1.000e-05 Eh
 Orbital Gradient       TolG            ....  1.000e-05
 Orbital Rotation angle TolX            ....  1.000e-05
 DIIS Error             TolErr          ....  5.000e-07

------------------------------
INITIAL GUESS: MODEL POTENTIAL
------------------------------
Loading Hartree-Fock densities                     ... done
Calculating cut-offs                               ... done
Initializing the effective Hamiltonian             ... done
Setting up the integral package (SHARK)            ... done
Starting the Coulomb interaction                   ... done (   0.1 sec)
Making the grid                                    ... done (   0.1 sec)
Mapping shells                                     ... done
Starting the XC term evaluation                    ... done (   0.1 sec)
  promolecular density results
     # of electrons  =     29.996393201
     EX              =    -22.197086358
     EC              =      0.000000000
     EX+EC           =    -22.197086358
Transforming the Hamiltonian                       ... done (   0.0 sec)
Diagonalizing the Hamiltonian                      ... done (   0.1 sec)
Back transforming the eigenvectors                 ... done (   0.0 sec)
Now organizing SCF variables                       ... done
                      ------------------
                      INITIAL GUESS DONE (   0.4 sec)
                      ------------------
             **** ENERGY FILE WAS UPDATED (/cluster/projects/nn14654k/ylvaos/basis_set_n_funcs/functionals/gga_x_pbe/C4H6/inp/C4H6_gga_x_pbe_pc4.en.tmp) ****
Finished Guess after   0.7 sec
Maximum memory used throughout the entire GUESS-calculation: 68.7 MB


           ************************************************************
           *        Program running with 8 parallel MPI-processes     *
           *              working on a common directory               *
           ************************************************************

-------------------------------------------------------------------------------------------
                                      ORCA LEAN-SCF
                              memory conserving SCF solver
-------------------------------------------------------------------------------------------

----------------------------------------D-I-I-S--------------------------------------------
Iteration    Energy (Eh)           Delta-E    RMSDP     MaxDP     DIISErr   Damp  Time(sec)
-------------------------------------------------------------------------------------------
               ***  Starting incremental Fock matrix formation  ***
    1    -154.7382599409668273     0.00e+00  1.10e-03  4.61e-02  1.71e-01  0.700  63.6
    2    -154.7968164950589198    -5.86e-02  7.86e-04  3.13e-02  8.15e-02  0.700  59.6
                               ***Turning on AO-DIIS***
    3    -154.8173316845279714    -2.05e-02  4.81e-04  1.66e-02  2.35e-02  0.700  58.6
    4    -154.8290261440983500    -1.17e-02  1.08e-03  3.53e-02  1.07e-02  0.000  57.4
    5    -154.8557898148235381    -2.68e-02  1.46e-04  3.59e-03  8.68e-03  0.000  59.6
                              *** Initializing SOSCF ***
---------------------------------------S-O-S-C-F--------------------------------------
Iteration    Energy (Eh)           Delta-E    RMSDP     MaxDP     MaxGrad    Time(sec)
--------------------------------------------------------------------------------------
    6    -154.8561932081558439    -4.03e-04  6.17e-05  1.37e-03  2.47e-03    52.1
               *** Restarting incremental Fock matrix formation ***
    7    -154.8562279531698209    -3.47e-05  4.48e-05  9.29e-04  4.36e-04    62.7
    8    -154.8562282744371146    -3.21e-07  1.15e-05  2.58e-04  4.22e-04    46.9
    9    -154.8562327339871558    -4.46e-06  9.15e-06  2.08e-04  6.05e-05    42.8
   10    -154.8562327547948598    -2.08e-08  1.66e-06  6.68e-05  1.03e-04    40.1
   11    -154.8562328677227242    -1.13e-07  3.96e-06  8.68e-05  5.99e-05    34.3
   12    -154.8562328902468721    -2.25e-08  1.30e-06  3.14e-05  4.30e-05    37.1
   13    -154.8562329187895443    -2.85e-08  1.48e-06  3.28e-05  1.35e-05    32.2
   14    -154.8562329226186307    -3.83e-09  1.11e-06  2.46e-05  6.64e-06    33.0
                 **** Energy Check signals convergence ****

               *****************************************************
               *                     SUCCESS                       *
               *           SCF CONVERGED AFTER  14 CYCLES          *
               *****************************************************

             **** ENERGY FILE WAS UPDATED (/cluster/projects/nn14654k/ylvaos/basis_set_n_funcs/functionals/gga_x_pbe/C4H6/inp/C4H6_gga_x_pbe_pc4.en.tmp) ****

----------------
TOTAL SCF ENERGY
----------------

Total Energy       :       -154.85623292266587 Eh           -4213.85233 eV

Components:
Nuclear Repulsion  :        109.24934557835338 Eh            2972.82583 eV
Electronic Energy  :       -264.10557850101924 Eh           -7186.67815 eV
One Electron Energy:       -424.04709407207201 Eh          -11538.90806 eV
Two Electron Energy:        159.94151557105278 Eh            4352.22990 eV

Virial components:
Potential Energy   :       -310.00219727542640 Eh           -8435.58864 eV
Kinetic Energy     :        155.14596435276053 Eh            4221.73632 eV
Virial Ratio       :          1.99813252357995

DFT components:
N(Alpha)           :       15.000008546518 electrons
N(Beta)            :       15.000008546518 electrons
N(Total)           :       30.000017093036 electrons
E(X)               :      -22.713843317241 Eh       
E(C)               :        0.000000000000 Eh       
E(XC)              :      -22.713843317241 Eh       

---------------
SCF CONVERGENCE
---------------

  Last Energy change         ...    3.8291e-09  Tolerance :   1.0000e-08
  Last MAX-Density change    ...    2.4642e-05  Tolerance :   1.0000e-07
  Last RMS-Density change    ...    1.1110e-06  Tolerance :   5.0000e-09
  Last DIIS Error            ...    2.4728e-03  Tolerance :   5.0000e-07
  Last Orbital Gradient      ...    6.6415e-06  Tolerance :   1.0000e-05
  Last Orbital Rotation      ...    2.0382e-05  Tolerance :   1.0000e-05


----------------
ORBITAL ENERGIES
----------------

  NO   OCC          E(Eh)            E(eV) 
   0   2.0000      -9.880170      -268.8531 
   1   2.0000      -9.879129      -268.8248 
   2   2.0000      -9.879044      -268.8225 
   3   2.0000      -9.862895      -268.3830 
   4   2.0000      -0.755831       -20.5672 
   5   2.0000      -0.609614       -16.5884 
   6   2.0000      -0.518157       -14.0998 
   7   2.0000      -0.446365       -12.1462 
   8   2.0000      -0.397855       -10.8262 
   9   2.0000      -0.388462       -10.5706 
  10   2.0000      -0.347663        -9.4604 
  11   2.0000      -0.300000        -8.1634 
  12   2.0000      -0.244214        -6.6454 
  13   2.0000      -0.224279        -6.1029 
  14   2.0000      -0.194913        -5.3038 
  15   0.0000      -0.013418        -0.3651 
  16   0.0000      -0.006577        -0.1790 
  17   0.0000       0.011007         0.2995 
  18   0.0000       0.013146         0.3577 
  19   0.0000       0.039181         1.0662 
  20   0.0000       0.042485         1.1561 
  21   0.0000       0.043631         1.1873 
  22   0.0000       0.053326         1.4511 
  23   0.0000       0.059755         1.6260 
  24   0.0000       0.066393         1.8067 
  25   0.0000       0.084369         2.2958 
*Only the first 10 virtual orbitals were printed.

                    ********************************
                    * MULLIKEN POPULATION ANALYSIS *
                    ********************************

-----------------------
MULLIKEN ATOMIC CHARGES
-----------------------
   0 C :   -0.204554
   1 C :    0.011917
   2 C :   -0.051606
   3 C :   -0.051676
   4 H :    0.054008
   5 H :    0.054007
   6 H :    0.046972
   7 H :    0.046973
   8 H :    0.046977
   9 H :    0.046981
Sum of atomic charges:   -0.0000000

--------------------------------
MULLIKEN REDUCED ORBITAL CHARGES
--------------------------------
  0 C s       :     3.239535  s :     3.239535
      pz      :     0.899447  p :     2.903048
      px      :     1.000028
      py      :     1.003572
      dz2     :     0.011819  d :     0.054931
      dxz     :     0.014204
      dyz     :     0.024362
      dx2y2   :     0.004453
      dxy     :     0.000092
      f0      :     0.001315  f :     0.006150
      f+1     :     0.001992
      f-1     :     0.001914
      f+2     :     0.001017
      f-2     :     0.000032
      f+3     :    -0.000035
      f-3     :    -0.000083
      g0      :     0.000170  g :     0.000863
      g+1     :     0.000242
      g-1     :     0.000276
      g+2     :     0.000056
      g-2     :    -0.000000
      g+3     :     0.000005
      g-3     :     0.000098
      g+4     :     0.000016
      g-4     :     0.000000
      h0      :     0.000006  h :     0.000027
      h+1     :     0.000008
      h-1     :     0.000007
      h+2     :    -0.000000
      h-2     :    -0.000000
      h+3     :     0.000000
      h-3     :     0.000002
      h+4     :     0.000002
      h-4     :    -0.000000
      h+5     :     0.000000
      h-5     :     0.000001

  1 C s       :     3.048786  s :     3.048786
      pz      :     0.872802  p :     2.849423
      px      :     0.954616
      py      :     1.022005
      dz2     :     0.028430  d :     0.076093
      dxz     :     0.022521
      dyz     :     0.008657
      dx2y2   :     0.003072
      dxy     :     0.013414
      f0      :     0.003774  f :     0.012428
      f+1     :     0.002513
      f-1     :     0.002394
      f+2     :     0.001347
      f-2     :     0.002189
      f+3     :     0.000235
      f-3     :    -0.000024
      g0      :     0.000387  g :     0.001310
      g+1     :     0.000224
      g-1     :     0.000249
      g+2     :     0.000174
      g-2     :     0.000146
      g+3     :     0.000064
      g-3     :     0.000061
      g+4     :     0.000001
      g-4     :     0.000003
      h0      :     0.000008  h :     0.000043
      h+1     :     0.000010
      h-1     :     0.000006
      h+2     :     0.000007
      h-2     :     0.000002
      h+3     :     0.000004
      h-3     :     0.000005
      h+4     :     0.000000
      h-4     :     0.000001
      h+5     :    -0.000000
      h-5     :    -0.000000

  2 C s       :     3.146267  s :     3.146267
      pz      :     0.991036  p :     2.806329
      px      :     0.951218
      py      :     0.864075
      dz2     :     0.016577  d :     0.087817
      dxz     :     0.006975
      dyz     :     0.031466
      dx2y2   :     0.014855
      dxy     :     0.017943
      f0      :     0.002870  f :     0.009886
      f+1     :     0.000914
      f-1     :     0.001448
      f+2     :     0.001603
      f-2     :     0.001430
      f+3     :     0.000204
      f-3     :     0.001417
      g0      :     0.000055  g :     0.001282
      g+1     :     0.000095
      g-1     :     0.000196
      g+2     :     0.000078
      g-2     :     0.000115
      g+3     :     0.000041
      g-3     :     0.000227
      g+4     :     0.000214
      g-4     :     0.000263
      h0      :     0.000002  h :     0.000025
      h+1     :     0.000001
      h-1     :     0.000005
      h+2     :     0.000004
      h-2     :     0.000001
      h+3     :     0.000001
      h-3     :     0.000001
      h+4     :     0.000003
      h-4     :     0.000003
      h+5     :     0.000002
      h-5     :     0.000002

  3 C s       :     3.146325  s :     3.146325
      pz      :     0.991050  p :     2.806338
      px      :     0.951211
      py      :     0.864076
      dz2     :     0.016579  d :     0.087819
      dxz     :     0.006975
      dyz     :     0.031469
      dx2y2   :     0.014854
      dxy     :     0.017943
      f0      :     0.002870  f :     0.009886
      f+1     :     0.000914
      f-1     :     0.001448
      f+2     :     0.001603
      f-2     :     0.001430
      f+3     :     0.000204
      f-3     :     0.001417
      g0      :     0.000055  g :     0.001282
      g+1     :     0.000095
      g-1     :     0.000196
      g+2     :     0.000078
      g-2     :     0.000115
      g+3     :     0.000041
      g-3     :     0.000227
      g+4     :     0.000214
      g-4     :     0.000263
      h0      :     0.000002  h :     0.000025
      h+1     :     0.000001
      h-1     :     0.000005
      h+2     :     0.000004
      h-2     :     0.000001
      h+3     :     0.000001
      h-3     :     0.000001
      h+4     :     0.000003
      h-4     :     0.000003
      h+5     :     0.000002
      h-5     :     0.000002

  4 H s       :     0.890744  s :     0.890744
      pz      :     0.012208  p :     0.049476
      px      :     0.023230
      py      :     0.014037
      dz2     :     0.001380  d :     0.005346
      dxz     :     0.001002
      dyz     :     0.000588
      dx2y2   :     0.000848
      dxy     :     0.001529
      f0      :     0.000030  f :     0.000422
      f+1     :     0.000012
      f-1     :     0.000150
      f+2     :     0.000010
      f-2     :     0.000097
      f+3     :     0.000080
      f-3     :     0.000044
      g0      :     0.000000  g :     0.000005
      g+1     :    -0.000000
      g-1     :     0.000001
      g+2     :     0.000001
      g-2     :     0.000000
      g+3     :     0.000001
      g-3     :     0.000001
      g+4     :     0.000000
      g-4     :     0.000000

  5 H s       :     0.890743  s :     0.890743
      pz      :     0.012208  p :     0.049477
      px      :     0.023230
      py      :     0.014038
      dz2     :     0.001380  d :     0.005346
      dxz     :     0.001002
      dyz     :     0.000588
      dx2y2   :     0.000848
      dxy     :     0.001529
      f0      :     0.000030  f :     0.000422
      f+1     :     0.000012
      f-1     :     0.000150
      f+2     :     0.000010
      f-2     :     0.000097
      f+3     :     0.000080
      f-3     :     0.000044
      g0      :     0.000000  g :     0.000005
      g+1     :    -0.000000
      g-1     :     0.000001
      g+2     :     0.000001
      g-2     :     0.000000
      g+3     :     0.000001
      g-3     :     0.000001
      g+4     :     0.000000
      g-4     :     0.000000

  6 H s       :     0.896117  s :     0.896117
      pz      :     0.020779  p :     0.050799
      px      :     0.013888
      py      :     0.016131
      dz2     :     0.001049  d :     0.005708
      dxz     :     0.001178
      dyz     :     0.000956
      dx2y2   :     0.001763
      dxy     :     0.000761
      f0      :     0.000034  f :     0.000400
      f+1     :     0.000073
      f-1     :     0.000059
      f+2     :     0.000026
      f-2     :     0.000060
      f+3     :     0.000142
      f-3     :     0.000006
      g0      :     0.000000  g :     0.000005
      g+1     :     0.000001
      g-1     :     0.000000
      g+2     :     0.000000
      g-2     :     0.000001
      g+3     :     0.000000
      g-3     :     0.000001
      g+4     :     0.000001
      g-4     :     0.000001

  7 H s       :     0.896117  s :     0.896117
      pz      :     0.020780  p :     0.050798
      px      :     0.013887
      py      :     0.016131
      dz2     :     0.001049  d :     0.005708
      dxz     :     0.001178
      dyz     :     0.000956
      dx2y2   :     0.001763
      dxy     :     0.000761
      f0      :     0.000034  f :     0.000400
      f+1     :     0.000073
      f-1     :     0.000059
      f+2     :     0.000026
      f-2     :     0.000060
      f+3     :     0.000142
      f-3     :     0.000006
      g0      :     0.000000  g :     0.000005
      g+1     :     0.000001
      g-1     :     0.000000
      g+2     :     0.000000
      g-2     :     0.000001
      g+3     :     0.000000
      g-3     :     0.000001
      g+4     :     0.000001
      g-4     :     0.000001

  8 H s       :     0.896116  s :     0.896116
      pz      :     0.020779  p :     0.050795
      px      :     0.013886
      py      :     0.016130
      dz2     :     0.001049  d :     0.005708
      dxz     :     0.001178
      dyz     :     0.000956
      dx2y2   :     0.001763
      dxy     :     0.000761
      f0      :     0.000034  f :     0.000400
      f+1     :     0.000073
      f-1     :     0.000059
      f+2     :     0.000026
      f-2     :     0.000060
      f+3     :     0.000142
      f-3     :     0.000006
      g0      :     0.000000  g :     0.000005
      g+1     :     0.000001
      g-1     :     0.000000
      g+2     :     0.000000
      g-2     :     0.000001
      g+3     :     0.000000
      g-3     :     0.000001
      g+4     :     0.000001
      g-4     :     0.000001

  9 H s       :     0.896112  s :     0.896112
      pz      :     0.020779  p :     0.050795
      px      :     0.013887
      py      :     0.016130
      dz2     :     0.001049  d :     0.005707
      dxz     :     0.001178
      dyz     :     0.000956
      dx2y2   :     0.001763
      dxy     :     0.000761
      f0      :     0.000034  f :     0.000400
      f+1     :     0.000073
      f-1     :     0.000059
      f+2     :     0.000026
      f-2     :     0.000060
      f+3     :     0.000142
      f-3     :     0.000006
      g0      :     0.000000  g :     0.000005
      g+1     :     0.000001
      g-1     :     0.000000
      g+2     :     0.000000
      g-2     :     0.000001
      g+3     :     0.000000
      g-3     :     0.000001
      g+4     :     0.000001
      g-4     :     0.000001



                     *******************************
                     * LOEWDIN POPULATION ANALYSIS *
                     *******************************

----------------------
LOEWDIN ATOMIC CHARGES
----------------------
   0 C :    0.490378
   1 C :   -0.100744
   2 C :    0.362598
   3 C :    0.362598
   4 H :   -0.220518
   5 H :   -0.220518
   6 H :   -0.168448
   7 H :   -0.168448
   8 H :   -0.168448
   9 H :   -0.168448

-------------------------------
LOEWDIN REDUCED ORBITAL CHARGES
-------------------------------
  0 C s       :     2.543306  s :     2.543306
      pz      :     0.927908  p :     2.487110
      px      :     0.683478
      py      :     0.875724
      dz2     :     0.105508  d :     0.392663
      dxz     :     0.053158
      dyz     :     0.206323
      dx2y2   :     0.026866
      dxy     :     0.000808
      f0      :     0.017261  f :     0.076003
      f+1     :     0.017214
      f-1     :     0.030698
      f+2     :     0.006470
      f-2     :     0.000184
      f+3     :     0.000625
      f-3     :     0.003550
      g0      :     0.002684  g :     0.010148
      g+1     :     0.002465
      g-1     :     0.003853
      g+2     :     0.000109
      g-2     :     0.000008
      g+3     :     0.000048
      g-3     :     0.000764
      g+4     :     0.000217
      g-4     :     0.000000
      h0      :     0.000074  h :     0.000394
      h+1     :     0.000109
      h-1     :     0.000170
      h+2     :     0.000003
      h-2     :     0.000000
      h+3     :     0.000002
      h-3     :     0.000015
      h+4     :     0.000011
      h-4     :     0.000000
      h+5     :     0.000004
      h-5     :     0.000005

  1 C s       :     2.537827  s :     2.537827
      pz      :     0.981005  p :     2.467049
      px      :     0.678913
      py      :     0.807131
      dz2     :     0.264896  d :     0.903375
      dxz     :     0.227011
      dyz     :     0.302166
      dx2y2   :     0.042116
      dxy     :     0.067185
      f0      :     0.055188  f :     0.169967
      f+1     :     0.020853
      f-1     :     0.043785
      f+2     :     0.016235
      f-2     :     0.028184
      f+3     :     0.004955
      f-3     :     0.000768
      g0      :     0.007048  g :     0.022005
      g+1     :     0.003485
      g-1     :     0.005219
      g+2     :     0.001654
      g-2     :     0.002661
      g+3     :     0.001258
      g-3     :     0.000454
      g+4     :     0.000084
      g-4     :     0.000143
      h0      :     0.000072  h :     0.000521
      h+1     :     0.000088
      h-1     :     0.000148
      h+2     :     0.000035
      h-2     :     0.000066
      h+3     :     0.000062
      h-3     :     0.000024
      h+4     :     0.000009
      h-4     :     0.000015
      h+5     :     0.000001
      h-5     :     0.000000

  2 C s       :     2.474947  s :     2.474947
      pz      :     0.777603  p :     2.390281
      px      :     0.847628
      py      :     0.765051
      dz2     :     0.123185  d :     0.626936
      dxz     :     0.083055
      dyz     :     0.145583
      dx2y2   :     0.097326
      dxy     :     0.177787
      f0      :     0.030827  f :     0.133264
      f+1     :     0.013363
      f-1     :     0.014593
      f+2     :     0.029743
      f-2     :     0.010396
      f+3     :     0.018401
      f-3     :     0.015941
      g0      :     0.001120  g :     0.011598
      g+1     :     0.000681
      g-1     :     0.003293
      g+2     :     0.000900
      g-2     :     0.001272
      g+3     :     0.000410
      g-3     :     0.001801
      g+4     :     0.000689
      g-4     :     0.001431
      h0      :     0.000012  h :     0.000376
      h+1     :     0.000003
      h-1     :     0.000067
      h+2     :     0.000044
      h-2     :     0.000058
      h+3     :     0.000024
      h-3     :     0.000044
      h+4     :     0.000027
      h-4     :     0.000008
      h+5     :     0.000051
      h-5     :     0.000037

  3 C s       :     2.474947  s :     2.474947
      pz      :     0.777603  p :     2.390281
      px      :     0.847628
      py      :     0.765051
      dz2     :     0.123185  d :     0.626936
      dxz     :     0.083055
      dyz     :     0.145583
      dx2y2   :     0.097326
      dxy     :     0.177787
      f0      :     0.030827  f :     0.133264
      f+1     :     0.013363
      f-1     :     0.014593
      f+2     :     0.029743
      f-2     :     0.010396
      f+3     :     0.018401
      f-3     :     0.015941
      g0      :     0.001120  g :     0.011598
      g+1     :     0.000681
      g-1     :     0.003293
      g+2     :     0.000900
      g-2     :     0.001272
      g+3     :     0.000410
      g-3     :     0.001801
      g+4     :     0.000689
      g-4     :     0.001431
      h0      :     0.000012  h :     0.000376
      h+1     :     0.000003
      h-1     :     0.000067
      h+2     :     0.000044
      h-2     :     0.000058
      h+3     :     0.000024
      h-3     :     0.000044
      h+4     :     0.000027
      h-4     :     0.000008
      h+5     :     0.000051
      h-5     :     0.000037

  4 H s       :     0.757583  s :     0.757583
      pz      :     0.079965  p :     0.277057
      px      :     0.080209
      py      :     0.116883
      dz2     :     0.040916  d :     0.159947
      dxz     :     0.018582
      dyz     :     0.037859
      dx2y2   :     0.032613
      dxy     :     0.029976
      f0      :     0.002050  f :     0.025737
      f+1     :     0.000256
      f-1     :     0.008583
      f+2     :     0.004385
      f-2     :     0.004463
      f+3     :     0.002914
      f-3     :     0.003087
      g0      :     0.000015  g :     0.000194
      g+1     :     0.000001
      g-1     :     0.000039
      g+2     :     0.000040
      g-2     :     0.000009
      g+3     :     0.000041
      g-3     :     0.000016
      g+4     :     0.000011
      g-4     :     0.000022

  5 H s       :     0.757583  s :     0.757583
      pz      :     0.079965  p :     0.277057
      px      :     0.080209
      py      :     0.116883
      dz2     :     0.040916  d :     0.159947
      dxz     :     0.018582
      dyz     :     0.037859
      dx2y2   :     0.032613
      dxy     :     0.029976
      f0      :     0.002050  f :     0.025737
      f+1     :     0.000256
      f-1     :     0.008583
      f+2     :     0.004385
      f-2     :     0.004463
      f+3     :     0.002914
      f-3     :     0.003087
      g0      :     0.000015  g :     0.000194
      g+1     :     0.000001
      g-1     :     0.000039
      g+2     :     0.000040
      g-2     :     0.000009
      g+3     :     0.000041
      g-3     :     0.000016
      g+4     :     0.000011
      g-4     :     0.000022

  6 H s       :     0.724802  s :     0.724802
      pz      :     0.076991  p :     0.257233
      px      :     0.107680
      py      :     0.072562
      dz2     :     0.022281  d :     0.159780
      dxz     :     0.034954
      dyz     :     0.018497
      dx2y2   :     0.051064
      dxy     :     0.032984
      f0      :     0.002118  f :     0.026435
      f+1     :     0.004289
      f-1     :     0.001885
      f+2     :     0.001666
      f-2     :     0.004474
      f+3     :     0.007644
      f-3     :     0.004359
      g0      :     0.000022  g :     0.000198
      g+1     :     0.000014
      g-1     :     0.000006
      g+2     :     0.000009
      g-2     :     0.000031
      g+3     :     0.000014
      g-3     :     0.000027
      g+4     :     0.000049
      g-4     :     0.000027

  7 H s       :     0.724802  s :     0.724802
      pz      :     0.076991  p :     0.257233
      px      :     0.107680
      py      :     0.072562
      dz2     :     0.022281  d :     0.159780
      dxz     :     0.034954
      dyz     :     0.018497
      dx2y2   :     0.051064
      dxy     :     0.032984
      f0      :     0.002118  f :     0.026435
      f+1     :     0.004289
      f-1     :     0.001885
      f+2     :     0.001666
      f-2     :     0.004474
      f+3     :     0.007644
      f-3     :     0.004359
      g0      :     0.000022  g :     0.000198
      g+1     :     0.000014
      g-1     :     0.000006
      g+2     :     0.000009
      g-2     :     0.000031
      g+3     :     0.000014
      g-3     :     0.000027
      g+4     :     0.000049
      g-4     :     0.000027

  8 H s       :     0.724802  s :     0.724802
      pz      :     0.076991  p :     0.257233
      px      :     0.107680
      py      :     0.072562
      dz2     :     0.022281  d :     0.159780
      dxz     :     0.034954
      dyz     :     0.018497
      dx2y2   :     0.051064
      dxy     :     0.032984
      f0      :     0.002118  f :     0.026435
      f+1     :     0.004289
      f-1     :     0.001885
      f+2     :     0.001666
      f-2     :     0.004474
      f+3     :     0.007644
      f-3     :     0.004359
      g0      :     0.000022  g :     0.000198
      g+1     :     0.000014
      g-1     :     0.000006
      g+2     :     0.000009
      g-2     :     0.000031
      g+3     :     0.000014
      g-3     :     0.000027
      g+4     :     0.000049
      g-4     :     0.000027

  9 H s       :     0.724802  s :     0.724802
      pz      :     0.076991  p :     0.257233
      px      :     0.107680
      py      :     0.072562
      dz2     :     0.022281  d :     0.159780
      dxz     :     0.034954
      dyz     :     0.018497
      dx2y2   :     0.051064
      dxy     :     0.032984
      f0      :     0.002118  f :     0.026435
      f+1     :     0.004289
      f-1     :     0.001885
      f+2     :     0.001666
      f-2     :     0.004474
      f+3     :     0.007644
      f-3     :     0.004359
      g0      :     0.000022  g :     0.000198
      g+1     :     0.000014
      g-1     :     0.000006
      g+2     :     0.000009
      g-2     :     0.000031
      g+3     :     0.000014
      g-3     :     0.000027
      g+4     :     0.000049
      g-4     :     0.000027



                      *****************************
                      * MAYER POPULATION ANALYSIS *
                      *****************************

  NA   - Mulliken gross atomic population
  ZA   - Total nuclear charge
  QA   - Mulliken gross atomic charge
  VA   - Mayer's total valence
  BVA  - Mayer's bonded valence
  FA   - Mayer's free valence

  ATOM       NA         ZA         QA         VA         BVA        FA
  0 C      6.2046     6.0000    -0.2046     3.9575     3.9575    -0.0000
  1 C      5.9881     6.0000     0.0119     3.9096     3.9096     0.0000
  2 C      6.0516     6.0000    -0.0516     3.9595     3.9595     0.0000
  3 C      6.0517     6.0000    -0.0517     3.9595     3.9595     0.0000
  4 H      0.9460     1.0000     0.0540     1.0336     1.0336    -0.0000
  5 H      0.9460     1.0000     0.0540     1.0336     1.0336    -0.0000
  6 H      0.9530     1.0000     0.0470     1.0405     1.0405     0.0000
  7 H      0.9530     1.0000     0.0470     1.0405     1.0405     0.0000
  8 H      0.9530     1.0000     0.0470     1.0405     1.0405     0.0000
  9 H      0.9530     1.0000     0.0470     1.0405     1.0405     0.0000

  Mayer bond orders larger than 0.100000
B(  0-C ,  1-C ) :   1.8764 B(  0-C ,  4-H ) :   0.9967 B(  0-C ,  5-H ) :   0.9967 
B(  1-C ,  2-C ) :   0.9799 B(  1-C ,  3-C ) :   0.9799 B(  2-C ,  3-C ) :   0.9579 
B(  2-C ,  6-H ) :   0.9751 B(  2-C ,  7-H ) :   0.9751 B(  3-C ,  8-H ) :   0.9751 
B(  3-C ,  9-H ) :   0.9751 

-------
TIMINGS
-------

Total SCF time: 0 days 0 hours 11 min 52 sec 

Total time                  ....     712.191 sec
Sum of individual times     ....     680.275 sec  ( 95.5%)

SCF preparation             ....       0.182 sec  (  0.0%)
Fock matrix formation       ....     677.313 sec  ( 95.1%)
  Startup                   ....       0.031 sec  (  0.0% of F)
  Coulomb formation         ....     702.895 sec  (103.8% of F)
  XC integration            ....       5.879 sec  (  0.9% of F)
    XC Preparation          ....       0.000 sec  (  0.0% of XC)
    Basis function eval.    ....       0.478 sec  (  8.1% of XC)
    Density eval.           ....       1.302 sec  ( 22.1% of XC)
    XC-Functional eval.     ....       0.025 sec  (  0.4% of XC)
    XC-Potential eval.      ....       3.278 sec  ( 55.8% of XC)
Diagonalization             ....       0.000 sec  (  0.0%)
Density matrix formation    ....       0.218 sec  (  0.0%)
Total Energy calculation    ....       0.087 sec  (  0.0%)
Population analysis         ....       0.100 sec  (  0.0%)
Orbital Transformation      ....       0.290 sec  (  0.0%)
Orbital Orthonormalization  ....       0.000 sec  (  0.0%)
DIIS solution               ....       1.215 sec  (  0.2%)
SOSCF solution              ....       0.869 sec  (  0.1%)
Finished LeanSCF after 712.3 sec

Maximum memory used throughout the entire LEANSCF-calculation: 106.7 MB


           ************************************************************
           *        Program running with 8 parallel MPI-processes     *
           *              working on a common directory               *
           ************************************************************

------------------------------------------------------------------------------
                         ORCA PROPERTY INTEGRAL CALCULATIONS
------------------------------------------------------------------------------

GBWName                                   ... /cluster/projects/nn14654k/ylvaos/basis_set_n_funcs/functionals/gga_x_pbe/C4H6/inp/C4H6_gga_x_pbe_pc4.gbw
Number of atoms                           ...     10
Number of basis functions                 ...    814
Max core memory                           ...   4096 MB

Dipole integrals                          ... YES
Quadrupole integrals                      ... YES
Linear momentum integrals                 ...  NO
Angular momentum integrals                ...  NO
Higher moments length integrals           ...  NO
Higher moments velocity integrals         ...  NO
Kinetic energy integrals                  ...  NO
GIAO right hand sides                     ...  NO
GIAO dipole derivative integrals          ...  NO
SOC integrals                             ...  NO
EPR diamagnetic integrals (GIAO)          ...  NO
EPR gauge integrals                       ...  NO
Field gradient integrals                  ...  NO (   0 nuclei)
Spin-dipole/Fermi contact integrals       ...  NO (   0 nuclei)
Contact density integrals                 ...  NO (   0 nuclei)
Nucleus-orbit integrals                   ...  NO (   0 nuclei)
Geometric perturbations                   ...  NO (  10 nuclei)

Choice of electric origin   ... Center of mass
Position of electric origin ... (  0.0000,  0.0000,  0.0124) 
Choice of magnetic origin   ... GIAO
Position of magnetic origin ... (  0.0000,  0.0000,  0.0000) 

Calculating integrals                     ... Electric Dipole (Length)     done (  0.0 sec)
Calculating integrals                     ... Electric Quadrupole (Length) done (  0.1 sec)

Property integrals calculated in   0.1 sec

Maximum memory used throughout the entire PROPINT-calculation: 81.6 MB
------------------------------------------------------------------------------
                           ORCA ORBITAL LOCALIZATION
------------------------------------------------------------------------------

Input orbitals are from                  ... /cluster/projects/nn14654k/ylvaos/basis_set_n_funcs/functionals/gga_x_pbe/C4H6/inp/C4H6_gga_x_pbe_pc4.gbw
Output orbitals are to                   ... /cluster/projects/nn14654k/ylvaos/basis_set_n_funcs/functionals/gga_x_pbe/C4H6/inp/C4H6_gga_x_pbe_pc4.loc
Max. number of iterations                ... 128
Localizations seeded randomly            ... on
Convergence tolerance                    ... 1.000e-06
Threshold for strong local MOs           ... 9.500e-01
Threshold for bond MOs                   ... 8.500e-01
Operator                                 ... 0
Orbital range for localization           ... 4 to 14
Localization criterion                   ... NEW-BOYS
Doing the dipole integrals               ... o.k.
Initial value of the localization sum :    53.886849
ITERATION   0 : L=   81.4757479101 DL=  2.76e+01 (AVERGE_DL)=    0.7082487890 
ITERATION   1 : L=   86.8091322500 DL=  5.33e+00 (AVERGE_DL)=    0.3114010667 
ITERATION   2 : L=   86.8903348542 DL=  8.12e-02 (AVERGE_DL)=    0.0384240938 
ITERATION   3 : L=   86.8909945305 DL=  6.60e-04 (AVERGE_DL)=    0.0034632520 
ITERATION   4 : L=   86.8910003083 DL=  5.78e-06 (AVERGE_DL)=    0.0003241168 
ITERATION   5 : L=   86.8910003675 DL=  5.91e-08 (AVERGE_DL)=    0.0000327835 
LOCALIZATION SUM CONVERGED


--------------------------------------------------------------------------------
                    LOCALIZED MOLECULAR ORBITAL COMPOSITIONS
--------------------------------------------------------------------------------

The Mulliken populations for each LMO on each atom are computed
The LMO`s will be ordered according to atom index and type
  (A) Strongly localized MO`s have populations of >=0.950 on one atom
  (B) Two center bond orbitals have populations of >=0.850 on two atoms
  (C) Other MO`s are considered to be `delocalized`

FOUND  -   0 strongly local MO`s
       -  11 two center bond MO`s
       -   0 significantly delocalized MO`s

Bond-like localized orbitals:
MO  14:   9H  -   0.477368  and   3C  -   0.532912
MO  13:   8H  -   0.477369  and   3C  -   0.532903
MO  12:   7H  -   0.477367  and   2C  -   0.532910
MO  11:   6H  -   0.477365  and   2C  -   0.532914
MO  10:   5H  -   0.475972  and   0C  -   0.548528
MO   9:   4H  -   0.475972  and   0C  -   0.548529
MO   8:   3C  -   0.488464  and   2C  -   0.488455
MO   7:   3C  -   0.473103  and   1C  -   0.507491
MO   6:   2C  -   0.473083  and   1C  -   0.507494
MO   5:   1C  -   0.507345  and   0C  -   0.493860
MO   4:   1C  -   0.507341  and   0C  -   0.493865
Localized MO's were stored in: /cluster/projects/nn14654k/ylvaos/basis_set_n_funcs/functionals/gga_x_pbe/C4H6/inp/C4H6_gga_x_pbe_pc4.loc

-------------------------   --------------------
FINAL SINGLE POINT ENERGY      -154.856232922666
-------------------------   --------------------



           ************************************************************
           *        Program running with 8 parallel MPI-processes     *
           *              working on a common directory               *
           ************************************************************

------------------------------------------------------------------------------
                              ORCA PROPERTY CALCULATIONS
------------------------------------------------------------------------------

GBWName                                 ... /cluster/projects/nn14654k/ylvaos/basis_set_n_funcs/functionals/gga_x_pbe/C4H6/inp/C4H6_gga_x_pbe_pc4.gbw
Number of atoms                         ...     10
Number of basis functions               ...    814
Max core memory                         ...   4096 MB

Electric properties:
Dipole moment                           ... YES
Quadrupole moment                       ... YES
Static polarizability (Dipole/Dipole)   ...  NO
Static polarizability (Dipole/Quad.)    ...  NO
Static polarizability (Quad./Quad.)     ...  NO
Static polarizability (Velocity)        ...  NO
Static hyperpolarizability              ...  NO

Atomic electric properties:
Dipole moment                           ...  NO
Quadrupole moment                       ...  NO
Static polarizability                   ...  NO

Choice of electric origin               ... Center of mass
Position of electric origin             ...     0.000000     0.000000     0.012360

General magnetic properties:
Magnetizability                         ...  NO

EPR properties:
g-Tensor (aka g-matrix)                 ...  NO
Zero-Field splitting spin-orbit         ...  NO
Zero-field splitting spin-spin          ...  NO
Hyperfine couplings                     ...  NO (   0 nuclei)
Quadrupole couplings                    ...  NO (   0 nuclei)
Contact density                         ...  NO (   0 nuclei)

NMR properties:
Chemical shifts                         ...  NO (   0 nuclei)
Spin-rotation constants                 ...  NO (   0 nuclei)
Spin-spin couplings                     ...  NO (   0 nuclei,    0 pairs)

Choice of magnetic origin               ... GIAO
Position of magnetic origin             ...     0.000000     0.000000     0.000000

Properties with geometric perturbations:
SCF Hessian                             ...  NO
IR spectrum                             ...  NO
VCD spectrum                            ...  NO
X-ray spectroscopy properties:
SCF XES/XAS/RIXS spectra                ...  NO

SCF SOC stabilization energy            ...  NO
Diagonal Born-Oppenheimer correction    ...  NO

-------------
DIPOLE MOMENT
-------------

Method             : SCF
Type of density    : Electron Density
Multiplicity       :   1
Irrep              :   0
Energy             :  -154.8562329226658676 Eh
Basis              : AO
                                X                 Y                 Z
Electronic contribution:     -0.000000010       0.000000003       0.196159503
Nuclear contribution   :      0.000000000       0.000000000      -0.371559272
                        -----------------------------------------
Total Dipole Moment    :     -0.000000010       0.000000003      -0.175399769
                        -----------------------------------------
Magnitude (a.u.)       :      0.175399769
Magnitude (Debye)      :      0.445830781



--------------------
Rotational spectrum 
--------------------
 
Rotational constants in cm-1:             0.643527             0.230144             0.181788 
Rotational constants in MHz :         19292.450199          6899.535423          5449.866904 

Dipole components along the rotational axes: 
x,y,z [a.u.] :    -0.175400     0.000000    -0.000000 
x,y,z [Debye]:    -0.445831     0.000000    -0.000000 

 

Dipole moment calculation done in   0.0 sec 

-----------------
QUADRUPOLE MOMENT
-----------------

Method             : SCF
Type of density    : Electron Density
Multiplicity       :   1
Irrep              :   0
Energy             :  -154.8562329226658676 Eh
Basis              : AO

                XX              YY              ZZ              XY              XZ              YZ
  NUC       11.888664720    55.799971245   152.416444257     0.000000000     0.000000000     0.000000000
  EL       -31.654774936   -74.720808505  -172.094618249    -0.000000005    -0.000000004    -0.000000007
  TOT      -19.766110216   -18.920837260   -19.678173992    -0.000000005    -0.000000004    -0.000000007 (a.u.)
           -26.586094242   -25.449173207   -26.467817013    -0.000000006    -0.000000005    -0.000000009 (Buckingham)

diagonalized tensor:
           -19.766110216   -19.678173992   -18.920837260 (a.u.)
           -26.586094242   -26.467817013   -25.449173207 (Buckingham)
            -1.255198263    -0.900366576     2.155564840 (traceless form in Buckingham)

             1.000000000    -0.000000044    -0.000000005
             0.000000005     0.000000009     1.000000000
             0.000000044     1.000000000    -0.000000009
        
Isotropic quadrupole :   -19.455040489

Quadrupole moment calculation done in   0.0 sec (  0.0 sec for integrals)

Maximum memory used throughout the entire PROP-calculation: 80.3 MB

--------------------------------
SUGGESTED CITATIONS FOR THIS RUN
--------------------------------

Below you find a list of papers that are relevant to this ORCA run
We neither can nor want to force you to cite these papers, but we appreciate if you do
You receive ORCA, which is the product of decades of hard work by many enthusiastic individuals, for free
The only thing we kindly ask in return is that you cite our papers,
We deeply appreciate it, if you show your appreciation for ORCA by not just citing the generic ORCA reference.

Please note that relegating all ORCA citations to the supporting information does *not* help us.
SI sections are not indexed - citations you put there will not count into any citation statistics
But we need these citations in order to attract the funding resources that allow us to do what we are doing

Therefore, if you are a happy ORCA user, please consider citing a few of the papers listed below in the main body of your paper

In addition to the list printed below, the program has created the file /cluster/projects/nn14654k/ylvaos/basis_set_n_funcs/functionals/gga_x_pbe/C4H6/inp/C4H6_gga_x_pbe_pc4.bibtex that contains the list in bibtex format
You can import this file easily into all common literature databanks and citation aid programs

It goes without saying that in many instances, there are alternative algorithms to achieve similar
results as the ones you have gotten from ORCA. It is, of course, also the case that in some instances
ORCA just re-implements algorithms worked out by others. We are fully aware of that and we are also
fully appreciative of our colleagues work. Hence this citation list should not be read as indicating
that the listed papers, which are focused on our own work, are the only ones worth citing. It simply
meant to make it easier for users to cite ORCA specific papers. It is not a substitute for doing your
own literature research and citing the relevant literature in a scientifically appropriate manner.

List of essential papers. We consider these as the minimum necessary citations

  1. Neese, F.
     Software update: the ORCA program system, version 6.0
     WIRES Comput. Molec. Sci. 2025 15(1), e70019
     doi.org/10.1002/wcms.70019

List of papers to cite with high priority. The work reported in these papers was absolutely
necessary for this run to complete.
Our perspective: the developers of density functionals and basis sets usually get cited in chemistry papers
Good! But without the algorithms to do something with them, the functionals or basis sets would not do anything.
Hence, in our opinion, the algorithm design and method developments papers are equally worthy of getting cited

  1. Lehtola, S.; Steigemann, C.; Oliveira, M.; Marques, M.
     Recent developments in Libxc - A comprehensive library of functionals for density functional theory
     Software X 2018 7 , 
     doi.org/10.1016/j.softx.2017.11.002
  2. Neese, F.
     The SHARK Integral Generation and Digestion System
     J. Comp. Chem. 2022 44(3), 381
     doi.org/10.1002/jcc.26942

List of suggested additional citations. These are papers that are important in the 'surrounding' of 
of this run, or papers that preceded the highly important papers. If you like your results we are grateful for a citation.

  1. Neese, F.
     The ORCA program system
     WIRES Comput. Molec. Sci. 2012 2(1), 73-78
     doi.org/10.1002/wcms.81
  2. Neese, F.
     Software update: the ORCA program system, version 4.0
     WIRES Comput. Molec. Sci. 2018 8(1), 1-6
     doi.org/10.1002/wcms.1327
  3. Neese, F.; Wennmohs, F.; Becker, U.; Riplinger, C.
     The ORCA quantum chemistry program package
     J. Chem. Phys. 2020 152(22), 224108
     doi.org/10.1063/5.0004608
  4. Neese, F.
     Software update: The ORCA program system—Version 5.0
     WIRES Comput. Molec. Sci. 2022 12(1), e1606
     doi.org/10.1002/wcms.1606

List of optional additional citations

  1. Neese, F.
     Approximate second-order SCF convergence for spin unrestricted wavefunctions
     Chem. Phys. Lett. 2000 325(1-3), 93-98
     doi.org/10.1016/s0009-2614(00)00662-x

Timings for individual modules:

Sum of individual times          ...      715.466 sec (=  11.924 min)
Startup calculation              ...        1.200 sec (=   0.020 min)   0.2 %
SCF iterations                   ...      713.396 sec (=  11.890 min)  99.7 %
Property integrals               ...        0.448 sec (=   0.007 min)   0.1 %
Property calculations            ...        0.374 sec (=   0.006 min)   0.1 %
Orbital localization             ...        0.048 sec (=   0.001 min)   0.0 %
                             ****ORCA TERMINATED NORMALLY****
TOTAL RUN TIME: 0 days 0 hours 11 minutes 56 seconds 27 msec
