
                                 *****************
                                 * O   R   C   A *
                                 *****************

                                            #,                                       
                                            ###                                      
                                            ####                                     
                                            #####                                    
                                            ######                                   
                                           ########,                                 
                                     ,,################,,,,,                         
                               ,,#################################,,                 
                          ,,##########################################,,             
                       ,#########################################, ''#####,          
                    ,#############################################,,   '####,        
                  ,##################################################,,,,####,       
                ,###########''''           ''''###############################       
              ,#####''   ,,,,##########,,,,          '''####'''          '####       
            ,##' ,,,,###########################,,,                        '##       
           ' ,,###''''                  '''############,,,                           
         ,,##''                                '''############,,,,        ,,,,,,###''
      ,#''                                            '''#######################'''  
     '                                                          ''''####''''         
             ,#######,   #######,   ,#######,      ##                                
            ,#'     '#,  ##    ##  ,#'     '#,    #''#        ,####,    ,#,          
            ##       ##  ##   ,#'  ##            #'  '#       #'       ,# #          
            ##       ##  #######   ##           ,######,      #####,      #          
            '#,     ,#'  ##    ##  '#,     ,#' ,#      #,     #,   #      #          
             '#######'   ##     ##  '#######'  #'      '#     '####' #    #          



                #########################################################
                #                        -***-                          #
                #          Department of theory and spectroscopy        #
                #                                                       #
                #                      Frank Neese                      #
                #                                                       #
                #     Directorship, Architecture, Infrastructure        #
                #                    SHARK, DRIVERS                     #
                #        Core code/Algorithms in most modules           #
                #                                                       #
                #        Max Planck Institute fuer Kohlenforschung      #
                #                Kaiser Wilhelm Platz 1                 #
                #                 D-45470 Muelheim/Ruhr                 #
                #                      Germany                          #
                #                                                       #
                #                  All rights reserved                  #
                #                        -***-                          #
                #########################################################


                         Program Version 6.1.1  -  RELEASE   -
                                (GIT: $487d211c$)
                          ($2025-11-21 10:33:24 +0100$)


 With contributions from (in alphabetic order):
[Max-Planck-Institut fuer Kohlenforschung]                               
  Daniel Aravena         : Magnetic Suceptibility                        
  Michael Atanasov       : Ab Initio Ligand Field Theory (pilot matlab implementation)
  Alexander A. Auer      : GIAO ZORA, VPT2 properties, NMR spectrum      
  Ute Becker             : All parallelization in ORCA, NUMFREQ, NUMCALC 
  Giovanni Bistoni       : ED, misc. LED, open-shell LED, HFLD           
  Dmytro Bykov           : pre 5.0 version of the SCF Hessian            
  Marcos Casanova-Páez   : Triplet and SCS-CIS(D). UHF-(DLPNO)-IP/EA/STEOM-CCSD. UHF-CVS-IP/STEOM-CCSD   
  Vijay G. Chilkuri      : MRCI spin determinant printing, contributions to CSF-ICE 
  Pauline Colinet        : FMM embedding                                 
  Dipayan Datta          : RHF DLPNO-CCSD density                        
  Achintya Kumar Dutta   : EOM-CC, STEOM-CC                              
  Nicolas Foglia         : Exact transition moments, OPA infrastructure, MCD improvements    
  Dmitry Ganyushin       : Spin-Orbit,Spin-Spin,Magnetic field MRCI      
  Miquel Garcia-Rates    : C-PCM and meta-GGA Hessian, CCSD/C-PCM, Gaussian charge scheme 
  Tiago L. C. Gouveia    : GS-ROHF, GS-ROCIS                             
  Yang Guo               : DLPNO-NEVPT2, F12-NEVPT2, CIM, IAO-localization        
  Andreas Hansen         : Spin unrestricted coupled pair/coupled cluster methods 
  Ingolf Harden          : AUTO-CI MPn and infrastructure                
  Benjamin Helmich-Paris : MC-RPA, TRAH-(SCF,CASSCF), AVAS, COSX integrals, SCF dyn. polar., MC-PDFT, srDFT 
  Lee Huntington         : MR-EOM, pCC                                   
  Robert Izsak           : Overlap fitted RIJCOSX, COSX-SCS-MP3, EOM     
  Riya Kayal             : Wick's Theorem for AUTO-CI, AUTO-CI UHF-CCSDT 
  Emily Kempfer          : AUTO-CI RHF CISDT and CCSDT, approximate NEVPT4
  Christian Kollmar      : KDIIS, OOCD, Brueckner-CCSD(T), CCSD density, CASPT2, CASPT2-K, improved NEVPT2 
  Axel Koslowski         : Symmetry handling                             
  Simone Kossmann        : meta-GGA functionals, TD-DFT gradient, OOMP2, (MP2 Hessian; deprecated post 5.0) 
  Lucas Lang             : DCDCAS, Hyperfine gauge corrections, ICE-SOC+SSC
  Marvin Lechner         : AUTO-CI (C++ implementation), FIC-MRCC        
  Spencer Leger          : CASSCF response                               
  Dagmar Lenk            : GEPOL surface, SMD, ORCA-2-JSON               
  Dimitrios Liakos       : Extrapolation schemes; Compound Job, Property file
  Dimitrios Manganas     : Further ROCIS development; embedding schemes. LFT, Crystal Embedding 
  Dimitrios Pantazis     : SARC Basis sets                               
  Anastasios Papadopoulos: AUTO-CI, single reference methods and gradients 
  Taras Petrenko         : pre 6.0 DFT Hessian and TD-DFT gradient,  ECA, NRVS 
  Petra Pikulova         : Analytic Raman intensities                    
  Peter Pinski           : DLPNO-MP2, DLPNO-MP2 Gradient                 
  Shashank Vittal Rao    : ES-AILFT, MagRelax                            
  Christoph Reimann      : Effective Core Potentials                     
  Marius Retegan         : Local ZFS, SOC                                
  Christoph Riplinger    : Optimizer, TS searches, QM/MM, DLPNO-CCSD(T), (RO)-DLPNO pert. Triples 
  Michael Roemelt        : Original ROCIS implementation, recursive CI coupling coefficients
  Masaaki Saitow         : Open-shell DLPNO-CCSD energy and density      
  Barbara Sandhoefer     : DKH picture change effects                    
  Yorick L. A. Schmerwitz: GMF and freeze-and-release deltaSCF, NEB S-IDPP initial path                    
  Kantharuban Sivalingam : CASSCF convergence/infrastructure, NEVPT2, NEVPT3, NEVPT4(SD), FIC-MRCI and CEPA variants
  Bernardo de Souza      : ESD, SOC TD-DFT                               
  Georgi L. Stoychev     : AutoAux, RI-MP2 NMR, DLPNO-MP2 response, X2C  
  Van Anh Tran           : RI-MP2 g-tensors                              
  Willem Van den Heuvel  : Paramagnetic NMR                              
  Zikuan Wang            : NOTCH, Electric field optimization            
  Frank Wennmohs         : Technical directorship and infrastructure     
  Hang Xu                : AUTO-CI-Response properties                   
                                                                         
[FACCTs GmbH]                                                            
  Markus Bursch, Nicolas Foglia, Miquel Garcia-Rates, Ingolf Harden, Hagen Neugebauer, Anastasios Papadopoulos, 
  Christoph Riplinger, Bernardo de Souza, Georgi L. Stoychev                                                    
                                                                 
  APM, various basis sets, CI-OPT, improved COSX, DLPNO-Multilevel,           
  DOCKER, DRACO, updates on ESD, Fragmentator, GOAT, IRC, LR-CPCM, L-BFGS, MBIS, meta-GGA TD-DFT gradient, ML-optimized integration grids, 
  MM, NACMEs, nearIR, NEB, NEB-TS, NL-DFT gradient (VV10), 2- and 3-layer-ONIOM, interface openCOSMO-RS, QMMM,   
  Crystal-QMMM, RESP, rigid body optimization, SF, symmetry and pop. for TD-DFT, various functionals, SOLVATOR                                   
                                                                         
[Other institutions]                                                     
  V. Asgeirsson          : NEB                                           
  Christoph Bannwarth    : sTDA-DFT, sTD-DFT, PBEh-3c, B97-3c, D3        
  Giovanni Bistoni       : ETS/NOCV, ADLD/ADEX, COVALED                  
  Martin Brehm           : Molecular dynamics                            
  Ronald Cardenas        : ETS/NOCV                                      
  Martina Colucci        : COVALED                                       
  Sebastian Ehlert       : rSCAN, r2SCAN, r2SCAN-3c, D4, dhf basis sets  
  Marvin Friede          : D4 for Fr, Ra, Ac-Lr                          
  Lars Goerigk           : TD-DFT with DH, B97 family of functionals     
  Stefan Grimme          : VdW corrections, initial TS optimization, DFT functionals, gCP, sTDA/sTD-DF 
  Waldemar Hujo          : DFT-NL                                        
  H. Jonsson             : NEB                                           
  Holger Kruse           : gCP                                           
  Marcel Mueller         : wB97X-3c, vDZP basis set                      
  Hagen Neugebauer       : wr2SCAN, Native XTB                           
  Gianluca Regni         : ADLD/ADEX                                     
  Tobias Risthaus        : pre 6.0 range-separated hybrid DFT and stability analysis
  Lukas Wittmann         : regularized MP2, r2SCAN double-hybrids, wr2SCAN        
                                                                         
We gratefully acknowledge several colleagues who have allowed us to      
interface, adapt or use parts of their codes:                            
  Ed Valeev, F. Pavosevic, A. Kumar             : LibInt (2-el integral package), F12 methods 
  Garnet Chan, S. Sharma, J. Yang, R. Olivares  : DMRG                   
  Ulf Ekstrom                                   : XCFun DFT Library      
  Mihaly Kallay                                 : mrcc  (arbitrary order and MRCC methods)
  Frank Weinhold                                : gennbo (NPA and NBO analysis)           
  Simon Mueller                                 : openCOSMO-RS                            
  Christopher J. Cramer and Donald G. Truhlar   : smd solvation model                     
  S Lehtola, MJT Oliveira, MAL Marques          : LibXC Library                           
  Liviu Ungur et al                             : ANISO software                          


 Your calculation uses the libint2 library for the computation of 2-el integrals
 For citations please refer to: http://libint.valeyev.net

 Your ORCA version has been built with support for libXC version: 7.0.0
 For citations please refer to: https://libxc.gitlab.io

 This ORCA versions uses:
   CBLAS   interface :  Fast vector & matrix operations
   LAPACKE interface :  Fast linear algebra routines
   SCALAPACK package :  Parallel linear algebra routines
   Shared memory     :  Shared parallel matrices
   BLAS/LAPACK       :  OpenBLAS 0.3.29  USE64BITINT DYNAMIC_ARCH NO_AFFINITY Cooperlake SINGLE_THREADED
        Core in use  :  Cooperlake
   Copyright (c) 2011-2014, The OpenBLAS Project


  ***********************************
  * Starting time: Wed May 20 11:53:45 2026
  * Host name:     c1-87
  * Process ID:    3599913
  * Working dir.:  /cluster/projects/nn14654k/ylvaos/basis_set_n_funcs/functionals/gga_x_pbe/C4H6/out
  ***********************************

Using LibXC functional ID 101 : Perdew, Burke & Ernzerhof
[ 1]  J. P. Perdew, K. Burke, and M. Ernzerhof.,  Phys. Rev. Lett. 77, 3865 (1996)
[ 2]  J. P. Perdew, K. Burke, and M. Ernzerhof.,  Phys. Rev. Lett. 78, 1396 (1997)
Using LibXC functional ID 101 : Perdew, Burke & Ernzerhof
[ 1]  J. P. Perdew, K. Burke, and M. Ernzerhof.,  Phys. Rev. Lett. 77, 3865 (1996)
[ 2]  J. P. Perdew, K. Burke, and M. Ernzerhof.,  Phys. Rev. Lett. 78, 1396 (1997)
Your calculation utilizes LibXC
by S. Lehtola, C. Steigemann, M. J. T. Oliveira & M. A. L. Marques
Please cite in your paper:
Lehtola, S.; Steigemann, C.; Oliveira, M.J.T.; Marques, M. A. L. Software X, 7, (2018), 1.
   

================================================================================

----- Orbital basis set information -----
Your calculation utilizes the basis: pc-2
   H, C-F              : F. Jensen, J. Chem. Phys. 115, 9113 (2001).
                         F. Jensen, J. Chem. Phys. 116, 7372 (2002).
                         F. Jensen, J. Chem. Phys. 117, 9234 (2002).
   Si-Cl               : F. Jensen, T. Helgaker, J. Chem. Phys. 121, 3463 (2004).
   He-B, Ne-Mg, Al, Ar : F. Jensen, J. Phys. Chem. A 111, 11198 (2007).
   K, Ca, Ga-Kr        : F. Jensen, J. Chem. Phys. 136, 094110 (2012).
   Sc-Zn               : F. Jensen, J. Chem. Phys. 138, 014107 (2013).

================================================================================
                                        WARNINGS
                       Please study these warnings very carefully!
================================================================================


================================================================================
                                       INPUT FILE
================================================================================
NAME = /cluster/projects/nn14654k/ylvaos/basis_set_n_funcs/functionals/gga_x_pbe/C4H6/inp/C4H6_gga_x_pbe_pc2.inp
|  1> ! dft pc-2 TightSCF
|  2> %pal nprocs 8 end
|  3> 
|  4> %loc
|  5>   LocMet NewBoys
|  6>   Occ true
|  7> end
|  8> 
|  9> %method
| 10>   exchange gga_x_pbe
| 11>   correlation None
| 12> end
| 13> 
| 14> %elprop
| 15>   Dipole true
| 16>   Quadrupole true
| 17> end
| 18> 
| 19> * xyz 0 1
| 20> C    0.000000000000   0.000000000000   1.632000000000
| 21> C    0.000000000000   0.000000000000   0.300000000000
| 22> C    0.000000000000   0.771000000000  -0.936300000000
| 23> C    0.000000000000  -0.771000000000  -0.936300000000
| 24> H    0.000000000000   0.914000000000   2.222200000000
| 25> H    0.000000000000  -0.914000000000   2.222200000000
| 26> H    0.912300000000   1.305900000000  -1.200300000000
| 27> H   -0.912300000000   1.305900000000  -1.200300000000
| 28> H   -0.912300000000  -1.305900000000  -1.200300000000
| 29> H    0.912300000000  -1.305900000000  -1.200300000000
| 30> *
| 31> 
| 32> 
| 33>                          ****END OF INPUT****
================================================================================

                       ****************************
                       * Single Point Calculation *
                       ****************************

---------------------------------
CARTESIAN COORDINATES (ANGSTROEM)
---------------------------------
  C      0.000000    0.000000    1.632000
  C      0.000000    0.000000    0.300000
  C      0.000000    0.771000   -0.936300
  C      0.000000   -0.771000   -0.936300
  H      0.000000    0.914000    2.222200
  H      0.000000   -0.914000    2.222200
  H      0.912300    1.305900   -1.200300
  H     -0.912300    1.305900   -1.200300
  H     -0.912300   -1.305900   -1.200300
  H      0.912300   -1.305900   -1.200300

----------------------------
CARTESIAN COORDINATES (A.U.)
----------------------------
  NO LB      ZA    FRAG     MASS         X           Y           Z
   0 C     6.0000    0    12.011    0.000000    0.000000    3.084033
   1 C     6.0000    0    12.011    0.000000    0.000000    0.566918
   2 C     6.0000    0    12.011    0.000000    1.456979   -1.769351
   3 C     6.0000    0    12.011    0.000000   -1.456979   -1.769351
   4 H     1.0000    0     1.008    0.000000    1.727210    4.199349
   5 H     1.0000    0     1.008    0.000000   -1.727210    4.199349
   6 H     1.0000    0     1.008    1.723997    2.467793   -2.268238
   7 H     1.0000    0     1.008   -1.723997    2.467793   -2.268238
   8 H     1.0000    0     1.008   -1.723997   -2.467793   -2.268238
   9 H     1.0000    0     1.008    1.723997   -2.467793   -2.268238

--------------------------------
INTERNAL COORDINATES (ANGSTROEM)
--------------------------------
 C      0   0   0     0.000000000000     0.00000000     0.00000000
 C      1   0   0     1.332000000000     0.00000000     0.00000000
 C      2   1   0     1.457010188708   148.05088964     0.00000000
 C      2   1   3     1.457010188708   148.05088964   180.00000000
 H      1   2   3     1.087994503663   122.85166680     0.00000000
 H      1   2   3     1.087994503663   122.85166680   180.00000000
 H      3   2   1     1.090002431190   117.72260444    70.99760541
 H      3   2   1     1.090002431190   117.72260444   289.00239459
 H      4   2   1     1.090002431190   117.72260444    70.99760541
 H      4   2   1     1.090002431190   117.72260444   289.00239459

---------------------------
INTERNAL COORDINATES (A.U.)
---------------------------
 C      0   0   0     0.000000000000     0.00000000     0.00000000
 C      1   0   0     2.517115210383     0.00000000     0.00000000
 C      2   1   0     2.753350230992   148.05088964     0.00000000
 C      2   1   3     2.753350230992   148.05088964   180.00000000
 H      1   2   3     2.056011647134   122.85166680     0.00000000
 H      1   2   3     2.056011647134   122.85166680   180.00000000
 H      3   2   1     2.059806080257   117.72260444    70.99760541
 H      3   2   1     2.059806080257   117.72260444   289.00239459
 H      4   2   1     2.059806080257   117.72260444    70.99760541
 H      4   2   1     2.059806080257   117.72260444   289.00239459

---------------------
BASIS SET INFORMATION
---------------------
There are 2 groups of distinct atoms

 Group   1 Type C   : 16s6p2d1f contracted to 4s3p2d1f pattern {7711/411/11/1}
 Group   2 Type H   : 6s2p1d contracted to 3s2p1d pattern {411/11/1}

Atom   0C    basis set group =>   1
Atom   1C    basis set group =>   1
Atom   2C    basis set group =>   1
Atom   3C    basis set group =>   1
Atom   4H    basis set group =>   2
Atom   5H    basis set group =>   2
Atom   6H    basis set group =>   2
Atom   7H    basis set group =>   2
Atom   8H    basis set group =>   2
Atom   9H    basis set group =>   2


           ************************************************************
           *        Program running with 8 parallel MPI-processes     *
           *              working on a common directory               *
           ************************************************************
------------------------------------------------------------------------------
                             ORCA STARTUP CALCULATIONS
------------------------------------------------------------------------------
------------------------------------------------------------------------------
                   ___                                                        
                  /   \      - P O W E R E D   B Y -                         
                 /     \                                                     
                 |  |  |   _    _      __       _____    __    __             
                 |  |  |  | |  | |    /  \     |  _  \  |  |  /  |          
                  \  \/   | |  | |   /    \    | | | |  |  | /  /          
                 / \  \   | |__| |  /  /\  \   | |_| |  |  |/  /          
                |  |  |   |  __  | /  /__\  \  |    /   |      \           
                |  |  |   | |  | | |   __   |  |    \   |  |\   \          
                \     /   | |  | | |  |  |  |  | |\  \  |  | \   \       
                 \___/    |_|  |_| |__|  |__|  |_| \__\ |__|  \__/        
                                                                              
                      - O R C A' S   B I G   F R I E N D -                    
                                      &                                       
                       - I N T E G R A L  F E E D E R -                       
                                                                              
 v1 FN, 2020, v2 2021, v3 2022-2024                                           
------------------------------------------------------------------------------


----------------------
SHARK INTEGRAL PACKAGE
----------------------

Number of atoms                             ...     10
Number of basis functions                   ...    204
Number of shells                            ...     76
Maximum angular momentum                    ...      3
Integral batch strategy                     ... SHARK/LIBINT Hybrid
RI-J (if used) integral strategy            ... SPLIT-RIJ (Revised 2003 algorithm where possible)
Printlevel                                  ...      1
Contraction scheme used                     ... SEGMENTED contraction
Prescreening option                         ... SCHWARTZ
   Thresh                                   ... 2.500e-11
   Tcut                                     ... 2.500e-12
   Tpresel                                  ... 2.500e-12 
Coulomb Range Separation                    ... NOT USED
Exchange Range Separation                   ... NOT USED
Multipole approximations                    ... NOT USED
Finite Nucleus Model                        ... NOT USED
CABS basis                                  ... NOT available
Auxiliary Coulomb fitting basis             ... NOT available
Auxiliary J/K fitting basis                 ... NOT available
Auxiliary Correlation fitting basis         ... NOT available
Auxiliary 'external' fitting basis          ... NOT available

Checking pre-screening integrals            ... done (  0.0 sec) Dimension = 76
   => SHARK Basis and OBASIS are compatible. Storing Pre-screening
Shell pair information
Shell pair cut-off parameter TPreSel        ...   2.5e-12
Total number of shell pairs                 ...      2926
Shell pairs after pre-screening             ...      2876
Total number of primitive shell pairs       ...     12163
Primitive shell pairs kept                  ...      9202
          la=0 lb=0:    591 shell pairs
          la=1 lb=0:    800 shell pairs
          la=1 lb=1:    292 shell pairs
          la=2 lb=0:    468 shell pairs
          la=2 lb=1:    326 shell pairs
          la=2 lb=2:    101 shell pairs
          la=3 lb=0:    136 shell pairs
          la=3 lb=1:     96 shell pairs
          la=3 lb=2:     56 shell pairs
          la=3 lb=3:     10 shell pairs

Checking whether 4 symmetric matrices of dimension 204 fit in memory
:Max Core in MB      =   4096.00
 MB in use           =      5.91
 MB left             =   4090.09
 MB needed           =      0.64
 Data fit in memory  = YES
Calculating Nuclear repulsion               ... done (  0.0 sec) ENN=    109.249345578353 Eh

Diagonalization of the overlap matrix:
Smallest eigenvalue                        ... 3.658e-04
Time for diagonalization                   ...    0.003 sec
Threshold for overlap eigenvalues          ... 1.000e-07
Number of eigenvalues below threshold      ... 0
Time for construction of square roots      ...    0.003 sec
Total time needed                          ...    0.008 sec

-------------------
DFT GRID GENERATION
-------------------

General Integration Accuracy     IntAcc      ... 4.388
Radial Grid Type                 RadialGrid  ... OptM3 with GC (2021)
Angular Grid (max. ang.)         AngularGrid ... 4 (Lebedev-302)
Angular grid pruning method      GridPruning ... 4 (adaptive)
Weight generation scheme         WeightScheme... mBecke (2022)
Basis function cutoff            BFCut       ... 1.0000e-11
Integration weight cutoff        WCut        ... 1.0000e-14
Partially contracted basis set               ... off
Rotationally invariant grid construction     ... off
Angular grids for H and He will be reduced by one unit

Total number of grid points                  ...    43682
Total number of batches                      ...      687
Average number of points per batch           ...       63
Average number of grid points per atom       ...     4368
Grids setup in   0.1 sec
Initializing property integral containers    ... done (  0.0 sec)

SHARK setup successfully completed in   0.2 seconds

Maximum memory used throughout the entire STARTUP-calculation: 14.8 MB


           ************************************************************
           *        Program running with 8 parallel MPI-processes     *
           *              working on a common directory               *
           ************************************************************
-------------------------------------------------------------------------------
                                 ORCA GUESS
                   Start orbitals & Density for SCF / CASSCF
-------------------------------------------------------------------------------

------------
SCF SETTINGS
------------
Hamiltonian:
 Density Functional     Method          .... DFT(GTOs)
  Functional kind                       .... Exchange
  Functional name                       .... Perdew, Burke & Ernzerhof
  Functional family                     .... GGA
  Functional refs                              
    [ 0] J. P. Perdew, K. Burke, and M. Ernzerhof.,  Phys. Rev. Lett. 77, 3865 (1996), doi: 10.1103/PhysRevLett.77.3865
    [ 1] J. P. Perdew, K. Burke, and M. Ernzerhof.,  Phys. Rev. Lett. 78, 1396 (1997), doi: 10.1103/PhysRevLett.78.1396
  Functional external parameters        .... 2
    Parameter  0 _kappa     =  8.040000e-01 : Asymptotic value of the enhancement function
    Parameter  1 _mu        =  2.195150e-01 : Coefficient of the 2nd order expansion
 Correlation Functional Correlation     .... No Correlation
 Gradients option       PostSCFGGA      .... off


General Settings:
 Integral files         IntName         .... /cluster/projects/nn14654k/ylvaos/basis_set_n_funcs/functionals/gga_x_pbe/C4H6/inp/C4H6_gga_x_pbe_pc2
 Hartree-Fock type      HFTyp           .... RHF
 Total Charge           Charge          ....    0
 Multiplicity           Mult            ....    1
 Number of Electrons    NEL             ....   30
 Basis Dimension        Dim             ....  204
 Nuclear Repulsion      ENuc            ....    109.2493455784 Eh

Convergence Acceleration:
 AO-DIIS                CNVDIIS         .... on
   Start iteration      DIISMaxIt       ....    12
   Startup error        DIISStart       ....  0.200000
   # of expansion vecs  DIISMaxEq       ....     5
   Bias factor          DIISBfac        ....   1.050
   Max. coefficient     DIISMaxC        ....  10.000
 MO-DIIS                CNVKDIIS        .... off
 Trust-Rad. Augm. Hess. CNVTRAH         .... auto
   Auto Start mean grad. ratio tolernc. ....  1.125000
   Auto Start start iteration           ....    50
   Auto Start num. interpolation iter.  ....    10
   Max. Number of Micro iterations      ....    24
   Max. Number of Macro iterations      .... Maxiter - #DIIS iter
   Number of Davidson start vectors     ....     2
   Converg. threshold    (grad. norm)   ....   1.000e-05
   Grad. Scal. Fac. for Micro threshold ....   0.100
   Minimum threshold for Micro iter.    ....   1.000e-02
   NR start threshold (gradient norm)   ....   1.000e-04
   Initial trust radius                 ....   0.400
   Minimum AH scaling param. (alpha)    ....   1.000
   Maximum AH scaling param. (alpha)    .... 1000.000
   Quad. conv. algorithm                .... NR
   White noise on init. David. guess    .... on
   Maximum white noise                  ....   0.010
   Pseudo random numbers                .... off
   Inactive MOs                         .... canonical
   Orbital update algorithm             .... Taylor
   Preconditioner                       .... Diag
   Full preconditioner red. dimension   ....   250
 SOSCF                 CNVSOSCF           .... on
   Start iteration     SOSCFMaxIt         ....   150
   Startup grad/error  SOSCFStart         ....  0.003300
   Hessian update      SOSCFHessUp        .... L-BFGS
   Autom. constraints  SOSCFAutoConstrain .... off
 Level Shifting         CNVShift        .... on
   Level shift para.    LevelShift      ....    0.2500
   Turn off err/grad.   ShiftErr        ....    0.0010
 Zerner damping         CNVZerner       .... off
 Static damping         CNVDamp         .... on
   Fraction old density DampFac         ....    0.7000
   Max. Damping (<1)    DampMax         ....    0.9800
   Min. Damping (>=0)   DampMin         ....    0.0000
   Turn off err/grad.   DampErr         ....    0.1000

SCF Procedure:
 Maximum # iterations   MaxIter         ....   125
 SCF integral mode      SCFMode         .... Direct
   Integral package                     .... SHARK and LIBINT hybrid scheme
 Reset frequency        DirectResetFreq ....    20
 Integral Threshold     Thresh          ....  2.500e-11 Eh
 Primitive CutOff       TCut            ....  2.500e-12 Eh

Convergence Tolerance:
 Convergence Check Mode ConvCheckMode   .... Total+1el-Energy
 Convergence forced     ConvForced      .... 0
 Energy Change          TolE            ....  1.000e-08 Eh
 1-El. energy change                    ....  1.000e-05 Eh
 Orbital Gradient       TolG            ....  1.000e-05
 Orbital Rotation angle TolX            ....  1.000e-05
 DIIS Error             TolErr          ....  5.000e-07

------------------------------
INITIAL GUESS: MODEL POTENTIAL
------------------------------
Loading Hartree-Fock densities                     ... done
Calculating cut-offs                               ... done
Initializing the effective Hamiltonian             ... done
Setting up the integral package (SHARK)            ... done
Starting the Coulomb interaction                   ... done (   0.0 sec)
Making the grid                                    ... done (   0.0 sec)
Mapping shells                                     ... done
Starting the XC term evaluation                    ... done (   0.0 sec)
  promolecular density results
     # of electrons  =     29.996209296
     EX              =    -22.197083970
     EC              =      0.000000000
     EX+EC           =    -22.197083970
Transforming the Hamiltonian                       ... done (   0.0 sec)
Diagonalizing the Hamiltonian                      ... done (   0.0 sec)
Back transforming the eigenvectors                 ... done (   0.0 sec)
Now organizing SCF variables                       ... done
                      ------------------
                      INITIAL GUESS DONE (   0.1 sec)
                      ------------------
             **** ENERGY FILE WAS UPDATED (/cluster/projects/nn14654k/ylvaos/basis_set_n_funcs/functionals/gga_x_pbe/C4H6/inp/C4H6_gga_x_pbe_pc2.en.tmp) ****
Finished Guess after   0.2 sec
Maximum memory used throughout the entire GUESS-calculation: 10.6 MB


           ************************************************************
           *        Program running with 8 parallel MPI-processes     *
           *              working on a common directory               *
           ************************************************************

-------------------------------------------------------------------------------------------
                                      ORCA LEAN-SCF
                              memory conserving SCF solver
-------------------------------------------------------------------------------------------

----------------------------------------D-I-I-S--------------------------------------------
Iteration    Energy (Eh)           Delta-E    RMSDP     MaxDP     DIISErr   Damp  Time(sec)
-------------------------------------------------------------------------------------------
               ***  Starting incremental Fock matrix formation  ***
    1    -154.7316375083890421     0.00e+00  4.12e-03  6.30e-02  1.62e-01  0.700   0.6
    2    -154.7893638984895688    -5.77e-02  2.85e-03  3.62e-02  8.01e-02  0.700   0.6
                               ***Turning on AO-DIIS***
    3    -154.8096464055270758    -2.03e-02  1.09e-03  8.00e-03  2.30e-02  0.700   0.6
    4    -154.8211889616559347    -1.15e-02  1.64e-03  1.00e-02  8.56e-03  0.000   0.5
    5    -154.8475646496075910    -2.64e-02  4.85e-04  3.38e-03  8.71e-03  0.000   0.6
                              *** Initializing SOSCF ***
---------------------------------------S-O-S-C-F--------------------------------------
Iteration    Energy (Eh)           Delta-E    RMSDP     MaxDP     MaxGrad    Time(sec)
--------------------------------------------------------------------------------------
    6    -154.8479619722146481    -3.97e-04  2.15e-04  1.49e-03  2.37e-03     0.6
               *** Restarting incremental Fock matrix formation ***
    7    -154.8479925589030586    -3.06e-05  1.77e-04  1.22e-03  2.97e-04     0.6
    8    -154.8479922620989555     2.97e-07  5.15e-05  5.89e-04  3.72e-04     0.5
    9    -154.8479955072093617    -3.25e-06  4.21e-05  3.40e-04  1.37e-04     0.5
   10    -154.8479950861266730     4.21e-07  1.82e-05  2.06e-04  2.41e-04     0.5
   11    -154.8479957345628577    -6.48e-07  1.51e-05  9.69e-05  3.68e-05     0.5
   12    -154.8479957310224222     3.54e-09  6.02e-06  4.81e-05  4.88e-05     0.5
                 **** Energy Check signals convergence ****

               *****************************************************
               *                     SUCCESS                       *
               *           SCF CONVERGED AFTER  12 CYCLES          *
               *****************************************************

             **** ENERGY FILE WAS UPDATED (/cluster/projects/nn14654k/ylvaos/basis_set_n_funcs/functionals/gga_x_pbe/C4H6/inp/C4H6_gga_x_pbe_pc2.en.tmp) ****

----------------
TOTAL SCF ENERGY
----------------

Total Energy       :       -154.84799575594019 Eh           -4213.62818 eV

Components:
Nuclear Repulsion  :        109.24934557835338 Eh            2972.82583 eV
Electronic Energy  :       -264.09734133429356 Eh           -7186.45401 eV
One Electron Energy:       -424.05247515565816 Eh          -11539.05448 eV
Two Electron Energy:        159.95513382136460 Eh            4352.60047 eV

Virial components:
Potential Energy   :       -310.04715790794933 Eh           -8436.81209 eV
Kinetic Energy     :        155.19916215200911 Eh            4223.18390 eV
Virial Ratio       :          1.99773731770713

DFT components:
N(Alpha)           :       14.999991354001 electrons
N(Beta)            :       14.999991354001 electrons
N(Total)           :       29.999982708002 electrons
E(X)               :      -22.714309832356 Eh       
E(C)               :        0.000000000000 Eh       
E(XC)              :      -22.714309832356 Eh       

---------------
SCF CONVERGENCE
---------------

  Last Energy change         ...   -3.5404e-09  Tolerance :   1.0000e-08
  Last MAX-Density change    ...    4.8090e-05  Tolerance :   1.0000e-07
  Last RMS-Density change    ...    6.0176e-06  Tolerance :   5.0000e-09
  Last DIIS Error            ...    2.3719e-03  Tolerance :   5.0000e-07
  Last Orbital Gradient      ...    4.8834e-05  Tolerance :   1.0000e-05
  Last Orbital Rotation      ...    5.8120e-05  Tolerance :   1.0000e-05


----------------
ORBITAL ENERGIES
----------------

  NO   OCC          E(Eh)            E(eV) 
   0   2.0000      -9.878105      -268.7969 
   1   2.0000      -9.877966      -268.7931 
   2   2.0000      -9.877143      -268.7707 
   3   2.0000      -9.861870      -268.3551 
   4   2.0000      -0.755765       -20.5654 
   5   2.0000      -0.609091       -16.5742 
   6   2.0000      -0.517798       -14.0900 
   7   2.0000      -0.445956       -12.1351 
   8   2.0000      -0.397476       -10.8159 
   9   2.0000      -0.387952       -10.5567 
  10   2.0000      -0.346993        -9.4422 
  11   2.0000      -0.299564        -8.1516 
  12   2.0000      -0.243895        -6.6367 
  13   2.0000      -0.223833        -6.0908 
  14   2.0000      -0.194226        -5.2852 
  15   0.0000      -0.008122        -0.2210 
  16   0.0000       0.019427         0.5286 
  17   0.0000       0.040103         1.0913 
  18   0.0000       0.044362         1.2071 
  19   0.0000       0.065945         1.7944 
  20   0.0000       0.070389         1.9154 
  21   0.0000       0.098053         2.6682 
  22   0.0000       0.101829         2.7709 
  23   0.0000       0.126237         3.4351 
  24   0.0000       0.138933         3.7806 
  25   0.0000       0.181503         4.9390 
*Only the first 10 virtual orbitals were printed.

                    ********************************
                    * MULLIKEN POPULATION ANALYSIS *
                    ********************************

-----------------------
MULLIKEN ATOMIC CHARGES
-----------------------
   0 C :   -0.130652
   1 C :    0.059807
   2 C :   -0.092941
   3 C :   -0.092942
   4 H :    0.038198
   5 H :    0.038198
   6 H :    0.045083
   7 H :    0.045083
   8 H :    0.045083
   9 H :    0.045083
Sum of atomic charges:   -0.0000000

--------------------------------
MULLIKEN REDUCED ORBITAL CHARGES
--------------------------------
  0 C s       :     3.194736  s :     3.194736
      pz      :     0.912843  p :     2.894842
      px      :     1.019287
      py      :     0.962712
      dz2     :     0.008482  d :     0.038242
      dxz     :     0.008267
      dyz     :     0.020264
      dx2y2   :     0.001206
      dxy     :     0.000023
      f0      :     0.000806  f :     0.002832
      f+1     :     0.001028
      f-1     :     0.000831
      f+2     :     0.000069
      f-2     :     0.000002
      f+3     :     0.000016
      f-3     :     0.000080

  1 C s       :     3.115671  s :     3.115671
      pz      :     0.769935  p :     2.724672
      px      :     0.958945
      py      :     0.995791
      dz2     :     0.028893  d :     0.092041
      dxz     :     0.018994
      dyz     :     0.035088
      dx2y2   :     0.003381
      dxy     :     0.005685
      f0      :     0.002550  f :     0.007809
      f+1     :     0.001937
      f-1     :     0.002068
      f+2     :     0.000561
      f-2     :     0.000563
      f+3     :     0.000069
      f-3     :     0.000062

  2 C s       :     3.168078  s :     3.168078
      pz      :     1.012057  p :     2.863180
      px      :     0.994213
      py      :     0.856909
      dz2     :     0.013482  d :     0.057621
      dxz     :     0.006820
      dyz     :     0.017012
      dx2y2   :     0.010872
      dxy     :     0.009436
      f0      :     0.000684  f :     0.004063
      f+1     :     0.000259
      f-1     :     0.001004
      f+2     :     0.000731
      f-2     :     0.000404
      f+3     :     0.000410
      f-3     :     0.000571

  3 C s       :     3.168078  s :     3.168078
      pz      :     1.012057  p :     2.863180
      px      :     0.994213
      py      :     0.856909
      dz2     :     0.013482  d :     0.057621
      dxz     :     0.006820
      dyz     :     0.017012
      dx2y2   :     0.010872
      dxy     :     0.009436
      f0      :     0.000684  f :     0.004063
      f+1     :     0.000259
      f-1     :     0.001004
      f+2     :     0.000731
      f-2     :     0.000404
      f+3     :     0.000410
      f-3     :     0.000571

  4 H s       :     0.921100  s :     0.921100
      pz      :     0.011227  p :     0.038517
      px      :     0.010973
      py      :     0.016317
      dz2     :     0.000328  d :     0.002185
      dxz     :     0.000216
      dyz     :     0.000766
      dx2y2   :     0.000482
      dxy     :     0.000393

  5 H s       :     0.921100  s :     0.921100
      pz      :     0.011227  p :     0.038517
      px      :     0.010973
      py      :     0.016317
      dz2     :     0.000328  d :     0.002185
      dxz     :     0.000216
      dyz     :     0.000766
      dx2y2   :     0.000482
      dxy     :     0.000393

  6 H s       :     0.910969  s :     0.910969
      pz      :     0.011769  p :     0.041566
      px      :     0.016805
      py      :     0.012991
      dz2     :     0.000343  d :     0.002383
      dxz     :     0.000541
      dyz     :     0.000208
      dx2y2   :     0.000598
      dxy     :     0.000693

  7 H s       :     0.910969  s :     0.910969
      pz      :     0.011769  p :     0.041566
      px      :     0.016805
      py      :     0.012991
      dz2     :     0.000343  d :     0.002383
      dxz     :     0.000541
      dyz     :     0.000208
      dx2y2   :     0.000598
      dxy     :     0.000693

  8 H s       :     0.910969  s :     0.910969
      pz      :     0.011769  p :     0.041566
      px      :     0.016805
      py      :     0.012991
      dz2     :     0.000343  d :     0.002383
      dxz     :     0.000541
      dyz     :     0.000208
      dx2y2   :     0.000598
      dxy     :     0.000693

  9 H s       :     0.910969  s :     0.910969
      pz      :     0.011769  p :     0.041566
      px      :     0.016805
      py      :     0.012991
      dz2     :     0.000343  d :     0.002383
      dxz     :     0.000541
      dyz     :     0.000208
      dx2y2   :     0.000598
      dxy     :     0.000693



                     *******************************
                     * LOEWDIN POPULATION ANALYSIS *
                     *******************************

----------------------
LOEWDIN ATOMIC CHARGES
----------------------
   0 C :    0.011468
   1 C :   -0.037529
   2 C :    0.048332
   3 C :    0.048332
   4 H :   -0.017584
   5 H :   -0.017584
   6 H :   -0.008859
   7 H :   -0.008859
   8 H :   -0.008859
   9 H :   -0.008859

-------------------------------
LOEWDIN REDUCED ORBITAL CHARGES
-------------------------------
  0 C s       :     2.775396  s :     2.775396
      pz      :     1.035583  p :     3.009447
      px      :     0.949661
      py      :     1.024204
      dz2     :     0.047255  d :     0.185584
      dxz     :     0.024519
      dyz     :     0.101047
      dx2y2   :     0.012735
      dxy     :     0.000027
      f0      :     0.006093  f :     0.018105
      f+1     :     0.002911
      f-1     :     0.005420
      f+2     :     0.002217
      f-2     :     0.000007
      f+3     :     0.000243
      f-3     :     0.001214

  1 C s       :     2.753738  s :     2.753738
      pz      :     1.046660  p :     2.935661
      px      :     0.878858
      py      :     1.010143
      dz2     :     0.104814  d :     0.317462
      dxz     :     0.070389
      dyz     :     0.109847
      dx2y2   :     0.015088
      dxy     :     0.017323
      f0      :     0.011736  f :     0.030668
      f+1     :     0.003611
      f-1     :     0.007694
      f+2     :     0.003191
      f-2     :     0.003792
      f+3     :     0.000487
      f-3     :     0.000157

  2 C s       :     2.713225  s :     2.713225
      pz      :     1.018906  p :     2.979829
      px      :     1.032409
      py      :     0.928514
      dz2     :     0.045871  d :     0.235665
      dxz     :     0.028770
      dyz     :     0.054274
      dx2y2   :     0.042807
      dxy     :     0.063943
      f0      :     0.004377  f :     0.022949
      f+1     :     0.002354
      f-1     :     0.003120
      f+2     :     0.004573
      f-2     :     0.002339
      f+3     :     0.002099
      f-3     :     0.004086

  3 C s       :     2.713225  s :     2.713225
      pz      :     1.018906  p :     2.979829
      px      :     1.032409
      py      :     0.928514
      dz2     :     0.045871  d :     0.235665
      dxz     :     0.028770
      dyz     :     0.054274
      dx2y2   :     0.042807
      dxy     :     0.063943
      f0      :     0.004377  f :     0.022949
      f+1     :     0.002354
      f-1     :     0.003120
      f+2     :     0.004573
      f-2     :     0.002339
      f+3     :     0.002099
      f-3     :     0.004086

  4 H s       :     0.866207  s :     0.866207
      pz      :     0.036869  p :     0.129907
      px      :     0.036618
      py      :     0.056421
      dz2     :     0.003951  d :     0.021469
      dxz     :     0.001920
      dyz     :     0.006894
      dx2y2   :     0.004698
      dxy     :     0.004006

  5 H s       :     0.866207  s :     0.866207
      pz      :     0.036869  p :     0.129907
      px      :     0.036618
      py      :     0.056421
      dz2     :     0.003951  d :     0.021469
      dxz     :     0.001920
      dyz     :     0.006894
      dx2y2   :     0.004698
      dxy     :     0.004006

  6 H s       :     0.854163  s :     0.854163
      pz      :     0.040814  p :     0.132587
      px      :     0.054385
      py      :     0.037388
      dz2     :     0.002941  d :     0.022108
      dxz     :     0.005022
      dyz     :     0.002064
      dx2y2   :     0.005611
      dxy     :     0.006470

  7 H s       :     0.854163  s :     0.854163
      pz      :     0.040814  p :     0.132587
      px      :     0.054385
      py      :     0.037388
      dz2     :     0.002941  d :     0.022108
      dxz     :     0.005022
      dyz     :     0.002064
      dx2y2   :     0.005611
      dxy     :     0.006470

  8 H s       :     0.854163  s :     0.854163
      pz      :     0.040814  p :     0.132587
      px      :     0.054385
      py      :     0.037388
      dz2     :     0.002941  d :     0.022108
      dxz     :     0.005022
      dyz     :     0.002064
      dx2y2   :     0.005611
      dxy     :     0.006470

  9 H s       :     0.854163  s :     0.854163
      pz      :     0.040814  p :     0.132587
      px      :     0.054385
      py      :     0.037388
      dz2     :     0.002941  d :     0.022108
      dxz     :     0.005022
      dyz     :     0.002064
      dx2y2   :     0.005611
      dxy     :     0.006470



                      *****************************
                      * MAYER POPULATION ANALYSIS *
                      *****************************

  NA   - Mulliken gross atomic population
  ZA   - Total nuclear charge
  QA   - Mulliken gross atomic charge
  VA   - Mayer's total valence
  BVA  - Mayer's bonded valence
  FA   - Mayer's free valence

  ATOM       NA         ZA         QA         VA         BVA        FA
  0 C      6.1307     6.0000    -0.1307     3.9239     3.9239    -0.0000
  1 C      5.9402     6.0000     0.0598     3.7268     3.7268    -0.0000
  2 C      6.0929     6.0000    -0.0929     3.8917     3.8917    -0.0000
  3 C      6.0929     6.0000    -0.0929     3.8917     3.8917     0.0000
  4 H      0.9618     1.0000     0.0382     1.0040     1.0040     0.0000
  5 H      0.9618     1.0000     0.0382     1.0040     1.0040    -0.0000
  6 H      0.9549     1.0000     0.0451     1.0081     1.0081    -0.0000
  7 H      0.9549     1.0000     0.0451     1.0081     1.0081     0.0000
  8 H      0.9549     1.0000     0.0451     1.0081     1.0081    -0.0000
  9 H      0.9549     1.0000     0.0451     1.0081     1.0081     0.0000

  Mayer bond orders larger than 0.100000
B(  0-C ,  1-C ) :   1.8679 B(  0-C ,  4-H ) :   0.9914 B(  0-C ,  5-H ) :   0.9914 
B(  1-C ,  2-C ) :   0.9539 B(  1-C ,  3-C ) :   0.9539 B(  2-C ,  3-C ) :   0.9233 
B(  2-C ,  6-H ) :   0.9908 B(  2-C ,  7-H ) :   0.9908 B(  3-C ,  8-H ) :   0.9908 
B(  3-C ,  9-H ) :   0.9908 

-------
TIMINGS
-------

Total SCF time: 0 days 0 hours 0 min 7 sec 

Total time                  ....       7.106 sec
Sum of individual times     ....       6.608 sec  ( 93.0%)

SCF preparation             ....       0.073 sec  (  1.0%)
Fock matrix formation       ....       6.117 sec  ( 86.1%)
  Startup                   ....       0.009 sec  (  0.2% of F)
  Coulomb formation         ....       5.682 sec  ( 92.9% of F)
  XC integration            ....       0.688 sec  ( 11.3% of F)
    XC Preparation          ....       0.000 sec  (  0.0% of XC)
    Basis function eval.    ....       0.126 sec  ( 18.3% of XC)
    Density eval.           ....       0.092 sec  ( 13.4% of XC)
    XC-Functional eval.     ....       0.018 sec  (  2.6% of XC)
    XC-Potential eval.      ....       0.192 sec  ( 28.0% of XC)
Diagonalization             ....       0.000 sec  (  0.0%)
Density matrix formation    ....       0.065 sec  (  0.9%)
Total Energy calculation    ....       0.019 sec  (  0.3%)
Population analysis         ....       0.025 sec  (  0.4%)
Orbital Transformation      ....       0.028 sec  (  0.4%)
Orbital Orthonormalization  ....       0.000 sec  (  0.0%)
DIIS solution               ....       0.193 sec  (  2.7%)
SOSCF solution              ....       0.088 sec  (  1.2%)
Finished LeanSCF after   7.1 sec

Maximum memory used throughout the entire LEANSCF-calculation: 17.7 MB


           ************************************************************
           *        Program running with 8 parallel MPI-processes     *
           *              working on a common directory               *
           ************************************************************

------------------------------------------------------------------------------
                         ORCA PROPERTY INTEGRAL CALCULATIONS
------------------------------------------------------------------------------

GBWName                                   ... /cluster/projects/nn14654k/ylvaos/basis_set_n_funcs/functionals/gga_x_pbe/C4H6/inp/C4H6_gga_x_pbe_pc2.gbw
Number of atoms                           ...     10
Number of basis functions                 ...    204
Max core memory                           ...   4096 MB

Dipole integrals                          ... YES
Quadrupole integrals                      ... YES
Linear momentum integrals                 ...  NO
Angular momentum integrals                ...  NO
Higher moments length integrals           ...  NO
Higher moments velocity integrals         ...  NO
Kinetic energy integrals                  ...  NO
GIAO right hand sides                     ...  NO
GIAO dipole derivative integrals          ...  NO
SOC integrals                             ...  NO
EPR diamagnetic integrals (GIAO)          ...  NO
EPR gauge integrals                       ...  NO
Field gradient integrals                  ...  NO (   0 nuclei)
Spin-dipole/Fermi contact integrals       ...  NO (   0 nuclei)
Contact density integrals                 ...  NO (   0 nuclei)
Nucleus-orbit integrals                   ...  NO (   0 nuclei)
Geometric perturbations                   ...  NO (  10 nuclei)

Choice of electric origin   ... Center of mass
Position of electric origin ... (  0.0000,  0.0000,  0.0124) 
Choice of magnetic origin   ... GIAO
Position of magnetic origin ... (  0.0000,  0.0000,  0.0000) 

Calculating integrals                     ... Electric Dipole (Length)     done (  0.0 sec)
Calculating integrals                     ... Electric Quadrupole (Length) done (  0.0 sec)

Property integrals calculated in   0.0 sec

Maximum memory used throughout the entire PROPINT-calculation: 11.4 MB
------------------------------------------------------------------------------
                           ORCA ORBITAL LOCALIZATION
------------------------------------------------------------------------------

Input orbitals are from                  ... /cluster/projects/nn14654k/ylvaos/basis_set_n_funcs/functionals/gga_x_pbe/C4H6/inp/C4H6_gga_x_pbe_pc2.gbw
Output orbitals are to                   ... /cluster/projects/nn14654k/ylvaos/basis_set_n_funcs/functionals/gga_x_pbe/C4H6/inp/C4H6_gga_x_pbe_pc2.loc
Max. number of iterations                ... 128
Localizations seeded randomly            ... on
Convergence tolerance                    ... 1.000e-06
Threshold for strong local MOs           ... 9.500e-01
Threshold for bond MOs                   ... 8.500e-01
Operator                                 ... 0
Orbital range for localization           ... 4 to 14
Localization criterion                   ... NEW-BOYS
Doing the dipole integrals               ... o.k.
Initial value of the localization sum :    55.182074
ITERATION   0 : L=   81.7653576140 DL=  2.66e+01 (AVERGE_DL)=    0.6952211313 
ITERATION   1 : L=   86.8402245176 DL=  5.07e+00 (AVERGE_DL)=    0.3037602794 
ITERATION   2 : L=   86.9012887128 DL=  6.11e-02 (AVERGE_DL)=    0.0333205356 
ITERATION   3 : L=   86.9014467837 DL=  1.58e-04 (AVERGE_DL)=    0.0016952922 
ITERATION   4 : L=   86.9014471030 DL=  3.19e-07 (AVERGE_DL)=    0.0000761945 
LOCALIZATION SUM CONVERGED


--------------------------------------------------------------------------------
                    LOCALIZED MOLECULAR ORBITAL COMPOSITIONS
--------------------------------------------------------------------------------

The Mulliken populations for each LMO on each atom are computed
The LMO`s will be ordered according to atom index and type
  (A) Strongly localized MO`s have populations of >=0.950 on one atom
  (B) Two center bond orbitals have populations of >=0.850 on two atoms
  (C) Other MO`s are considered to be `delocalized`

FOUND  -   0 strongly local MO`s
       -  11 two center bond MO`s
       -   0 significantly delocalized MO`s

Bond-like localized orbitals:
MO  14:   9H  -   0.484032  and   3C  -   0.535263
MO  13:   8H  -   0.484031  and   3C  -   0.535263
MO  12:   7H  -   0.484032  and   2C  -   0.535262
MO  11:   6H  -   0.484032  and   2C  -   0.535262
MO  10:   5H  -   0.490687  and   0C  -   0.529653
MO   9:   4H  -   0.490687  and   0C  -   0.529653
MO   8:   3C  -   0.510775  and   2C  -   0.510774
MO   7:   3C  -   0.505127  and   1C  -   0.525393
MO   6:   2C  -   0.505127  and   1C  -   0.525394
MO   5:   1C  -   0.503296  and   0C  -   0.506993
MO   4:   1C  -   0.503296  and   0C  -   0.506993
Localized MO's were stored in: /cluster/projects/nn14654k/ylvaos/basis_set_n_funcs/functionals/gga_x_pbe/C4H6/inp/C4H6_gga_x_pbe_pc2.loc

-------------------------   --------------------
FINAL SINGLE POINT ENERGY      -154.847995755940
-------------------------   --------------------



           ************************************************************
           *        Program running with 8 parallel MPI-processes     *
           *              working on a common directory               *
           ************************************************************

------------------------------------------------------------------------------
                              ORCA PROPERTY CALCULATIONS
------------------------------------------------------------------------------

GBWName                                 ... /cluster/projects/nn14654k/ylvaos/basis_set_n_funcs/functionals/gga_x_pbe/C4H6/inp/C4H6_gga_x_pbe_pc2.gbw
Number of atoms                         ...     10
Number of basis functions               ...    204
Max core memory                         ...   4096 MB

Electric properties:
Dipole moment                           ... YES
Quadrupole moment                       ... YES
Static polarizability (Dipole/Dipole)   ...  NO
Static polarizability (Dipole/Quad.)    ...  NO
Static polarizability (Quad./Quad.)     ...  NO
Static polarizability (Velocity)        ...  NO
Static hyperpolarizability              ...  NO

Atomic electric properties:
Dipole moment                           ...  NO
Quadrupole moment                       ...  NO
Static polarizability                   ...  NO

Choice of electric origin               ... Center of mass
Position of electric origin             ...     0.000000     0.000000     0.012360

General magnetic properties:
Magnetizability                         ...  NO

EPR properties:
g-Tensor (aka g-matrix)                 ...  NO
Zero-Field splitting spin-orbit         ...  NO
Zero-field splitting spin-spin          ...  NO
Hyperfine couplings                     ...  NO (   0 nuclei)
Quadrupole couplings                    ...  NO (   0 nuclei)
Contact density                         ...  NO (   0 nuclei)

NMR properties:
Chemical shifts                         ...  NO (   0 nuclei)
Spin-rotation constants                 ...  NO (   0 nuclei)
Spin-spin couplings                     ...  NO (   0 nuclei,    0 pairs)

Choice of magnetic origin               ... GIAO
Position of magnetic origin             ...     0.000000     0.000000     0.000000

Properties with geometric perturbations:
SCF Hessian                             ...  NO
IR spectrum                             ...  NO
VCD spectrum                            ...  NO
X-ray spectroscopy properties:
SCF XES/XAS/RIXS spectra                ...  NO

SCF SOC stabilization energy            ...  NO
Diagonal Born-Oppenheimer correction    ...  NO

-------------
DIPOLE MOMENT
-------------

Method             : SCF
Type of density    : Electron Density
Multiplicity       :   1
Irrep              :   0
Energy             :  -154.8479957559401896 Eh
Basis              : AO
                                X                 Y                 Z
Electronic contribution:      0.000000008       0.000000006       0.197154149
Nuclear contribution   :      0.000000000       0.000000000      -0.371559272
                        -----------------------------------------
Total Dipole Moment    :      0.000000008       0.000000006      -0.174405123
                        -----------------------------------------
Magnitude (a.u.)       :      0.174405123
Magnitude (Debye)      :      0.443302593



--------------------
Rotational spectrum 
--------------------
 
Rotational constants in cm-1:             0.643527             0.230144             0.181788 
Rotational constants in MHz :         19292.450199          6899.535423          5449.866904 

Dipole components along the rotational axes: 
x,y,z [a.u.] :    -0.174405     0.000000     0.000000 
x,y,z [Debye]:    -0.443303     0.000000     0.000000 

 

Dipole moment calculation done in   0.0 sec 

-----------------
QUADRUPOLE MOMENT
-----------------

Method             : SCF
Type of density    : Electron Density
Multiplicity       :   1
Irrep              :   0
Energy             :  -154.8479957559401896 Eh
Basis              : AO

                XX              YY              ZZ              XY              XZ              YZ
  NUC       11.888664720    55.799971245   152.416444257     0.000000000     0.000000000     0.000000000
  EL       -31.602903689   -74.679667595  -172.012213342     0.000000001     0.000000009    -0.000000003
  TOT      -19.714238969   -18.879696351   -19.595769085     0.000000001     0.000000009    -0.000000003 (a.u.)
           -26.516325641   -25.393837278   -26.356979594     0.000000002     0.000000012    -0.000000004 (Buckingham)

diagonalized tensor:
           -19.714238969   -19.595769085   -18.879696351 (a.u.)
           -26.516325641   -26.356979594   -25.393837278 (Buckingham)
            -1.281834410    -0.803796270     2.085630680 (traceless form in Buckingham)

            -1.000000000    -0.000000075     0.000000001
             0.000000001    -0.000000005     1.000000000
             0.000000075    -1.000000000    -0.000000005
        
Isotropic quadrupole :   -19.396568135

Quadrupole moment calculation done in   0.0 sec (  0.0 sec for integrals)

Maximum memory used throughout the entire PROP-calculation: 8.3 MB

--------------------------------
SUGGESTED CITATIONS FOR THIS RUN
--------------------------------

Below you find a list of papers that are relevant to this ORCA run
We neither can nor want to force you to cite these papers, but we appreciate if you do
You receive ORCA, which is the product of decades of hard work by many enthusiastic individuals, for free
The only thing we kindly ask in return is that you cite our papers,
We deeply appreciate it, if you show your appreciation for ORCA by not just citing the generic ORCA reference.

Please note that relegating all ORCA citations to the supporting information does *not* help us.
SI sections are not indexed - citations you put there will not count into any citation statistics
But we need these citations in order to attract the funding resources that allow us to do what we are doing

Therefore, if you are a happy ORCA user, please consider citing a few of the papers listed below in the main body of your paper

In addition to the list printed below, the program has created the file /cluster/projects/nn14654k/ylvaos/basis_set_n_funcs/functionals/gga_x_pbe/C4H6/inp/C4H6_gga_x_pbe_pc2.bibtex that contains the list in bibtex format
You can import this file easily into all common literature databanks and citation aid programs

It goes without saying that in many instances, there are alternative algorithms to achieve similar
results as the ones you have gotten from ORCA. It is, of course, also the case that in some instances
ORCA just re-implements algorithms worked out by others. We are fully aware of that and we are also
fully appreciative of our colleagues work. Hence this citation list should not be read as indicating
that the listed papers, which are focused on our own work, are the only ones worth citing. It simply
meant to make it easier for users to cite ORCA specific papers. It is not a substitute for doing your
own literature research and citing the relevant literature in a scientifically appropriate manner.

List of essential papers. We consider these as the minimum necessary citations

  1. Neese, F.
     Software update: the ORCA program system, version 6.0
     WIRES Comput. Molec. Sci. 2025 15(1), e70019
     doi.org/10.1002/wcms.70019

List of papers to cite with high priority. The work reported in these papers was absolutely
necessary for this run to complete.
Our perspective: the developers of density functionals and basis sets usually get cited in chemistry papers
Good! But without the algorithms to do something with them, the functionals or basis sets would not do anything.
Hence, in our opinion, the algorithm design and method developments papers are equally worthy of getting cited

  1. Lehtola, S.; Steigemann, C.; Oliveira, M.; Marques, M.
     Recent developments in Libxc - A comprehensive library of functionals for density functional theory
     Software X 2018 7 , 
     doi.org/10.1016/j.softx.2017.11.002
  2. Neese, F.
     The SHARK Integral Generation and Digestion System
     J. Comp. Chem. 2022 44(3), 381
     doi.org/10.1002/jcc.26942

List of suggested additional citations. These are papers that are important in the 'surrounding' of 
of this run, or papers that preceded the highly important papers. If you like your results we are grateful for a citation.

  1. Neese, F.
     The ORCA program system
     WIRES Comput. Molec. Sci. 2012 2(1), 73-78
     doi.org/10.1002/wcms.81
  2. Neese, F.
     Software update: the ORCA program system, version 4.0
     WIRES Comput. Molec. Sci. 2018 8(1), 1-6
     doi.org/10.1002/wcms.1327
  3. Neese, F.; Wennmohs, F.; Becker, U.; Riplinger, C.
     The ORCA quantum chemistry program package
     J. Chem. Phys. 2020 152(22), 224108
     doi.org/10.1063/5.0004608
  4. Neese, F.
     Software update: The ORCA program system—Version 5.0
     WIRES Comput. Molec. Sci. 2022 12(1), e1606
     doi.org/10.1002/wcms.1606

List of optional additional citations

  1. Neese, F.
     Approximate second-order SCF convergence for spin unrestricted wavefunctions
     Chem. Phys. Lett. 2000 325(1-3), 93-98
     doi.org/10.1016/s0009-2614(00)00662-x

Timings for individual modules:

Sum of individual times          ...        8.886 sec (=   0.148 min)
Startup calculation              ...        0.580 sec (=   0.010 min)   6.5 %
SCF iterations                   ...        7.743 sec (=   0.129 min)  87.1 %
Property integrals               ...        0.250 sec (=   0.004 min)   2.8 %
Property calculations            ...        0.309 sec (=   0.005 min)   3.5 %
Orbital localization             ...        0.005 sec (=   0.000 min)   0.1 %
                             ****ORCA TERMINATED NORMALLY****
TOTAL RUN TIME: 0 days 0 hours 0 minutes 9 seconds 503 msec
