
                                 *****************
                                 * O   R   C   A *
                                 *****************

                                            #,                                       
                                            ###                                      
                                            ####                                     
                                            #####                                    
                                            ######                                   
                                           ########,                                 
                                     ,,################,,,,,                         
                               ,,#################################,,                 
                          ,,##########################################,,             
                       ,#########################################, ''#####,          
                    ,#############################################,,   '####,        
                  ,##################################################,,,,####,       
                ,###########''''           ''''###############################       
              ,#####''   ,,,,##########,,,,          '''####'''          '####       
            ,##' ,,,,###########################,,,                        '##       
           ' ,,###''''                  '''############,,,                           
         ,,##''                                '''############,,,,        ,,,,,,###''
      ,#''                                            '''#######################'''  
     '                                                          ''''####''''         
             ,#######,   #######,   ,#######,      ##                                
            ,#'     '#,  ##    ##  ,#'     '#,    #''#        ,####,    ,#,          
            ##       ##  ##   ,#'  ##            #'  '#       #'       ,# #          
            ##       ##  #######   ##           ,######,      #####,      #          
            '#,     ,#'  ##    ##  '#,     ,#' ,#      #,     #,   #      #          
             '#######'   ##     ##  '#######'  #'      '#     '####' #    #          



                #########################################################
                #                        -***-                          #
                #          Department of theory and spectroscopy        #
                #                                                       #
                #                      Frank Neese                      #
                #                                                       #
                #     Directorship, Architecture, Infrastructure        #
                #                    SHARK, DRIVERS                     #
                #        Core code/Algorithms in most modules           #
                #                                                       #
                #        Max Planck Institute fuer Kohlenforschung      #
                #                Kaiser Wilhelm Platz 1                 #
                #                 D-45470 Muelheim/Ruhr                 #
                #                      Germany                          #
                #                                                       #
                #                  All rights reserved                  #
                #                        -***-                          #
                #########################################################


                         Program Version 6.1.1  -  RELEASE   -
                                (GIT: $487d211c$)
                          ($2025-11-21 10:33:24 +0100$)


 With contributions from (in alphabetic order):
[Max-Planck-Institut fuer Kohlenforschung]                               
  Daniel Aravena         : Magnetic Suceptibility                        
  Michael Atanasov       : Ab Initio Ligand Field Theory (pilot matlab implementation)
  Alexander A. Auer      : GIAO ZORA, VPT2 properties, NMR spectrum      
  Ute Becker             : All parallelization in ORCA, NUMFREQ, NUMCALC 
  Giovanni Bistoni       : ED, misc. LED, open-shell LED, HFLD           
  Dmytro Bykov           : pre 5.0 version of the SCF Hessian            
  Marcos Casanova-Páez   : Triplet and SCS-CIS(D). UHF-(DLPNO)-IP/EA/STEOM-CCSD. UHF-CVS-IP/STEOM-CCSD   
  Vijay G. Chilkuri      : MRCI spin determinant printing, contributions to CSF-ICE 
  Pauline Colinet        : FMM embedding                                 
  Dipayan Datta          : RHF DLPNO-CCSD density                        
  Achintya Kumar Dutta   : EOM-CC, STEOM-CC                              
  Nicolas Foglia         : Exact transition moments, OPA infrastructure, MCD improvements    
  Dmitry Ganyushin       : Spin-Orbit,Spin-Spin,Magnetic field MRCI      
  Miquel Garcia-Rates    : C-PCM and meta-GGA Hessian, CCSD/C-PCM, Gaussian charge scheme 
  Tiago L. C. Gouveia    : GS-ROHF, GS-ROCIS                             
  Yang Guo               : DLPNO-NEVPT2, F12-NEVPT2, CIM, IAO-localization        
  Andreas Hansen         : Spin unrestricted coupled pair/coupled cluster methods 
  Ingolf Harden          : AUTO-CI MPn and infrastructure                
  Benjamin Helmich-Paris : MC-RPA, TRAH-(SCF,CASSCF), AVAS, COSX integrals, SCF dyn. polar., MC-PDFT, srDFT 
  Lee Huntington         : MR-EOM, pCC                                   
  Robert Izsak           : Overlap fitted RIJCOSX, COSX-SCS-MP3, EOM     
  Riya Kayal             : Wick's Theorem for AUTO-CI, AUTO-CI UHF-CCSDT 
  Emily Kempfer          : AUTO-CI RHF CISDT and CCSDT, approximate NEVPT4
  Christian Kollmar      : KDIIS, OOCD, Brueckner-CCSD(T), CCSD density, CASPT2, CASPT2-K, improved NEVPT2 
  Axel Koslowski         : Symmetry handling                             
  Simone Kossmann        : meta-GGA functionals, TD-DFT gradient, OOMP2, (MP2 Hessian; deprecated post 5.0) 
  Lucas Lang             : DCDCAS, Hyperfine gauge corrections, ICE-SOC+SSC
  Marvin Lechner         : AUTO-CI (C++ implementation), FIC-MRCC        
  Spencer Leger          : CASSCF response                               
  Dagmar Lenk            : GEPOL surface, SMD, ORCA-2-JSON               
  Dimitrios Liakos       : Extrapolation schemes; Compound Job, Property file
  Dimitrios Manganas     : Further ROCIS development; embedding schemes. LFT, Crystal Embedding 
  Dimitrios Pantazis     : SARC Basis sets                               
  Anastasios Papadopoulos: AUTO-CI, single reference methods and gradients 
  Taras Petrenko         : pre 6.0 DFT Hessian and TD-DFT gradient,  ECA, NRVS 
  Petra Pikulova         : Analytic Raman intensities                    
  Peter Pinski           : DLPNO-MP2, DLPNO-MP2 Gradient                 
  Shashank Vittal Rao    : ES-AILFT, MagRelax                            
  Christoph Reimann      : Effective Core Potentials                     
  Marius Retegan         : Local ZFS, SOC                                
  Christoph Riplinger    : Optimizer, TS searches, QM/MM, DLPNO-CCSD(T), (RO)-DLPNO pert. Triples 
  Michael Roemelt        : Original ROCIS implementation, recursive CI coupling coefficients
  Masaaki Saitow         : Open-shell DLPNO-CCSD energy and density      
  Barbara Sandhoefer     : DKH picture change effects                    
  Yorick L. A. Schmerwitz: GMF and freeze-and-release deltaSCF, NEB S-IDPP initial path                    
  Kantharuban Sivalingam : CASSCF convergence/infrastructure, NEVPT2, NEVPT3, NEVPT4(SD), FIC-MRCI and CEPA variants
  Bernardo de Souza      : ESD, SOC TD-DFT                               
  Georgi L. Stoychev     : AutoAux, RI-MP2 NMR, DLPNO-MP2 response, X2C  
  Van Anh Tran           : RI-MP2 g-tensors                              
  Willem Van den Heuvel  : Paramagnetic NMR                              
  Zikuan Wang            : NOTCH, Electric field optimization            
  Frank Wennmohs         : Technical directorship and infrastructure     
  Hang Xu                : AUTO-CI-Response properties                   
                                                                         
[FACCTs GmbH]                                                            
  Markus Bursch, Nicolas Foglia, Miquel Garcia-Rates, Ingolf Harden, Hagen Neugebauer, Anastasios Papadopoulos, 
  Christoph Riplinger, Bernardo de Souza, Georgi L. Stoychev                                                    
                                                                 
  APM, various basis sets, CI-OPT, improved COSX, DLPNO-Multilevel,           
  DOCKER, DRACO, updates on ESD, Fragmentator, GOAT, IRC, LR-CPCM, L-BFGS, MBIS, meta-GGA TD-DFT gradient, ML-optimized integration grids, 
  MM, NACMEs, nearIR, NEB, NEB-TS, NL-DFT gradient (VV10), 2- and 3-layer-ONIOM, interface openCOSMO-RS, QMMM,   
  Crystal-QMMM, RESP, rigid body optimization, SF, symmetry and pop. for TD-DFT, various functionals, SOLVATOR                                   
                                                                         
[Other institutions]                                                     
  V. Asgeirsson          : NEB                                           
  Christoph Bannwarth    : sTDA-DFT, sTD-DFT, PBEh-3c, B97-3c, D3        
  Giovanni Bistoni       : ETS/NOCV, ADLD/ADEX, COVALED                  
  Martin Brehm           : Molecular dynamics                            
  Ronald Cardenas        : ETS/NOCV                                      
  Martina Colucci        : COVALED                                       
  Sebastian Ehlert       : rSCAN, r2SCAN, r2SCAN-3c, D4, dhf basis sets  
  Marvin Friede          : D4 for Fr, Ra, Ac-Lr                          
  Lars Goerigk           : TD-DFT with DH, B97 family of functionals     
  Stefan Grimme          : VdW corrections, initial TS optimization, DFT functionals, gCP, sTDA/sTD-DF 
  Waldemar Hujo          : DFT-NL                                        
  H. Jonsson             : NEB                                           
  Holger Kruse           : gCP                                           
  Marcel Mueller         : wB97X-3c, vDZP basis set                      
  Hagen Neugebauer       : wr2SCAN, Native XTB                           
  Gianluca Regni         : ADLD/ADEX                                     
  Tobias Risthaus        : pre 6.0 range-separated hybrid DFT and stability analysis
  Lukas Wittmann         : regularized MP2, r2SCAN double-hybrids, wr2SCAN        
                                                                         
We gratefully acknowledge several colleagues who have allowed us to      
interface, adapt or use parts of their codes:                            
  Ed Valeev, F. Pavosevic, A. Kumar             : LibInt (2-el integral package), F12 methods 
  Garnet Chan, S. Sharma, J. Yang, R. Olivares  : DMRG                   
  Ulf Ekstrom                                   : XCFun DFT Library      
  Mihaly Kallay                                 : mrcc  (arbitrary order and MRCC methods)
  Frank Weinhold                                : gennbo (NPA and NBO analysis)           
  Simon Mueller                                 : openCOSMO-RS                            
  Christopher J. Cramer and Donald G. Truhlar   : smd solvation model                     
  S Lehtola, MJT Oliveira, MAL Marques          : LibXC Library                           
  Liviu Ungur et al                             : ANISO software                          


 Your calculation uses the libint2 library for the computation of 2-el integrals
 For citations please refer to: http://libint.valeyev.net

 Your ORCA version has been built with support for libXC version: 7.0.0
 For citations please refer to: https://libxc.gitlab.io

 This ORCA versions uses:
   CBLAS   interface :  Fast vector & matrix operations
   LAPACKE interface :  Fast linear algebra routines
   SCALAPACK package :  Parallel linear algebra routines
   Shared memory     :  Shared parallel matrices
   BLAS/LAPACK       :  OpenBLAS 0.3.29  USE64BITINT DYNAMIC_ARCH NO_AFFINITY Cooperlake SINGLE_THREADED
        Core in use  :  Cooperlake
   Copyright (c) 2011-2014, The OpenBLAS Project


  ***********************************
  * Starting time: Fri May 15 14:02:00 2026
  * Host name:     c1-13
  * Process ID:    3858898
  * Working dir.:  /cluster/projects/nn14654k/ylvaos/basis_set_n_funcs/functionals/gga_x_pbe/C4H6/out
  ***********************************

Using LibXC functional ID 101 : Perdew, Burke & Ernzerhof
[ 1]  J. P. Perdew, K. Burke, and M. Ernzerhof.,  Phys. Rev. Lett. 77, 3865 (1996)
[ 2]  J. P. Perdew, K. Burke, and M. Ernzerhof.,  Phys. Rev. Lett. 78, 1396 (1997)
Using LibXC functional ID 101 : Perdew, Burke & Ernzerhof
[ 1]  J. P. Perdew, K. Burke, and M. Ernzerhof.,  Phys. Rev. Lett. 77, 3865 (1996)
[ 2]  J. P. Perdew, K. Burke, and M. Ernzerhof.,  Phys. Rev. Lett. 78, 1396 (1997)
Your calculation utilizes LibXC
by S. Lehtola, C. Steigemann, M. J. T. Oliveira & M. A. L. Marques
Please cite in your paper:
Lehtola, S.; Steigemann, C.; Oliveira, M.J.T.; Marques, M. A. L. Software X, 7, (2018), 1.
   

================================================================================

----- Orbital basis set information -----
Your calculation utilizes the basis: aug-cc-pVTZ 
    H, B-Ne : Obtained from the ccRepo (grant-hill.group.shef.ac.uk/ccrepo) Feb. 2017
              R. A. Kendall, T. H. Dunning, Jr., R. J. Harrison, J. Chem. Phys. 96, 6796 (1992)
         He : Obtained from the ccRepo (grant-hill.group.shef.ac.uk/ccrepo) Feb. 2017
              D. E. Woon, T. H. Dunning, Jr., J. Chem. Phys. 100, 2975 (1994)
  Li-Be, Na : Obtained from the ccRepo (grant-hill.group.shef.ac.uk/ccrepo) Feb. 2017
              B. P. Prascher, D. E. Woon, K. A. Peterson, T. H. Dunning, Jr., A. K. Wilson, Theor. Chem. Acc. 128, 69 (2011)
         Mg : Obtained from the Peterson Research Group Website (tyr0.chem.wsu.edu/~kipeters) Feb. 2017
              B. P. Prascher, D. E. Woon, K. A. Peterson, T. H. Dunning, Jr., A. K. Wilson, Theor. Chem. Acc. 128, 69 (2011)
      Al-Ar : Obtained from the ccRepo (grant-hill.group.shef.ac.uk/ccrepo) Feb. 2017
              D. E. Woon, T. H. Dunning, Jr., J. Chem. Phys. 98, 1358 (1993)
      Sc-Zn : Obtained from the ccRepo (grant-hill.group.shef.ac.uk/ccrepo) Feb. 2017
              N. B. Balabanov, K. A. Peterson, J. Chem. Phys. 123, 064107 (2005)
              N. B. Balabanov, K. A. Peterson, J. Chem. Phys. 125, 074110 (2006)
      Ga-Kr : Obtained from the ccRepo (grant-hill.group.shef.ac.uk/ccrepo) Feb. 2017
              A. K. Wilson, D. E. Woon, K. A. Peterson, T. H. Dunning, Jr., J. Chem. Phys. 110, 7667 (1999)
     Ag, Au : Obtained from the Peterson Research Group Website (tyr0.chem.wsu.edu/~kipeters) Feb. 2017
              K. A. Peterson, C. Puzzarini, Theor. Chem. Acc. 114, 283 (2005)

================================================================================
                                        WARNINGS
                       Please study these warnings very carefully!
================================================================================


================================================================================
                                       INPUT FILE
================================================================================
NAME = /cluster/projects/nn14654k/ylvaos/basis_set_n_funcs/functionals/gga_x_pbe/C4H6/inp/C4H6_gga_x_pbe_augccpvtz.inp
|  1> ! dft aug-cc-pVTZ TightSCF
|  2> %pal nprocs 8 end
|  3> 
|  4> %loc
|  5>   LocMet NewBoys
|  6>   Occ true
|  7> end
|  8> 
|  9> %method
| 10>   exchange gga_x_pbe
| 11>   correlation None
| 12> end
| 13> 
| 14> %elprop
| 15>   Dipole true
| 16>   Quadrupole true
| 17> end
| 18> 
| 19> * xyz 0 1
| 20> C    0.000000000000   0.000000000000   1.632000000000
| 21> C    0.000000000000   0.000000000000   0.300000000000
| 22> C    0.000000000000   0.771000000000  -0.936300000000
| 23> C    0.000000000000  -0.771000000000  -0.936300000000
| 24> H    0.000000000000   0.914000000000   2.222200000000
| 25> H    0.000000000000  -0.914000000000   2.222200000000
| 26> H    0.912300000000   1.305900000000  -1.200300000000
| 27> H   -0.912300000000   1.305900000000  -1.200300000000
| 28> H   -0.912300000000  -1.305900000000  -1.200300000000
| 29> H    0.912300000000  -1.305900000000  -1.200300000000
| 30> *
| 31> 
| 32> 
| 33>                          ****END OF INPUT****
================================================================================

                       ****************************
                       * Single Point Calculation *
                       ****************************

---------------------------------
CARTESIAN COORDINATES (ANGSTROEM)
---------------------------------
  C      0.000000    0.000000    1.632000
  C      0.000000    0.000000    0.300000
  C      0.000000    0.771000   -0.936300
  C      0.000000   -0.771000   -0.936300
  H      0.000000    0.914000    2.222200
  H      0.000000   -0.914000    2.222200
  H      0.912300    1.305900   -1.200300
  H     -0.912300    1.305900   -1.200300
  H     -0.912300   -1.305900   -1.200300
  H      0.912300   -1.305900   -1.200300

----------------------------
CARTESIAN COORDINATES (A.U.)
----------------------------
  NO LB      ZA    FRAG     MASS         X           Y           Z
   0 C     6.0000    0    12.011    0.000000    0.000000    3.084033
   1 C     6.0000    0    12.011    0.000000    0.000000    0.566918
   2 C     6.0000    0    12.011    0.000000    1.456979   -1.769351
   3 C     6.0000    0    12.011    0.000000   -1.456979   -1.769351
   4 H     1.0000    0     1.008    0.000000    1.727210    4.199349
   5 H     1.0000    0     1.008    0.000000   -1.727210    4.199349
   6 H     1.0000    0     1.008    1.723997    2.467793   -2.268238
   7 H     1.0000    0     1.008   -1.723997    2.467793   -2.268238
   8 H     1.0000    0     1.008   -1.723997   -2.467793   -2.268238
   9 H     1.0000    0     1.008    1.723997   -2.467793   -2.268238

--------------------------------
INTERNAL COORDINATES (ANGSTROEM)
--------------------------------
 C      0   0   0     0.000000000000     0.00000000     0.00000000
 C      1   0   0     1.332000000000     0.00000000     0.00000000
 C      2   1   0     1.457010188708   148.05088964     0.00000000
 C      2   1   3     1.457010188708   148.05088964   180.00000000
 H      1   2   3     1.087994503663   122.85166680     0.00000000
 H      1   2   3     1.087994503663   122.85166680   180.00000000
 H      3   2   1     1.090002431190   117.72260444    70.99760541
 H      3   2   1     1.090002431190   117.72260444   289.00239459
 H      4   2   1     1.090002431190   117.72260444    70.99760541
 H      4   2   1     1.090002431190   117.72260444   289.00239459

---------------------------
INTERNAL COORDINATES (A.U.)
---------------------------
 C      0   0   0     0.000000000000     0.00000000     0.00000000
 C      1   0   0     2.517115210383     0.00000000     0.00000000
 C      2   1   0     2.753350230992   148.05088964     0.00000000
 C      2   1   3     2.753350230992   148.05088964   180.00000000
 H      1   2   3     2.056011647134   122.85166680     0.00000000
 H      1   2   3     2.056011647134   122.85166680   180.00000000
 H      3   2   1     2.059806080257   117.72260444    70.99760541
 H      3   2   1     2.059806080257   117.72260444   289.00239459
 H      4   2   1     2.059806080257   117.72260444    70.99760541
 H      4   2   1     2.059806080257   117.72260444   289.00239459

---------------------
BASIS SET INFORMATION
---------------------
There are 2 groups of distinct atoms

 Group   1 Type C   : 19s6p3d2f contracted to 5s4p3d2f pattern {88111/3111/111/11}
 Group   2 Type H   : 6s3p2d contracted to 4s3p2d pattern {3111/111/11}

Atom   0C    basis set group =>   1
Atom   1C    basis set group =>   1
Atom   2C    basis set group =>   1
Atom   3C    basis set group =>   1
Atom   4H    basis set group =>   2
Atom   5H    basis set group =>   2
Atom   6H    basis set group =>   2
Atom   7H    basis set group =>   2
Atom   8H    basis set group =>   2
Atom   9H    basis set group =>   2


           ************************************************************
           *        Program running with 8 parallel MPI-processes     *
           *              working on a common directory               *
           ************************************************************
------------------------------------------------------------------------------
                             ORCA STARTUP CALCULATIONS
------------------------------------------------------------------------------
------------------------------------------------------------------------------
                   ___                                                        
                  /   \      - P O W E R E D   B Y -                         
                 /     \                                                     
                 |  |  |   _    _      __       _____    __    __             
                 |  |  |  | |  | |    /  \     |  _  \  |  |  /  |          
                  \  \/   | |  | |   /    \    | | | |  |  | /  /          
                 / \  \   | |__| |  /  /\  \   | |_| |  |  |/  /          
                |  |  |   |  __  | /  /__\  \  |    /   |      \           
                |  |  |   | |  | | |   __   |  |    \   |  |\   \          
                \     /   | |  | | |  |  |  |  | |\  \  |  | \   \       
                 \___/    |_|  |_| |__|  |__|  |_| \__\ |__|  \__/        
                                                                              
                      - O R C A' S   B I G   F R I E N D -                    
                                      &                                       
                       - I N T E G R A L  F E E D E R -                       
                                                                              
 v1 FN, 2020, v2 2021, v3 2022-2024                                           
------------------------------------------------------------------------------


----------------------
SHARK INTEGRAL PACKAGE
----------------------

Number of atoms                             ...     10
Number of basis functions                   ...    346
Number of shells                            ...    134
Maximum angular momentum                    ...      3
Integral batch strategy                     ... SHARK/LIBINT Hybrid
RI-J (if used) integral strategy            ... SPLIT-RIJ (Revised 2003 algorithm where possible)
Printlevel                                  ...      1
Contraction scheme used                     ... PARTIAL GENERAL contraction
Prescreening option                         ... SCHWARTZ
   Thresh                                   ... 2.500e-11
   Tcut                                     ... 2.500e-12
   Tpresel                                  ... 2.500e-12 
Coulomb Range Separation                    ... NOT USED
Exchange Range Separation                   ... NOT USED
Multipole approximations                    ... NOT USED
Finite Nucleus Model                        ... NOT USED
CABS basis                                  ... NOT available
Auxiliary Coulomb fitting basis             ... NOT available
Auxiliary J/K fitting basis                 ... NOT available
Auxiliary Correlation fitting basis         ... NOT available
Auxiliary 'external' fitting basis          ... NOT available

Checking pre-screening integrals            ... done (  0.0 sec) Dimension = 134
Save PGC pre-screening integrals            ... done (  0.0 sec) Dimension = 134
Calculate PGC overlap integrals             ... done (  0.0 sec) Dimension = 110
Calculating pre-screening integrals (ORCA)  ... done (  0.0 sec) Dimension = 110
Shell pair information
Shell pair cut-off parameter TPreSel        ...   2.5e-12
Total number of shell pairs                 ...      9045
Shell pairs after pre-screening             ...      8549
Total number of primitive shell pairs       ...     11965
Primitive shell pairs kept                  ...     10697
          la=0 lb=0:   2024 shell pairs
          la=1 lb=0:   2216 shell pairs
          la=1 lb=1:    587 shell pairs
          la=2 lb=0:   1570 shell pairs
          la=2 lb=1:    808 shell pairs
          la=2 lb=2:    300 shell pairs
          la=3 lb=0:    544 shell pairs
          la=3 lb=1:    272 shell pairs
          la=3 lb=2:    192 shell pairs
          la=3 lb=3:     36 shell pairs

Checking whether 4 symmetric matrices of dimension 346 fit in memory
:Max Core in MB      =   4096.00
 MB in use           =     11.72
 MB left             =   4084.28
 MB needed           =      1.83
 Data fit in memory  = YES
Calculating Nuclear repulsion               ... done (  0.0 sec) ENN=    109.249345578353 Eh

Diagonalization of the overlap matrix:
Smallest eigenvalue                        ... 4.357e-06
Time for diagonalization                   ...    0.006 sec
Threshold for overlap eigenvalues          ... 1.000e-07
Number of eigenvalues below threshold      ... 0
Time for construction of square roots      ...    0.005 sec
Total time needed                          ...    0.012 sec

-------------------
DFT GRID GENERATION
-------------------

General Integration Accuracy     IntAcc      ... 4.388
Radial Grid Type                 RadialGrid  ... OptM3 with GC (2021)
Angular Grid (max. ang.)         AngularGrid ... 4 (Lebedev-302)
Angular grid pruning method      GridPruning ... 4 (adaptive)
Weight generation scheme         WeightScheme... mBecke (2022)
Basis function cutoff            BFCut       ... 1.0000e-11
Integration weight cutoff        WCut        ... 1.0000e-14
Partially contracted basis set               ... off
Rotationally invariant grid construction     ... off
Angular grids for H and He will be reduced by one unit
Diffuse basis detected: some atoms will have their outermost
                        angular grid increased by 1.

Total number of grid points                  ...    46048
Total number of batches                      ...      725
Average number of points per batch           ...       63
Average number of grid points per atom       ...     4605

---------------------
SHARK GRID GENERATION
---------------------

General Integration Accuracy     IntAcc      ... 4.388
Radial Grid Type                 RadialGrid  ... OptM3 with GC (2021)
Angular Grid (max. ang.)         AngularGrid ... 4 (Lebedev-302)
Angular grid pruning method      GridPruning ... 4 (adaptive)
Weight generation scheme         WeightScheme... mBecke (2022)
Basis function cutoff            BFCut       ... 1.0000e-11
Integration weight cutoff        WCut        ... 1.0000e-14
Partially contracted basis set               ... off
Rotationally invariant grid construction     ... off
Angular grids for H and He will be reduced by one unit
Diffuse basis detected: some atoms will have their outermost
                        angular grid increased by 1.
Steep s-basis detected: some atoms will have their radial
                        grid points doubled.

Total number of grid points                  ...    71641
Total number of batches                      ...     1124
Average number of points per batch           ...       63
Average number of grid points per atom       ...     7164
Grids setup in   0.5 sec
Initializing property integral containers    ... done (  0.0 sec)

SHARK setup successfully completed in   0.6 seconds

Maximum memory used throughout the entire STARTUP-calculation: 28.0 MB


           ************************************************************
           *        Program running with 8 parallel MPI-processes     *
           *              working on a common directory               *
           ************************************************************
-------------------------------------------------------------------------------
                                 ORCA GUESS
                   Start orbitals & Density for SCF / CASSCF
-------------------------------------------------------------------------------

------------
SCF SETTINGS
------------
Hamiltonian:
 Density Functional     Method          .... DFT(GTOs)
  Functional kind                       .... Exchange
  Functional name                       .... Perdew, Burke & Ernzerhof
  Functional family                     .... GGA
  Functional refs                              
    [ 0] J. P. Perdew, K. Burke, and M. Ernzerhof.,  Phys. Rev. Lett. 77, 3865 (1996), doi: 10.1103/PhysRevLett.77.3865
    [ 1] J. P. Perdew, K. Burke, and M. Ernzerhof.,  Phys. Rev. Lett. 78, 1396 (1997), doi: 10.1103/PhysRevLett.78.1396
  Functional external parameters        .... 2
    Parameter  0 _kappa     =  8.040000e-01 : Asymptotic value of the enhancement function
    Parameter  1 _mu        =  2.195150e-01 : Coefficient of the 2nd order expansion
 Correlation Functional Correlation     .... No Correlation
 Gradients option       PostSCFGGA      .... off


General Settings:
 Integral files         IntName         .... /cluster/projects/nn14654k/ylvaos/basis_set_n_funcs/functionals/gga_x_pbe/C4H6/inp/C4H6_gga_x_pbe_augccpvtz
 Hartree-Fock type      HFTyp           .... RHF
 Total Charge           Charge          ....    0
 Multiplicity           Mult            ....    1
 Number of Electrons    NEL             ....   30
 Basis Dimension        Dim             ....  322
 Nuclear Repulsion      ENuc            ....    109.2493455784 Eh

Convergence Acceleration:
 AO-DIIS                CNVDIIS         .... on
   Start iteration      DIISMaxIt       ....    12
   Startup error        DIISStart       ....  0.200000
   # of expansion vecs  DIISMaxEq       ....     5
   Bias factor          DIISBfac        ....   1.050
   Max. coefficient     DIISMaxC        ....  10.000
 MO-DIIS                CNVKDIIS        .... off
 Trust-Rad. Augm. Hess. CNVTRAH         .... auto
   Auto Start mean grad. ratio tolernc. ....  1.125000
   Auto Start start iteration           ....    50
   Auto Start num. interpolation iter.  ....    10
   Max. Number of Micro iterations      ....    24
   Max. Number of Macro iterations      .... Maxiter - #DIIS iter
   Number of Davidson start vectors     ....     2
   Converg. threshold    (grad. norm)   ....   1.000e-05
   Grad. Scal. Fac. for Micro threshold ....   0.100
   Minimum threshold for Micro iter.    ....   1.000e-02
   NR start threshold (gradient norm)   ....   1.000e-04
   Initial trust radius                 ....   0.400
   Minimum AH scaling param. (alpha)    ....   1.000
   Maximum AH scaling param. (alpha)    .... 1000.000
   Quad. conv. algorithm                .... NR
   White noise on init. David. guess    .... on
   Maximum white noise                  ....   0.010
   Pseudo random numbers                .... off
   Inactive MOs                         .... canonical
   Orbital update algorithm             .... Taylor
   Preconditioner                       .... Diag
   Full preconditioner red. dimension   ....   250
 SOSCF                 CNVSOSCF           .... on
   Start iteration     SOSCFMaxIt         ....   150
   Startup grad/error  SOSCFStart         ....  0.003300
   Hessian update      SOSCFHessUp        .... L-BFGS
   Autom. constraints  SOSCFAutoConstrain .... off
 Level Shifting         CNVShift        .... on
   Level shift para.    LevelShift      ....    0.2500
   Turn off err/grad.   ShiftErr        ....    0.0010
 Zerner damping         CNVZerner       .... off
 Static damping         CNVDamp         .... on
   Fraction old density DampFac         ....    0.7000
   Max. Damping (<1)    DampMax         ....    0.9800
   Min. Damping (>=0)   DampMin         ....    0.0000
   Turn off err/grad.   DampErr         ....    0.1000

SCF Procedure:
 Maximum # iterations   MaxIter         ....   125
 SCF integral mode      SCFMode         .... Direct
   Integral package                     .... SHARK and LIBINT hybrid scheme
 Reset frequency        DirectResetFreq ....    20
 Integral Threshold     Thresh          ....  2.500e-11 Eh
 Primitive CutOff       TCut            ....  2.500e-12 Eh

Convergence Tolerance:
 Convergence Check Mode ConvCheckMode   .... Total+1el-Energy
 Convergence forced     ConvForced      .... 0
 Energy Change          TolE            ....  1.000e-08 Eh
 1-El. energy change                    ....  1.000e-05 Eh
 Orbital Gradient       TolG            ....  1.000e-05
 Orbital Rotation angle TolX            ....  1.000e-05
 DIIS Error             TolErr          ....  5.000e-07

------------------------------
INITIAL GUESS: MODEL POTENTIAL
------------------------------
Loading Hartree-Fock densities                     ... done
Calculating cut-offs                               ... done
Initializing the effective Hamiltonian             ... done
Setting up the integral package (SHARK)            ... done
Starting the Coulomb interaction                   ... done (   0.0 sec)
Making the grid                                    ... done (   0.0 sec)
Mapping shells                                     ... done
Starting the XC term evaluation                    ... done (   0.0 sec)
  promolecular density results
     # of electrons  =     29.996393201
     EX              =    -22.197086358
     EC              =      0.000000000
     EX+EC           =    -22.197086358
Transforming the Hamiltonian                       ... done (   0.0 sec)
Diagonalizing the Hamiltonian                      ... done (   0.0 sec)
Back transforming the eigenvectors                 ... done (   0.0 sec)
Now organizing SCF variables                       ... done
                      ------------------
                      INITIAL GUESS DONE (   0.1 sec)
                      ------------------
             **** ENERGY FILE WAS UPDATED (/cluster/projects/nn14654k/ylvaos/basis_set_n_funcs/functionals/gga_x_pbe/C4H6/inp/C4H6_gga_x_pbe_augccpvtz.en.tmp) ****
Finished Guess after   0.2 sec
Maximum memory used throughout the entire GUESS-calculation: 17.8 MB


           ************************************************************
           *        Program running with 8 parallel MPI-processes     *
           *              working on a common directory               *
           ************************************************************

-------------------------------------------------------------------------------------------
                                      ORCA LEAN-SCF
                              memory conserving SCF solver
-------------------------------------------------------------------------------------------

----------------------------------------D-I-I-S--------------------------------------------
Iteration    Energy (Eh)           Delta-E    RMSDP     MaxDP     DIISErr   Damp  Time(sec)
-------------------------------------------------------------------------------------------
               ***  Starting incremental Fock matrix formation  ***
    1    -154.7228312984408376     0.00e+00  3.64e-03  5.00e-02  1.77e-01  0.700   2.4
    2    -154.7805645704912649    -5.77e-02  2.50e-03  3.19e-02  8.39e-02  0.700   2.4
                               ***Turning on AO-DIIS***
    3    -154.8008136437464941    -2.02e-02  1.14e-03  1.43e-02  2.18e-02  0.700   2.4
    4    -154.8123904051056456    -1.16e-02  2.01e-03  2.19e-02  9.82e-03  0.000   2.3
    5    -154.8387723123018986    -2.64e-02  4.35e-04  3.93e-03  7.61e-03  0.000   2.3
                              *** Initializing SOSCF ***
---------------------------------------S-O-S-C-F--------------------------------------
Iteration    Energy (Eh)           Delta-E    RMSDP     MaxDP     MaxGrad    Time(sec)
--------------------------------------------------------------------------------------
    6    -154.8391200632731284    -3.48e-04  1.71e-04  1.47e-03  2.09e-03     2.3
               *** Restarting incremental Fock matrix formation ***
    7    -154.8391517682230756    -3.17e-05  1.55e-04  1.79e-03  4.73e-04     2.3
    8    -154.8391496981504929     2.07e-06  4.76e-05  6.90e-04  5.95e-04     2.1
    9    -154.8391563684086236    -6.67e-06  4.16e-05  4.38e-04  2.40e-04     2.1
   10    -154.8391549178045352     1.45e-06  1.90e-05  2.16e-04  2.83e-04     2.1
   11    -154.8391570832421280    -2.17e-06  7.63e-06  7.23e-05  2.14e-05     2.1
   12    -154.8391570805448509     2.70e-09  3.52e-06  4.19e-05  2.67e-05     2.0
                 **** Energy Check signals convergence ****

               *****************************************************
               *                     SUCCESS                       *
               *           SCF CONVERGED AFTER  12 CYCLES          *
               *****************************************************

             **** ENERGY FILE WAS UPDATED (/cluster/projects/nn14654k/ylvaos/basis_set_n_funcs/functionals/gga_x_pbe/C4H6/inp/C4H6_gga_x_pbe_augccpvtz.en.tmp) ****

----------------
TOTAL SCF ENERGY
----------------

Total Energy       :       -154.83915710123290 Eh           -4213.38767 eV

Components:
Nuclear Repulsion  :        109.24934557835338 Eh            2972.82583 eV
Electronic Energy  :       -264.08850267958627 Eh           -7186.21350 eV
One Electron Energy:       -424.01275246187078 Eh          -11537.97357 eV
Two Electron Energy:        159.92424978228451 Eh            4351.76008 eV

Virial components:
Potential Energy   :       -309.68637619507831 Eh           -8426.99472 eV
Kinetic Energy     :        154.84721909384538 Eh            4213.60705 eV
Virial Ratio       :          1.99994793582565

DFT components:
N(Alpha)           :       15.000007802269 electrons
N(Beta)            :       15.000007802269 electrons
N(Total)           :       30.000015604537 electrons
E(X)               :      -22.704921301989 Eh       
E(C)               :        0.000000000000 Eh       
E(XC)              :      -22.704921301989 Eh       

---------------
SCF CONVERGENCE
---------------

  Last Energy change         ...   -2.6973e-09  Tolerance :   1.0000e-08
  Last MAX-Density change    ...    4.1935e-05  Tolerance :   1.0000e-07
  Last RMS-Density change    ...    3.5235e-06  Tolerance :   5.0000e-09
  Last DIIS Error            ...    2.0902e-03  Tolerance :   5.0000e-07
  Last Orbital Gradient      ...    2.6693e-05  Tolerance :   1.0000e-05
  Last Orbital Rotation      ...    4.4751e-05  Tolerance :   1.0000e-05


----------------
ORBITAL ENERGIES
----------------

  NO   OCC          E(Eh)            E(eV) 
   0   2.0000      -9.881335      -268.8848 
   1   2.0000      -9.880078      -268.8506 
   2   2.0000      -9.880003      -268.8485 
   3   2.0000      -9.863751      -268.4063 
   4   2.0000      -0.756421       -20.5833 
   5   2.0000      -0.610000       -16.5989 
   6   2.0000      -0.518325       -14.1043 
   7   2.0000      -0.446423       -12.1478 
   8   2.0000      -0.397742       -10.8231 
   9   2.0000      -0.388394       -10.5687 
  10   2.0000      -0.347513        -9.4563 
  11   2.0000      -0.299771        -8.1572 
  12   2.0000      -0.244151        -6.6437 
  13   2.0000      -0.224160        -6.0997 
  14   2.0000      -0.194780        -5.3002 
  15   0.0000      -0.014679        -0.3994 
  16   0.0000      -0.011804        -0.3212 
  17   0.0000       0.004682         0.1274 
  18   0.0000       0.005603         0.1525 
  19   0.0000       0.025593         0.6964 
  20   0.0000       0.030235         0.8227 
  21   0.0000       0.039291         1.0692 
  22   0.0000       0.039914         1.0861 
  23   0.0000       0.052082         1.4172 
  24   0.0000       0.060026         1.6334 
  25   0.0000       0.069024         1.8782 
*Only the first 10 virtual orbitals were printed.

                    ********************************
                    * MULLIKEN POPULATION ANALYSIS *
                    ********************************

-----------------------
MULLIKEN ATOMIC CHARGES
-----------------------
   0 C :   -0.438493
   1 C :    0.669426
   2 C :   -0.678898
   3 C :   -0.678906
   4 H :    0.205550
   5 H :    0.205509
   6 H :    0.178952
   7 H :    0.178953
   8 H :    0.178952
   9 H :    0.178954
Sum of atomic charges:   -0.0000000

--------------------------------
MULLIKEN REDUCED ORBITAL CHARGES
--------------------------------
  0 C s       :     3.438285  s :     3.438285
      pz      :     0.961511  p :     3.086992
      px      :     0.998257
      py      :     1.127224
      dz2     :    -0.001942  d :    -0.082374
      dxz     :     0.015798
      dyz     :    -0.109229
      dx2y2   :     0.012740
      dxy     :     0.000259
      f0      :    -0.007184  f :    -0.004410
      f+1     :    -0.000040
      f-1     :     0.000527
      f+2     :     0.002578
      f-2     :    -0.000510
      f+3     :     0.000020
      f-3     :     0.000198

  1 C s       :     3.059865  s :     3.059865
      pz      :     0.514475  p :     2.483501
      px      :     0.937310
      py      :     1.031717
      dz2     :    -0.049587  d :    -0.176511
      dxz     :     0.017701
      dyz     :    -0.136602
      dx2y2   :    -0.008403
      dxy     :     0.000381
      f0      :    -0.013225  f :    -0.036282
      f+1     :     0.000344
      f-1     :    -0.016550
      f+2     :    -0.002359
      f-2     :    -0.004280
      f+3     :    -0.000075
      f-3     :    -0.000138

  2 C s       :     3.683961  s :     3.683961
      pz      :     1.014497  p :     2.929373
      px      :     1.055852
      py      :     0.859024
      dz2     :     0.016521  d :     0.060950
      dxz     :     0.015695
      dyz     :     0.025033
      dx2y2   :     0.006816
      dxy     :    -0.003116
      f0      :     0.000465  f :     0.004614
      f+1     :     0.001366
      f-1     :     0.001118
      f+2     :    -0.001202
      f-2     :     0.001135
      f+3     :    -0.001052
      f-3     :     0.002783

  3 C s       :     3.683971  s :     3.683971
      pz      :     1.014493  p :     2.929371
      px      :     1.055851
      py      :     0.859028
      dz2     :     0.016522  d :     0.060950
      dxz     :     0.015695
      dyz     :     0.025033
      dx2y2   :     0.006816
      dxy     :    -0.003116
      f0      :     0.000465  f :     0.004614
      f+1     :     0.001366
      f-1     :     0.001118
      f+2     :    -0.001202
      f-2     :     0.001135
      f+3     :    -0.001052
      f-3     :     0.002783

  4 H s       :     0.752480  s :     0.752480
      pz      :     0.009948  p :     0.039707
      px      :     0.029786
      py      :    -0.000026
      dz2     :     0.000191  d :     0.002262
      dxz     :     0.000691
      dyz     :    -0.001266
      dx2y2   :     0.000293
      dxy     :     0.002352

  5 H s       :     0.752515  s :     0.752515
      pz      :     0.009949  p :     0.039714
      px      :     0.029786
      py      :    -0.000021
      dz2     :     0.000191  d :     0.002262
      dxz     :     0.000691
      dyz     :    -0.001266
      dx2y2   :     0.000293
      dxy     :     0.002352

  6 H s       :     0.774405  s :     0.774405
      pz      :     0.023769  p :     0.039810
      px      :     0.001207
      py      :     0.014833
      dz2     :     0.000952  d :     0.006832
      dxz     :     0.001596
      dyz     :     0.001047
      dx2y2   :     0.002921
      dxy     :     0.000316

  7 H s       :     0.774404  s :     0.774404
      pz      :     0.023769  p :     0.039811
      px      :     0.001208
      py      :     0.014834
      dz2     :     0.000952  d :     0.006832
      dxz     :     0.001596
      dyz     :     0.001047
      dx2y2   :     0.002921
      dxy     :     0.000316

  8 H s       :     0.774406  s :     0.774406
      pz      :     0.023769  p :     0.039810
      px      :     0.001207
      py      :     0.014834
      dz2     :     0.000952  d :     0.006832
      dxz     :     0.001596
      dyz     :     0.001047
      dx2y2   :     0.002921
      dxy     :     0.000316

  9 H s       :     0.774403  s :     0.774403
      pz      :     0.023769  p :     0.039811
      px      :     0.001207
      py      :     0.014834
      dz2     :     0.000952  d :     0.006832
      dxz     :     0.001596
      dyz     :     0.001047
      dx2y2   :     0.002921
      dxy     :     0.000316



                     *******************************
                     * LOEWDIN POPULATION ANALYSIS *
                     *******************************

----------------------
LOEWDIN ATOMIC CHARGES
----------------------
   0 C :    0.536518
   1 C :   -0.127056
   2 C :    0.349518
   3 C :    0.349518
   4 H :   -0.233783
   5 H :   -0.233783
   6 H :   -0.160233
   7 H :   -0.160233
   8 H :   -0.160233
   9 H :   -0.160233

-------------------------------
LOEWDIN REDUCED ORBITAL CHARGES
-------------------------------
  0 C s       :     2.544222  s :     2.544222
      pz      :     0.887863  p :     2.363911
      px      :     0.644094
      py      :     0.831955
      dz2     :     0.109063  d :     0.401461
      dxz     :     0.053659
      dyz     :     0.208415
      dx2y2   :     0.028431
      dxy     :     0.001894
      f0      :     0.043510  f :     0.153887
      f+1     :     0.031277
      f-1     :     0.057364
      f+2     :     0.012774
      f-2     :     0.001277
      f+3     :     0.000246
      f-3     :     0.007439

  1 C s       :     2.493396  s :     2.493396
      pz      :     0.918534  p :     2.284660
      px      :     0.618727
      py      :     0.747400
      dz2     :     0.272903  d :     0.927982
      dxz     :     0.225527
      dyz     :     0.319194
      dx2y2   :     0.040114
      dxy     :     0.070243
      f0      :     0.124798  f :     0.421018
      f+1     :     0.050395
      f-1     :     0.122823
      f+2     :     0.036308
      f-2     :     0.072555
      f+3     :     0.012384
      f-3     :     0.001754

  2 C s       :     2.466179  s :     2.466179
      pz      :     0.737506  p :     2.256569
      px      :     0.796496
      py      :     0.722566
      dz2     :     0.130495  d :     0.647743
      dxz     :     0.086947
      dyz     :     0.146851
      dx2y2   :     0.098278
      dxy     :     0.185171
      f0      :     0.056953  f :     0.279992
      f+1     :     0.029149
      f-1     :     0.039825
      f+2     :     0.056093
      f-2     :     0.021154
      f+3     :     0.044435
      f-3     :     0.032383

  3 C s       :     2.466179  s :     2.466179
      pz      :     0.737506  p :     2.256569
      px      :     0.796496
      py      :     0.722566
      dz2     :     0.130495  d :     0.647743
      dxz     :     0.086947
      dyz     :     0.146851
      dx2y2   :     0.098278
      dxy     :     0.185171
      f0      :     0.056953  f :     0.279992
      f+1     :     0.029149
      f-1     :     0.039825
      f+2     :     0.056093
      f-2     :     0.021154
      f+3     :     0.044435
      f-3     :     0.032383

  4 H s       :     0.692748  s :     0.692748
      pz      :     0.093745  p :     0.331687
      px      :     0.093277
      py      :     0.144665
      dz2     :     0.051392  d :     0.209348
      dxz     :     0.025817
      dyz     :     0.050874
      dx2y2   :     0.047735
      dxy     :     0.033530

  5 H s       :     0.692748  s :     0.692748
      pz      :     0.093745  p :     0.331687
      px      :     0.093277
      py      :     0.144665
      dz2     :     0.051392  d :     0.209348
      dxz     :     0.025817
      dyz     :     0.050874
      dx2y2   :     0.047735
      dxy     :     0.033530

  6 H s       :     0.654239  s :     0.654239
      pz      :     0.084999  p :     0.302118
      px      :     0.130083
      py      :     0.087036
      dz2     :     0.031017  d :     0.203876
      dxz     :     0.040358
      dyz     :     0.024006
      dx2y2   :     0.066236
      dxy     :     0.042260

  7 H s       :     0.654239  s :     0.654239
      pz      :     0.084999  p :     0.302118
      px      :     0.130083
      py      :     0.087036
      dz2     :     0.031017  d :     0.203876
      dxz     :     0.040358
      dyz     :     0.024006
      dx2y2   :     0.066236
      dxy     :     0.042260

  8 H s       :     0.654239  s :     0.654239
      pz      :     0.084999  p :     0.302118
      px      :     0.130083
      py      :     0.087036
      dz2     :     0.031017  d :     0.203876
      dxz     :     0.040358
      dyz     :     0.024006
      dx2y2   :     0.066236
      dxy     :     0.042260

  9 H s       :     0.654239  s :     0.654239
      pz      :     0.084999  p :     0.302118
      px      :     0.130083
      py      :     0.087036
      dz2     :     0.031017  d :     0.203876
      dxz     :     0.040358
      dyz     :     0.024006
      dx2y2   :     0.066236
      dxy     :     0.042260



                      *****************************
                      * MAYER POPULATION ANALYSIS *
                      *****************************

  NA   - Mulliken gross atomic population
  ZA   - Total nuclear charge
  QA   - Mulliken gross atomic charge
  VA   - Mayer's total valence
  BVA  - Mayer's bonded valence
  FA   - Mayer's free valence

  ATOM       NA         ZA         QA         VA         BVA        FA
  0 C      6.4385     6.0000    -0.4385     3.0025     3.0025     0.0000
  1 C      5.3306     6.0000     0.6694     2.5579     2.5579     0.0000
  2 C      6.6789     6.0000    -0.6789     3.4217     3.4217    -0.0000
  3 C      6.6789     6.0000    -0.6789     3.4216     3.4216    -0.0000
  4 H      0.7944     1.0000     0.2056     0.9013     0.9013    -0.0000
  5 H      0.7945     1.0000     0.2055     0.9014     0.9014     0.0000
  6 H      0.8210     1.0000     0.1790     0.9729     0.9729    -0.0000
  7 H      0.8210     1.0000     0.1790     0.9729     0.9729    -0.0000
  8 H      0.8210     1.0000     0.1790     0.9729     0.9729    -0.0000
  9 H      0.8210     1.0000     0.1790     0.9729     0.9729    -0.0000

  Mayer bond orders larger than 0.100000
B(  0-C ,  1-C ) :   1.3555 B(  0-C ,  2-C ) :  -0.1468 B(  0-C ,  3-C ) :  -0.1468 
B(  0-C ,  4-H ) :   0.9377 B(  0-C ,  5-H ) :   0.9378 B(  1-C ,  2-C ) :   0.6568 
B(  1-C ,  3-C ) :   0.6568 B(  2-C ,  3-C ) :   0.9885 B(  2-C ,  6-H ) :   0.9516 
B(  2-C ,  7-H ) :   0.9516 B(  3-C ,  8-H ) :   0.9516 B(  3-C ,  9-H ) :   0.9516 


-------
TIMINGS
-------

Total SCF time: 0 days 0 hours 0 min 28 sec 

Total time                  ....      28.749 sec
Sum of individual times     ....      26.841 sec  ( 93.4%)

SCF preparation             ....       0.067 sec  (  0.2%)
Fock matrix formation       ....      26.309 sec  ( 91.5%)
  Startup                   ....       0.009 sec  (  0.0% of F)
  Coulomb formation         ....      26.644 sec  (101.3% of F)
  XC integration            ....       1.400 sec  (  5.3% of F)
    XC Preparation          ....       0.000 sec  (  0.0% of XC)
    Basis function eval.    ....       0.220 sec  ( 15.7% of XC)
    Density eval.           ....       0.264 sec  ( 18.8% of XC)
    XC-Functional eval.     ....       0.018 sec  (  1.3% of XC)
    XC-Potential eval.      ....       0.723 sec  ( 51.7% of XC)
Diagonalization             ....       0.000 sec  (  0.0%)
Density matrix formation    ....       0.067 sec  (  0.2%)
Total Energy calculation    ....       0.020 sec  (  0.1%)
Population analysis         ....       0.017 sec  (  0.1%)
Orbital Transformation      ....       0.035 sec  (  0.1%)
Orbital Orthonormalization  ....       0.000 sec  (  0.0%)
DIIS solution               ....       0.209 sec  (  0.7%)
SOSCF solution              ....       0.117 sec  (  0.4%)
Finished LeanSCF after  28.8 sec

Maximum memory used throughout the entire LEANSCF-calculation: 22.2 MB


           ************************************************************
           *        Program running with 8 parallel MPI-processes     *
           *              working on a common directory               *
           ************************************************************

------------------------------------------------------------------------------
                         ORCA PROPERTY INTEGRAL CALCULATIONS
------------------------------------------------------------------------------

GBWName                                   ... /cluster/projects/nn14654k/ylvaos/basis_set_n_funcs/functionals/gga_x_pbe/C4H6/inp/C4H6_gga_x_pbe_augccpvtz.gbw
Number of atoms                           ...     10
Number of basis functions                 ...    346
Max core memory                           ...   4096 MB

Dipole integrals                          ... YES
Quadrupole integrals                      ... YES
Linear momentum integrals                 ...  NO
Angular momentum integrals                ...  NO
Higher moments length integrals           ...  NO
Higher moments velocity integrals         ...  NO
Kinetic energy integrals                  ...  NO
GIAO right hand sides                     ...  NO
GIAO dipole derivative integrals          ...  NO
SOC integrals                             ...  NO
EPR diamagnetic integrals (GIAO)          ...  NO
EPR gauge integrals                       ...  NO
Field gradient integrals                  ...  NO (   0 nuclei)
Spin-dipole/Fermi contact integrals       ...  NO (   0 nuclei)
Contact density integrals                 ...  NO (   0 nuclei)
Nucleus-orbit integrals                   ...  NO (   0 nuclei)
Geometric perturbations                   ...  NO (  10 nuclei)

Choice of electric origin   ... Center of mass
Position of electric origin ... (  0.0000,  0.0000,  0.0124) 
Choice of magnetic origin   ... GIAO
Position of magnetic origin ... (  0.0000,  0.0000,  0.0000) 

Calculating integrals                     ... Electric Dipole (Length)     done (  0.0 sec)
Calculating integrals                     ... Electric Quadrupole (Length) done (  0.0 sec)

Property integrals calculated in   0.0 sec

Maximum memory used throughout the entire PROPINT-calculation: 19.8 MB
------------------------------------------------------------------------------
                           ORCA ORBITAL LOCALIZATION
------------------------------------------------------------------------------

Input orbitals are from                  ... /cluster/projects/nn14654k/ylvaos/basis_set_n_funcs/functionals/gga_x_pbe/C4H6/inp/C4H6_gga_x_pbe_augccpvtz.gbw
Output orbitals are to                   ... /cluster/projects/nn14654k/ylvaos/basis_set_n_funcs/functionals/gga_x_pbe/C4H6/inp/C4H6_gga_x_pbe_augccpvtz.loc
Max. number of iterations                ... 128
Localizations seeded randomly            ... on
Convergence tolerance                    ... 1.000e-06
Threshold for strong local MOs           ... 9.500e-01
Threshold for bond MOs                   ... 8.500e-01
Operator                                 ... 0
Orbital range for localization           ... 4 to 14
Localization criterion                   ... NEW-BOYS
Doing the dipole integrals               ... o.k.
Initial value of the localization sum :    43.239951
ITERATION   0 : L=   78.3575434595 DL=  3.51e+01 (AVERGE_DL)=    0.7990630022 
ITERATION   1 : L=   86.7083480330 DL=  8.35e+00 (AVERGE_DL)=    0.3896572987 
ITERATION   2 : L=   86.8885808272 DL=  1.80e-01 (AVERGE_DL)=    0.0572447368 
ITERATION   3 : L=   86.8893860121 DL=  8.05e-04 (AVERGE_DL)=    0.0038261894 
ITERATION   4 : L=   86.8893914416 DL=  5.43e-06 (AVERGE_DL)=    0.0003141959 
ITERATION   5 : L=   86.8893914908 DL=  4.91e-08 (AVERGE_DL)=    0.0000298846 
LOCALIZATION SUM CONVERGED


--------------------------------------------------------------------------------
                    LOCALIZED MOLECULAR ORBITAL COMPOSITIONS
--------------------------------------------------------------------------------

The Mulliken populations for each LMO on each atom are computed
The LMO`s will be ordered according to atom index and type
  (A) Strongly localized MO`s have populations of >=0.950 on one atom
  (B) Two center bond orbitals have populations of >=0.850 on two atoms
  (C) Other MO`s are considered to be `delocalized`

FOUND  -   0 strongly local MO`s
       -  11 two center bond MO`s
       -   0 significantly delocalized MO`s

Bond-like localized orbitals:
MO  14:   9H  -   0.417816  and   3C  -   0.636113
MO  13:   8H  -   0.417819  and   3C  -   0.636109
MO  12:   7H  -   0.417817  and   2C  -   0.636110
MO  11:   6H  -   0.417819  and   2C  -   0.636111
MO  10:   5H  -   0.419624  and   0C  -   0.646977
MO   9:   4H  -   0.419617  and   0C  -   0.646961
MO   8:   3C  -   0.571450  and   2C  -   0.571446
MO   7:   3C  -   0.561212  and   1C  -   0.536599
MO   6:   2C  -   0.561207  and   1C  -   0.536598
MO   5:   1C  -   0.464801  and   0C  -   0.537349
MO   4:   1C  -   0.464800  and   0C  -   0.537350
Localized MO's were stored in: /cluster/projects/nn14654k/ylvaos/basis_set_n_funcs/functionals/gga_x_pbe/C4H6/inp/C4H6_gga_x_pbe_augccpvtz.loc

-------------------------   --------------------
FINAL SINGLE POINT ENERGY      -154.839157101233
-------------------------   --------------------



           ************************************************************
           *        Program running with 8 parallel MPI-processes     *
           *              working on a common directory               *
           ************************************************************

------------------------------------------------------------------------------
                              ORCA PROPERTY CALCULATIONS
------------------------------------------------------------------------------

GBWName                                 ... /cluster/projects/nn14654k/ylvaos/basis_set_n_funcs/functionals/gga_x_pbe/C4H6/inp/C4H6_gga_x_pbe_augccpvtz.gbw
Number of atoms                         ...     10
Number of basis functions               ...    346
Max core memory                         ...   4096 MB

Electric properties:
Dipole moment                           ... YES
Quadrupole moment                       ... YES
Static polarizability (Dipole/Dipole)   ...  NO
Static polarizability (Dipole/Quad.)    ...  NO
Static polarizability (Quad./Quad.)     ...  NO
Static polarizability (Velocity)        ...  NO
Static hyperpolarizability              ...  NO

Atomic electric properties:
Dipole moment                           ...  NO
Quadrupole moment                       ...  NO
Static polarizability                   ...  NO

Choice of electric origin               ... Center of mass
Position of electric origin             ...     0.000000     0.000000     0.012360

General magnetic properties:
Magnetizability                         ...  NO

EPR properties:
g-Tensor (aka g-matrix)                 ...  NO
Zero-Field splitting spin-orbit         ...  NO
Zero-field splitting spin-spin          ...  NO
Hyperfine couplings                     ...  NO (   0 nuclei)
Quadrupole couplings                    ...  NO (   0 nuclei)
Contact density                         ...  NO (   0 nuclei)

NMR properties:
Chemical shifts                         ...  NO (   0 nuclei)
Spin-rotation constants                 ...  NO (   0 nuclei)
Spin-spin couplings                     ...  NO (   0 nuclei,    0 pairs)

Choice of magnetic origin               ... GIAO
Position of magnetic origin             ...     0.000000     0.000000     0.000000

Properties with geometric perturbations:
SCF Hessian                             ...  NO
IR spectrum                             ...  NO
VCD spectrum                            ...  NO
X-ray spectroscopy properties:
SCF XES/XAS/RIXS spectra                ...  NO

SCF SOC stabilization energy            ...  NO
Diagonal Born-Oppenheimer correction    ...  NO

-------------
DIPOLE MOMENT
-------------

Method             : SCF
Type of density    : Electron Density
Multiplicity       :   1
Irrep              :   0
Energy             :  -154.8391571012328995 Eh
Basis              : AO
                                X                 Y                 Z
Electronic contribution:     -0.000000000       0.000000015       0.196121594
Nuclear contribution   :      0.000000000       0.000000000      -0.371559272
                        -----------------------------------------
Total Dipole Moment    :     -0.000000000       0.000000015      -0.175437678
                        -----------------------------------------
Magnitude (a.u.)       :      0.175437678
Magnitude (Debye)      :      0.445927139



--------------------
Rotational spectrum 
--------------------
 
Rotational constants in cm-1:             0.643527             0.230144             0.181788 
Rotational constants in MHz :         19292.450199          6899.535423          5449.866904 

Dipole components along the rotational axes: 
x,y,z [a.u.] :    -0.175438     0.000000    -0.000000 
x,y,z [Debye]:    -0.445927     0.000000    -0.000000 

 

Dipole moment calculation done in   0.0 sec 

-----------------
QUADRUPOLE MOMENT
-----------------

Method             : SCF
Type of density    : Electron Density
Multiplicity       :   1
Irrep              :   0
Energy             :  -154.8391571012328995 Eh
Basis              : AO

                XX              YY              ZZ              XY              XZ              YZ
  NUC       11.888664720    55.799971245   152.416444257     0.000000000     0.000000000     0.000000000
  EL       -31.670623313   -74.740675295  -172.115136007    -0.000000009     0.000000048     0.000000060
  TOT      -19.781958593   -18.940704051   -19.698691750    -0.000000009     0.000000048     0.000000060 (a.u.)
           -26.607410851   -25.475894720   -26.495414098    -0.000000012     0.000000064     0.000000080 (Buckingham)

diagonalized tensor:
           -19.781958593   -19.698691750   -18.940704051 (a.u.)
           -26.607410851   -26.495414098   -25.475894720 (Buckingham)
            -1.243512883    -0.907522626     2.151035509 (traceless form in Buckingham)

             1.000000000     0.000000575    -0.000000011
             0.000000011    -0.000000079     1.000000000
            -0.000000575     1.000000000     0.000000079
        
Isotropic quadrupole :   -19.473784798

Quadrupole moment calculation done in   0.0 sec (  0.0 sec for integrals)

Maximum memory used throughout the entire PROP-calculation: 17.1 MB

--------------------------------
SUGGESTED CITATIONS FOR THIS RUN
--------------------------------

Below you find a list of papers that are relevant to this ORCA run
We neither can nor want to force you to cite these papers, but we appreciate if you do
You receive ORCA, which is the product of decades of hard work by many enthusiastic individuals, for free
The only thing we kindly ask in return is that you cite our papers,
We deeply appreciate it, if you show your appreciation for ORCA by not just citing the generic ORCA reference.

Please note that relegating all ORCA citations to the supporting information does *not* help us.
SI sections are not indexed - citations you put there will not count into any citation statistics
But we need these citations in order to attract the funding resources that allow us to do what we are doing

Therefore, if you are a happy ORCA user, please consider citing a few of the papers listed below in the main body of your paper

In addition to the list printed below, the program has created the file /cluster/projects/nn14654k/ylvaos/basis_set_n_funcs/functionals/gga_x_pbe/C4H6/inp/C4H6_gga_x_pbe_augccpvtz.bibtex that contains the list in bibtex format
You can import this file easily into all common literature databanks and citation aid programs

It goes without saying that in many instances, there are alternative algorithms to achieve similar
results as the ones you have gotten from ORCA. It is, of course, also the case that in some instances
ORCA just re-implements algorithms worked out by others. We are fully aware of that and we are also
fully appreciative of our colleagues work. Hence this citation list should not be read as indicating
that the listed papers, which are focused on our own work, are the only ones worth citing. It simply
meant to make it easier for users to cite ORCA specific papers. It is not a substitute for doing your
own literature research and citing the relevant literature in a scientifically appropriate manner.

List of essential papers. We consider these as the minimum necessary citations

  1. Neese, F.
     Software update: the ORCA program system, version 6.0
     WIRES Comput. Molec. Sci. 2025 15(1), e70019
     doi.org/10.1002/wcms.70019

List of papers to cite with high priority. The work reported in these papers was absolutely
necessary for this run to complete.
Our perspective: the developers of density functionals and basis sets usually get cited in chemistry papers
Good! But without the algorithms to do something with them, the functionals or basis sets would not do anything.
Hence, in our opinion, the algorithm design and method developments papers are equally worthy of getting cited

  1. Lehtola, S.; Steigemann, C.; Oliveira, M.; Marques, M.
     Recent developments in Libxc - A comprehensive library of functionals for density functional theory
     Software X 2018 7 , 
     doi.org/10.1016/j.softx.2017.11.002
  2. Neese, F.
     The SHARK Integral Generation and Digestion System
     J. Comp. Chem. 2022 44(3), 381
     doi.org/10.1002/jcc.26942

List of suggested additional citations. These are papers that are important in the 'surrounding' of 
of this run, or papers that preceded the highly important papers. If you like your results we are grateful for a citation.

  1. Neese, F.
     The ORCA program system
     WIRES Comput. Molec. Sci. 2012 2(1), 73-78
     doi.org/10.1002/wcms.81
  2. Neese, F.
     Software update: the ORCA program system, version 4.0
     WIRES Comput. Molec. Sci. 2018 8(1), 1-6
     doi.org/10.1002/wcms.1327
  3. Neese, F.; Wennmohs, F.; Becker, U.; Riplinger, C.
     The ORCA quantum chemistry program package
     J. Chem. Phys. 2020 152(22), 224108
     doi.org/10.1063/5.0004608
  4. Neese, F.
     Software update: The ORCA program system—Version 5.0
     WIRES Comput. Molec. Sci. 2022 12(1), e1606
     doi.org/10.1002/wcms.1606

List of optional additional citations

  1. Neese, F.
     Approximate second-order SCF convergence for spin unrestricted wavefunctions
     Chem. Phys. Lett. 2000 325(1-3), 93-98
     doi.org/10.1016/s0009-2614(00)00662-x

Timings for individual modules:

Sum of individual times          ...       30.892 sec (=   0.515 min)
Startup calculation              ...        0.904 sec (=   0.015 min)   2.9 %
SCF iterations                   ...       29.459 sec (=   0.491 min)  95.4 %
Property integrals               ...        0.275 sec (=   0.005 min)   0.9 %
Property calculations            ...        0.244 sec (=   0.004 min)   0.8 %
Orbital localization             ...        0.009 sec (=   0.000 min)   0.0 %
                             ****ORCA TERMINATED NORMALLY****
TOTAL RUN TIME: 0 days 0 hours 0 minutes 31 seconds 410 msec
