
                                 *****************
                                 * O   R   C   A *
                                 *****************

                                            #,                                       
                                            ###                                      
                                            ####                                     
                                            #####                                    
                                            ######                                   
                                           ########,                                 
                                     ,,################,,,,,                         
                               ,,#################################,,                 
                          ,,##########################################,,             
                       ,#########################################, ''#####,          
                    ,#############################################,,   '####,        
                  ,##################################################,,,,####,       
                ,###########''''           ''''###############################       
              ,#####''   ,,,,##########,,,,          '''####'''          '####       
            ,##' ,,,,###########################,,,                        '##       
           ' ,,###''''                  '''############,,,                           
         ,,##''                                '''############,,,,        ,,,,,,###''
      ,#''                                            '''#######################'''  
     '                                                          ''''####''''         
             ,#######,   #######,   ,#######,      ##                                
            ,#'     '#,  ##    ##  ,#'     '#,    #''#        ,####,    ,#,          
            ##       ##  ##   ,#'  ##            #'  '#       #'       ,# #          
            ##       ##  #######   ##           ,######,      #####,      #          
            '#,     ,#'  ##    ##  '#,     ,#' ,#      #,     #,   #      #          
             '#######'   ##     ##  '#######'  #'      '#     '####' #    #          



                #########################################################
                #                        -***-                          #
                #          Department of theory and spectroscopy        #
                #                                                       #
                #                      Frank Neese                      #
                #                                                       #
                #     Directorship, Architecture, Infrastructure        #
                #                    SHARK, DRIVERS                     #
                #        Core code/Algorithms in most modules           #
                #                                                       #
                #        Max Planck Institute fuer Kohlenforschung      #
                #                Kaiser Wilhelm Platz 1                 #
                #                 D-45470 Muelheim/Ruhr                 #
                #                      Germany                          #
                #                                                       #
                #                  All rights reserved                  #
                #                        -***-                          #
                #########################################################


                         Program Version 6.1.1  -  RELEASE   -
                                (GIT: $487d211c$)
                          ($2025-11-21 10:33:24 +0100$)


 With contributions from (in alphabetic order):
[Max-Planck-Institut fuer Kohlenforschung]                               
  Daniel Aravena         : Magnetic Suceptibility                        
  Michael Atanasov       : Ab Initio Ligand Field Theory (pilot matlab implementation)
  Alexander A. Auer      : GIAO ZORA, VPT2 properties, NMR spectrum      
  Ute Becker             : All parallelization in ORCA, NUMFREQ, NUMCALC 
  Giovanni Bistoni       : ED, misc. LED, open-shell LED, HFLD           
  Dmytro Bykov           : pre 5.0 version of the SCF Hessian            
  Marcos Casanova-Páez   : Triplet and SCS-CIS(D). UHF-(DLPNO)-IP/EA/STEOM-CCSD. UHF-CVS-IP/STEOM-CCSD   
  Vijay G. Chilkuri      : MRCI spin determinant printing, contributions to CSF-ICE 
  Pauline Colinet        : FMM embedding                                 
  Dipayan Datta          : RHF DLPNO-CCSD density                        
  Achintya Kumar Dutta   : EOM-CC, STEOM-CC                              
  Nicolas Foglia         : Exact transition moments, OPA infrastructure, MCD improvements    
  Dmitry Ganyushin       : Spin-Orbit,Spin-Spin,Magnetic field MRCI      
  Miquel Garcia-Rates    : C-PCM and meta-GGA Hessian, CCSD/C-PCM, Gaussian charge scheme 
  Tiago L. C. Gouveia    : GS-ROHF, GS-ROCIS                             
  Yang Guo               : DLPNO-NEVPT2, F12-NEVPT2, CIM, IAO-localization        
  Andreas Hansen         : Spin unrestricted coupled pair/coupled cluster methods 
  Ingolf Harden          : AUTO-CI MPn and infrastructure                
  Benjamin Helmich-Paris : MC-RPA, TRAH-(SCF,CASSCF), AVAS, COSX integrals, SCF dyn. polar., MC-PDFT, srDFT 
  Lee Huntington         : MR-EOM, pCC                                   
  Robert Izsak           : Overlap fitted RIJCOSX, COSX-SCS-MP3, EOM     
  Riya Kayal             : Wick's Theorem for AUTO-CI, AUTO-CI UHF-CCSDT 
  Emily Kempfer          : AUTO-CI RHF CISDT and CCSDT, approximate NEVPT4
  Christian Kollmar      : KDIIS, OOCD, Brueckner-CCSD(T), CCSD density, CASPT2, CASPT2-K, improved NEVPT2 
  Axel Koslowski         : Symmetry handling                             
  Simone Kossmann        : meta-GGA functionals, TD-DFT gradient, OOMP2, (MP2 Hessian; deprecated post 5.0) 
  Lucas Lang             : DCDCAS, Hyperfine gauge corrections, ICE-SOC+SSC
  Marvin Lechner         : AUTO-CI (C++ implementation), FIC-MRCC        
  Spencer Leger          : CASSCF response                               
  Dagmar Lenk            : GEPOL surface, SMD, ORCA-2-JSON               
  Dimitrios Liakos       : Extrapolation schemes; Compound Job, Property file
  Dimitrios Manganas     : Further ROCIS development; embedding schemes. LFT, Crystal Embedding 
  Dimitrios Pantazis     : SARC Basis sets                               
  Anastasios Papadopoulos: AUTO-CI, single reference methods and gradients 
  Taras Petrenko         : pre 6.0 DFT Hessian and TD-DFT gradient,  ECA, NRVS 
  Petra Pikulova         : Analytic Raman intensities                    
  Peter Pinski           : DLPNO-MP2, DLPNO-MP2 Gradient                 
  Shashank Vittal Rao    : ES-AILFT, MagRelax                            
  Christoph Reimann      : Effective Core Potentials                     
  Marius Retegan         : Local ZFS, SOC                                
  Christoph Riplinger    : Optimizer, TS searches, QM/MM, DLPNO-CCSD(T), (RO)-DLPNO pert. Triples 
  Michael Roemelt        : Original ROCIS implementation, recursive CI coupling coefficients
  Masaaki Saitow         : Open-shell DLPNO-CCSD energy and density      
  Barbara Sandhoefer     : DKH picture change effects                    
  Yorick L. A. Schmerwitz: GMF and freeze-and-release deltaSCF, NEB S-IDPP initial path                    
  Kantharuban Sivalingam : CASSCF convergence/infrastructure, NEVPT2, NEVPT3, NEVPT4(SD), FIC-MRCI and CEPA variants
  Bernardo de Souza      : ESD, SOC TD-DFT                               
  Georgi L. Stoychev     : AutoAux, RI-MP2 NMR, DLPNO-MP2 response, X2C  
  Van Anh Tran           : RI-MP2 g-tensors                              
  Willem Van den Heuvel  : Paramagnetic NMR                              
  Zikuan Wang            : NOTCH, Electric field optimization            
  Frank Wennmohs         : Technical directorship and infrastructure     
  Hang Xu                : AUTO-CI-Response properties                   
                                                                         
[FACCTs GmbH]                                                            
  Markus Bursch, Nicolas Foglia, Miquel Garcia-Rates, Ingolf Harden, Hagen Neugebauer, Anastasios Papadopoulos, 
  Christoph Riplinger, Bernardo de Souza, Georgi L. Stoychev                                                    
                                                                 
  APM, various basis sets, CI-OPT, improved COSX, DLPNO-Multilevel,           
  DOCKER, DRACO, updates on ESD, Fragmentator, GOAT, IRC, LR-CPCM, L-BFGS, MBIS, meta-GGA TD-DFT gradient, ML-optimized integration grids, 
  MM, NACMEs, nearIR, NEB, NEB-TS, NL-DFT gradient (VV10), 2- and 3-layer-ONIOM, interface openCOSMO-RS, QMMM,   
  Crystal-QMMM, RESP, rigid body optimization, SF, symmetry and pop. for TD-DFT, various functionals, SOLVATOR                                   
                                                                         
[Other institutions]                                                     
  V. Asgeirsson          : NEB                                           
  Christoph Bannwarth    : sTDA-DFT, sTD-DFT, PBEh-3c, B97-3c, D3        
  Giovanni Bistoni       : ETS/NOCV, ADLD/ADEX, COVALED                  
  Martin Brehm           : Molecular dynamics                            
  Ronald Cardenas        : ETS/NOCV                                      
  Martina Colucci        : COVALED                                       
  Sebastian Ehlert       : rSCAN, r2SCAN, r2SCAN-3c, D4, dhf basis sets  
  Marvin Friede          : D4 for Fr, Ra, Ac-Lr                          
  Lars Goerigk           : TD-DFT with DH, B97 family of functionals     
  Stefan Grimme          : VdW corrections, initial TS optimization, DFT functionals, gCP, sTDA/sTD-DF 
  Waldemar Hujo          : DFT-NL                                        
  H. Jonsson             : NEB                                           
  Holger Kruse           : gCP                                           
  Marcel Mueller         : wB97X-3c, vDZP basis set                      
  Hagen Neugebauer       : wr2SCAN, Native XTB                           
  Gianluca Regni         : ADLD/ADEX                                     
  Tobias Risthaus        : pre 6.0 range-separated hybrid DFT and stability analysis
  Lukas Wittmann         : regularized MP2, r2SCAN double-hybrids, wr2SCAN        
                                                                         
We gratefully acknowledge several colleagues who have allowed us to      
interface, adapt or use parts of their codes:                            
  Ed Valeev, F. Pavosevic, A. Kumar             : LibInt (2-el integral package), F12 methods 
  Garnet Chan, S. Sharma, J. Yang, R. Olivares  : DMRG                   
  Ulf Ekstrom                                   : XCFun DFT Library      
  Mihaly Kallay                                 : mrcc  (arbitrary order and MRCC methods)
  Frank Weinhold                                : gennbo (NPA and NBO analysis)           
  Simon Mueller                                 : openCOSMO-RS                            
  Christopher J. Cramer and Donald G. Truhlar   : smd solvation model                     
  S Lehtola, MJT Oliveira, MAL Marques          : LibXC Library                           
  Liviu Ungur et al                             : ANISO software                          


 Your calculation uses the libint2 library for the computation of 2-el integrals
 For citations please refer to: http://libint.valeyev.net

 Your ORCA version has been built with support for libXC version: 7.0.0
 For citations please refer to: https://libxc.gitlab.io

 This ORCA versions uses:
   CBLAS   interface :  Fast vector & matrix operations
   LAPACKE interface :  Fast linear algebra routines
   SCALAPACK package :  Parallel linear algebra routines
   Shared memory     :  Shared parallel matrices
   BLAS/LAPACK       :  OpenBLAS 0.3.29  USE64BITINT DYNAMIC_ARCH NO_AFFINITY Cooperlake SINGLE_THREADED
        Core in use  :  Cooperlake
   Copyright (c) 2011-2014, The OpenBLAS Project


  ***********************************
  * Starting time: Fri May 15 14:02:00 2026
  * Host name:     c1-3
  * Process ID:    401848
  * Working dir.:  /cluster/projects/nn14654k/ylvaos/basis_set_n_funcs/functionals/gga_x_pbe/C4H6/out
  ***********************************

Using LibXC functional ID 101 : Perdew, Burke & Ernzerhof
[ 1]  J. P. Perdew, K. Burke, and M. Ernzerhof.,  Phys. Rev. Lett. 77, 3865 (1996)
[ 2]  J. P. Perdew, K. Burke, and M. Ernzerhof.,  Phys. Rev. Lett. 78, 1396 (1997)
Using LibXC functional ID 101 : Perdew, Burke & Ernzerhof
[ 1]  J. P. Perdew, K. Burke, and M. Ernzerhof.,  Phys. Rev. Lett. 77, 3865 (1996)
[ 2]  J. P. Perdew, K. Burke, and M. Ernzerhof.,  Phys. Rev. Lett. 78, 1396 (1997)
Your calculation utilizes LibXC
by S. Lehtola, C. Steigemann, M. J. T. Oliveira & M. A. L. Marques
Please cite in your paper:
Lehtola, S.; Steigemann, C.; Oliveira, M.J.T.; Marques, M. A. L. Software X, 7, (2018), 1.
   

================================================================================

----- Orbital basis set information -----
Your calculation utilizes the basis: def2-QZVP
   F. Weigend and R. Ahlrichs, Phys. Chem. Chem. Phys. 7, 3297 (2005).

================================================================================
                                        WARNINGS
                       Please study these warnings very carefully!
================================================================================


================================================================================
                                       INPUT FILE
================================================================================
NAME = /cluster/projects/nn14654k/ylvaos/basis_set_n_funcs/functionals/gga_x_pbe/C4H6/inp/C4H6_gga_x_pbe_def2qzvp.inp
|  1> ! dft def2-QZVP TightSCF
|  2> %pal nprocs 8 end
|  3> 
|  4> %loc
|  5>   LocMet NewBoys
|  6>   Occ true
|  7> end
|  8> 
|  9> %method
| 10>   exchange gga_x_pbe
| 11>   correlation None
| 12> end
| 13> 
| 14> %elprop
| 15>   Dipole true
| 16>   Quadrupole true
| 17> end
| 18> 
| 19> * xyz 0 1
| 20> C    0.000000000000   0.000000000000   1.632000000000
| 21> C    0.000000000000   0.000000000000   0.300000000000
| 22> C    0.000000000000   0.771000000000  -0.936300000000
| 23> C    0.000000000000  -0.771000000000  -0.936300000000
| 24> H    0.000000000000   0.914000000000   2.222200000000
| 25> H    0.000000000000  -0.914000000000   2.222200000000
| 26> H    0.912300000000   1.305900000000  -1.200300000000
| 27> H   -0.912300000000   1.305900000000  -1.200300000000
| 28> H   -0.912300000000  -1.305900000000  -1.200300000000
| 29> H    0.912300000000  -1.305900000000  -1.200300000000
| 30> *
| 31> 
| 32> 
| 33>                          ****END OF INPUT****
================================================================================

                       ****************************
                       * Single Point Calculation *
                       ****************************

---------------------------------
CARTESIAN COORDINATES (ANGSTROEM)
---------------------------------
  C      0.000000    0.000000    1.632000
  C      0.000000    0.000000    0.300000
  C      0.000000    0.771000   -0.936300
  C      0.000000   -0.771000   -0.936300
  H      0.000000    0.914000    2.222200
  H      0.000000   -0.914000    2.222200
  H      0.912300    1.305900   -1.200300
  H     -0.912300    1.305900   -1.200300
  H     -0.912300   -1.305900   -1.200300
  H      0.912300   -1.305900   -1.200300

----------------------------
CARTESIAN COORDINATES (A.U.)
----------------------------
  NO LB      ZA    FRAG     MASS         X           Y           Z
   0 C     6.0000    0    12.011    0.000000    0.000000    3.084033
   1 C     6.0000    0    12.011    0.000000    0.000000    0.566918
   2 C     6.0000    0    12.011    0.000000    1.456979   -1.769351
   3 C     6.0000    0    12.011    0.000000   -1.456979   -1.769351
   4 H     1.0000    0     1.008    0.000000    1.727210    4.199349
   5 H     1.0000    0     1.008    0.000000   -1.727210    4.199349
   6 H     1.0000    0     1.008    1.723997    2.467793   -2.268238
   7 H     1.0000    0     1.008   -1.723997    2.467793   -2.268238
   8 H     1.0000    0     1.008   -1.723997   -2.467793   -2.268238
   9 H     1.0000    0     1.008    1.723997   -2.467793   -2.268238

--------------------------------
INTERNAL COORDINATES (ANGSTROEM)
--------------------------------
 C      0   0   0     0.000000000000     0.00000000     0.00000000
 C      1   0   0     1.332000000000     0.00000000     0.00000000
 C      2   1   0     1.457010188708   148.05088964     0.00000000
 C      2   1   3     1.457010188708   148.05088964   180.00000000
 H      1   2   3     1.087994503663   122.85166680     0.00000000
 H      1   2   3     1.087994503663   122.85166680   180.00000000
 H      3   2   1     1.090002431190   117.72260444    70.99760541
 H      3   2   1     1.090002431190   117.72260444   289.00239459
 H      4   2   1     1.090002431190   117.72260444    70.99760541
 H      4   2   1     1.090002431190   117.72260444   289.00239459

---------------------------
INTERNAL COORDINATES (A.U.)
---------------------------
 C      0   0   0     0.000000000000     0.00000000     0.00000000
 C      1   0   0     2.517115210383     0.00000000     0.00000000
 C      2   1   0     2.753350230992   148.05088964     0.00000000
 C      2   1   3     2.753350230992   148.05088964   180.00000000
 H      1   2   3     2.056011647134   122.85166680     0.00000000
 H      1   2   3     2.056011647134   122.85166680   180.00000000
 H      3   2   1     2.059806080257   117.72260444    70.99760541
 H      3   2   1     2.059806080257   117.72260444   289.00239459
 H      4   2   1     2.059806080257   117.72260444    70.99760541
 H      4   2   1     2.059806080257   117.72260444   289.00239459

---------------------
BASIS SET INFORMATION
---------------------
There are 2 groups of distinct atoms

 Group   1 Type C   : 15s8p3d2f1g contracted to 7s4p3d2f1g pattern {8211111/5111/111/11/1}
 Group   2 Type H   : 7s3p2d1f contracted to 4s3p2d1f pattern {4111/111/11/1}

Atom   0C    basis set group =>   1
Atom   1C    basis set group =>   1
Atom   2C    basis set group =>   1
Atom   3C    basis set group =>   1
Atom   4H    basis set group =>   2
Atom   5H    basis set group =>   2
Atom   6H    basis set group =>   2
Atom   7H    basis set group =>   2
Atom   8H    basis set group =>   2
Atom   9H    basis set group =>   2


           ************************************************************
           *        Program running with 8 parallel MPI-processes     *
           *              working on a common directory               *
           ************************************************************
------------------------------------------------------------------------------
                             ORCA STARTUP CALCULATIONS
------------------------------------------------------------------------------
------------------------------------------------------------------------------
                   ___                                                        
                  /   \      - P O W E R E D   B Y -                         
                 /     \                                                     
                 |  |  |   _    _      __       _____    __    __             
                 |  |  |  | |  | |    /  \     |  _  \  |  |  /  |          
                  \  \/   | |  | |   /    \    | | | |  |  | /  /          
                 / \  \   | |__| |  /  /\  \   | |_| |  |  |/  /          
                |  |  |   |  __  | /  /__\  \  |    /   |      \           
                |  |  |   | |  | | |   __   |  |    \   |  |\   \          
                \     /   | |  | | |  |  |  |  | |\  \  |  | \   \       
                 \___/    |_|  |_| |__|  |__|  |_| \__\ |__|  \__/        
                                                                              
                      - O R C A' S   B I G   F R I E N D -                    
                                      &                                       
                       - I N T E G R A L  F E E D E R -                       
                                                                              
 v1 FN, 2020, v2 2021, v3 2022-2024                                           
------------------------------------------------------------------------------


----------------------
SHARK INTEGRAL PACKAGE
----------------------

Number of atoms                             ...     10
Number of basis functions                   ...    408
Number of shells                            ...    128
Maximum angular momentum                    ...      4
Integral batch strategy                     ... SHARK/LIBINT Hybrid
RI-J (if used) integral strategy            ... SPLIT-RIJ (Revised 2003 algorithm where possible)
Printlevel                                  ...      1
Contraction scheme used                     ... SEGMENTED contraction
Prescreening option                         ... SCHWARTZ
   Thresh                                   ... 2.500e-11
   Tcut                                     ... 2.500e-12
   Tpresel                                  ... 2.500e-12 
Coulomb Range Separation                    ... NOT USED
Exchange Range Separation                   ... NOT USED
Multipole approximations                    ... NOT USED
Finite Nucleus Model                        ... NOT USED
CABS basis                                  ... NOT available
Auxiliary Coulomb fitting basis             ... NOT available
Auxiliary J/K fitting basis                 ... NOT available
Auxiliary Correlation fitting basis         ... NOT available
Auxiliary 'external' fitting basis          ... NOT available

Checking pre-screening integrals            ... done (  0.0 sec) Dimension = 128
   => SHARK Basis and OBASIS are compatible. Storing Pre-screening
Shell pair information
Shell pair cut-off parameter TPreSel        ...   2.5e-12
Total number of shell pairs                 ...      8256
Shell pairs after pre-screening             ...      7738
Total number of primitive shell pairs       ...     19107
Primitive shell pairs kept                  ...     14829
          la=0 lb=0:   1246 shell pairs
          la=1 lb=0:   1660 shell pairs
          la=1 lb=1:    575 shell pairs
          la=2 lb=0:   1152 shell pairs
          la=2 lb=1:    770 shell pairs
          la=2 lb=2:    282 shell pairs
          la=3 lb=0:    672 shell pairs
          la=3 lb=1:    458 shell pairs
          la=3 lb=2:    316 shell pairs
          la=3 lb=3:    101 shell pairs
          la=4 lb=0:    208 shell pairs
          la=4 lb=1:    136 shell pairs
          la=4 lb=2:     96 shell pairs
          la=4 lb=3:     56 shell pairs
          la=4 lb=4:     10 shell pairs

Checking whether 4 symmetric matrices of dimension 408 fit in memory
:Max Core in MB      =   4096.00
 MB in use           =     12.97
 MB left             =   4083.03
 MB needed           =      2.55
 Data fit in memory  = YES
Calculating Nuclear repulsion               ... done (  0.0 sec) ENN=    109.249345578353 Eh

Diagonalization of the overlap matrix:
Smallest eigenvalue                        ... 5.265e-05
Time for diagonalization                   ...    0.013 sec
Threshold for overlap eigenvalues          ... 1.000e-07
Number of eigenvalues below threshold      ... 0
Time for construction of square roots      ...    0.007 sec
Total time needed                          ...    0.021 sec

-------------------
DFT GRID GENERATION
-------------------

General Integration Accuracy     IntAcc      ... 4.388
Radial Grid Type                 RadialGrid  ... OptM3 with GC (2021)
Angular Grid (max. ang.)         AngularGrid ... 4 (Lebedev-302)
Angular grid pruning method      GridPruning ... 4 (adaptive)
Weight generation scheme         WeightScheme... mBecke (2022)
Basis function cutoff            BFCut       ... 1.0000e-11
Integration weight cutoff        WCut        ... 1.0000e-14
Partially contracted basis set               ... off
Rotationally invariant grid construction     ... off
Angular grids for H and He will be reduced by one unit
Diffuse basis detected: some atoms will have their outermost
                        angular grid increased by 1.

Total number of grid points                  ...    44804
Total number of batches                      ...      705
Average number of points per batch           ...       63
Average number of grid points per atom       ...     4480
Grids setup in   0.2 sec
Initializing property integral containers    ... done (  0.0 sec)

SHARK setup successfully completed in   0.4 seconds

Maximum memory used throughout the entire STARTUP-calculation: 26.1 MB


           ************************************************************
           *        Program running with 8 parallel MPI-processes     *
           *              working on a common directory               *
           ************************************************************
-------------------------------------------------------------------------------
                                 ORCA GUESS
                   Start orbitals & Density for SCF / CASSCF
-------------------------------------------------------------------------------

------------
SCF SETTINGS
------------
Hamiltonian:
 Density Functional     Method          .... DFT(GTOs)
  Functional kind                       .... Exchange
  Functional name                       .... Perdew, Burke & Ernzerhof
  Functional family                     .... GGA
  Functional refs                              
    [ 0] J. P. Perdew, K. Burke, and M. Ernzerhof.,  Phys. Rev. Lett. 77, 3865 (1996), doi: 10.1103/PhysRevLett.77.3865
    [ 1] J. P. Perdew, K. Burke, and M. Ernzerhof.,  Phys. Rev. Lett. 78, 1396 (1997), doi: 10.1103/PhysRevLett.78.1396
  Functional external parameters        .... 2
    Parameter  0 _kappa     =  8.040000e-01 : Asymptotic value of the enhancement function
    Parameter  1 _mu        =  2.195150e-01 : Coefficient of the 2nd order expansion
 Correlation Functional Correlation     .... No Correlation
 Gradients option       PostSCFGGA      .... off


General Settings:
 Integral files         IntName         .... /cluster/projects/nn14654k/ylvaos/basis_set_n_funcs/functionals/gga_x_pbe/C4H6/inp/C4H6_gga_x_pbe_def2qzvp
 Hartree-Fock type      HFTyp           .... RHF
 Total Charge           Charge          ....    0
 Multiplicity           Mult            ....    1
 Number of Electrons    NEL             ....   30
 Basis Dimension        Dim             ....  408
 Nuclear Repulsion      ENuc            ....    109.2493455784 Eh

Convergence Acceleration:
 AO-DIIS                CNVDIIS         .... on
   Start iteration      DIISMaxIt       ....    12
   Startup error        DIISStart       ....  0.200000
   # of expansion vecs  DIISMaxEq       ....     5
   Bias factor          DIISBfac        ....   1.050
   Max. coefficient     DIISMaxC        ....  10.000
 MO-DIIS                CNVKDIIS        .... off
 Trust-Rad. Augm. Hess. CNVTRAH         .... auto
   Auto Start mean grad. ratio tolernc. ....  1.125000
   Auto Start start iteration           ....    50
   Auto Start num. interpolation iter.  ....    10
   Max. Number of Micro iterations      ....    24
   Max. Number of Macro iterations      .... Maxiter - #DIIS iter
   Number of Davidson start vectors     ....     2
   Converg. threshold    (grad. norm)   ....   1.000e-05
   Grad. Scal. Fac. for Micro threshold ....   0.100
   Minimum threshold for Micro iter.    ....   1.000e-02
   NR start threshold (gradient norm)   ....   1.000e-04
   Initial trust radius                 ....   0.400
   Minimum AH scaling param. (alpha)    ....   1.000
   Maximum AH scaling param. (alpha)    .... 1000.000
   Quad. conv. algorithm                .... NR
   White noise on init. David. guess    .... on
   Maximum white noise                  ....   0.010
   Pseudo random numbers                .... off
   Inactive MOs                         .... canonical
   Orbital update algorithm             .... Taylor
   Preconditioner                       .... Diag
   Full preconditioner red. dimension   ....   250
 SOSCF                 CNVSOSCF           .... on
   Start iteration     SOSCFMaxIt         ....   150
   Startup grad/error  SOSCFStart         ....  0.003300
   Hessian update      SOSCFHessUp        .... L-BFGS
   Autom. constraints  SOSCFAutoConstrain .... off
 Level Shifting         CNVShift        .... on
   Level shift para.    LevelShift      ....    0.2500
   Turn off err/grad.   ShiftErr        ....    0.0010
 Zerner damping         CNVZerner       .... off
 Static damping         CNVDamp         .... on
   Fraction old density DampFac         ....    0.7000
   Max. Damping (<1)    DampMax         ....    0.9800
   Min. Damping (>=0)   DampMin         ....    0.0000
   Turn off err/grad.   DampErr         ....    0.1000

SCF Procedure:
 Maximum # iterations   MaxIter         ....   125
 SCF integral mode      SCFMode         .... Direct
   Integral package                     .... SHARK and LIBINT hybrid scheme
 Reset frequency        DirectResetFreq ....    20
 Integral Threshold     Thresh          ....  2.500e-11 Eh
 Primitive CutOff       TCut            ....  2.500e-12 Eh

Convergence Tolerance:
 Convergence Check Mode ConvCheckMode   .... Total+1el-Energy
 Convergence forced     ConvForced      .... 0
 Energy Change          TolE            ....  1.000e-08 Eh
 1-El. energy change                    ....  1.000e-05 Eh
 Orbital Gradient       TolG            ....  1.000e-05
 Orbital Rotation angle TolX            ....  1.000e-05
 DIIS Error             TolErr          ....  5.000e-07

------------------------------
INITIAL GUESS: MODEL POTENTIAL
------------------------------
Loading Hartree-Fock densities                     ... done
Calculating cut-offs                               ... done
Initializing the effective Hamiltonian             ... done
Setting up the integral package (SHARK)            ... done
Starting the Coulomb interaction                   ... done (   0.0 sec)
Making the grid                                    ... done (   0.1 sec)
Mapping shells                                     ... done
Starting the XC term evaluation                    ... done (   0.1 sec)
  promolecular density results
     # of electrons  =     29.996285088
     EX              =    -22.197086217
     EC              =      0.000000000
     EX+EC           =    -22.197086217
Transforming the Hamiltonian                       ... done (   0.0 sec)
Diagonalizing the Hamiltonian                      ... done (   0.0 sec)
Back transforming the eigenvectors                 ... done (   0.0 sec)
Now organizing SCF variables                       ... done
                      ------------------
                      INITIAL GUESS DONE (   0.2 sec)
                      ------------------
             **** ENERGY FILE WAS UPDATED (/cluster/projects/nn14654k/ylvaos/basis_set_n_funcs/functionals/gga_x_pbe/C4H6/inp/C4H6_gga_x_pbe_def2qzvp.en.tmp) ****
Finished Guess after   0.3 sec
Maximum memory used throughout the entire GUESS-calculation: 24.0 MB


           ************************************************************
           *        Program running with 8 parallel MPI-processes     *
           *              working on a common directory               *
           ************************************************************

-------------------------------------------------------------------------------------------
                                      ORCA LEAN-SCF
                              memory conserving SCF solver
-------------------------------------------------------------------------------------------

----------------------------------------D-I-I-S--------------------------------------------
Iteration    Energy (Eh)           Delta-E    RMSDP     MaxDP     DIISErr   Damp  Time(sec)
-------------------------------------------------------------------------------------------
               ***  Starting incremental Fock matrix formation  ***
    1    -154.7356240147227595     0.00e+00  1.47e-03  2.08e-02  1.79e-01  0.700   5.7
    2    -154.7940659869366300    -5.84e-02  1.16e-03  1.35e-02  8.24e-02  0.700   4.8
                               ***Turning on AO-DIIS***
    3    -154.8145245483889880    -2.05e-02  6.39e-04  7.85e-03  2.15e-02  0.700   4.5
    4    -154.8261716296746044    -1.16e-02  1.30e-03  1.69e-02  1.08e-02  0.000   4.5
    5    -154.8528771623070384    -2.67e-02  2.67e-04  3.05e-03  8.23e-03  0.000   4.6
                              *** Initializing SOSCF ***
---------------------------------------S-O-S-C-F--------------------------------------
Iteration    Energy (Eh)           Delta-E    RMSDP     MaxDP     MaxGrad    Time(sec)
--------------------------------------------------------------------------------------
    6    -154.8533033544226782    -4.26e-04  1.75e-04  2.21e-03  2.39e-03     4.3
               *** Restarting incremental Fock matrix formation ***
    7    -154.8533368661881582    -3.35e-05  1.85e-04  2.53e-03  3.33e-04     4.9
    8    -154.8533369472095274    -8.10e-08  2.83e-05  3.79e-04  4.27e-04     4.1
    9    -154.8533404905429620    -3.54e-06  3.17e-05  4.27e-04  9.85e-05     3.8
   10    -154.8533405002614245    -9.72e-09  4.28e-06  9.75e-05  1.21e-04     3.7
                 **** Energy Check signals convergence ****

               *****************************************************
               *                     SUCCESS                       *
               *           SCF CONVERGED AFTER  10 CYCLES          *
               *****************************************************

             **** ENERGY FILE WAS UPDATED (/cluster/projects/nn14654k/ylvaos/basis_set_n_funcs/functionals/gga_x_pbe/C4H6/inp/C4H6_gga_x_pbe_def2qzvp.en.tmp) ****

----------------
TOTAL SCF ENERGY
----------------

Total Energy       :       -154.85334060330945 Eh           -4213.77362 eV

Components:
Nuclear Repulsion  :        109.24934557835338 Eh            2972.82583 eV
Electronic Energy  :       -264.10268618166282 Eh           -7186.59945 eV
One Electron Energy:       -424.04669407234047 Eh          -11538.89717 eV
Two Electron Energy:        159.94400789067765 Eh            4352.29772 eV

Virial components:
Potential Energy   :       -309.96235210363704 Eh           -8434.50440 eV
Kinetic Energy     :        155.10901150032757 Eh            4220.73078 eV
Virial Ratio       :          1.99835166961258

DFT components:
N(Alpha)           :       14.999991574050 electrons
N(Beta)            :       14.999991574050 electrons
N(Total)           :       29.999983148100 electrons
E(X)               :      -22.708813053853 Eh       
E(C)               :        0.000000000000 Eh       
E(XC)              :      -22.708813053853 Eh       

---------------
SCF CONVERGENCE
---------------

  Last Energy change         ...    9.7185e-09  Tolerance :   1.0000e-08
  Last MAX-Density change    ...    9.7549e-05  Tolerance :   1.0000e-07
  Last RMS-Density change    ...    4.2777e-06  Tolerance :   5.0000e-09
  Last DIIS Error            ...    2.3853e-03  Tolerance :   5.0000e-07
  Last Orbital Gradient      ...    1.2072e-04  Tolerance :   1.0000e-05
  Last Orbital Rotation      ...    2.6382e-04  Tolerance :   1.0000e-05


----------------
ORBITAL ENERGIES
----------------

  NO   OCC          E(Eh)            E(eV) 
   0   2.0000      -9.881008      -268.8759 
   1   2.0000      -9.879920      -268.8463 
   2   2.0000      -9.879834      -268.8439 
   3   2.0000      -9.863310      -268.3943 
   4   2.0000      -0.755642       -20.5621 
   5   2.0000      -0.609246       -16.5784 
   6   2.0000      -0.517938       -14.0938 
   7   2.0000      -0.446071       -12.1382 
   8   2.0000      -0.397554       -10.8180 
   9   2.0000      -0.388024       -10.5587 
  10   2.0000      -0.347228        -9.4486 
  11   2.0000      -0.299727        -8.1560 
  12   2.0000      -0.243869        -6.6360 
  13   2.0000      -0.223924        -6.0933 
  14   2.0000      -0.194432        -5.2908 
  15   0.0000      -0.007996        -0.2176 
  16   0.0000       0.018743         0.5100 
  17   0.0000       0.037119         1.0101 
  18   0.0000       0.045262         1.2316 
  19   0.0000       0.073592         2.0025 
  20   0.0000       0.074915         2.0385 
  21   0.0000       0.080664         2.1950 
  22   0.0000       0.103803         2.8246 
  23   0.0000       0.105653         2.8750 
  24   0.0000       0.124171         3.3789 
  25   0.0000       0.145242         3.9522 
*Only the first 10 virtual orbitals were printed.

                    ********************************
                    * MULLIKEN POPULATION ANALYSIS *
                    ********************************

-----------------------
MULLIKEN ATOMIC CHARGES
-----------------------
   0 C :   -0.163567
   1 C :    0.125444
   2 C :   -0.094470
   3 C :   -0.094469
   4 H :    0.043696
   5 H :    0.043697
   6 H :    0.034918
   7 H :    0.034917
   8 H :    0.034918
   9 H :    0.034917
Sum of atomic charges:   -0.0000000

--------------------------------
MULLIKEN REDUCED ORBITAL CHARGES
--------------------------------
  0 C s       :     3.364094  s :     3.364094
      pz      :     0.824081  p :     2.725723
      px      :     0.987430
      py      :     0.914211
      dz2     :    -0.000677  d :     0.064853
      dxz     :     0.010803
      dyz     :     0.051058
      dx2y2   :     0.003632
      dxy     :     0.000037
      f0      :     0.001034  f :     0.008354
      f+1     :     0.001835
      f-1     :     0.005312
      f+2     :     0.000644
      f-2     :     0.000064
      f+3     :    -0.000078
      f-3     :    -0.000456
      g0      :     0.000062  g :     0.000544
      g+1     :     0.000213
      g-1     :     0.000292
      g+2     :     0.000016
      g-2     :    -0.000002
      g+3     :    -0.000007
      g-3     :    -0.000045
      g+4     :     0.000015
      g-4     :    -0.000000

  1 C s       :     3.296510  s :     3.296510
      pz      :     0.602296  p :     2.403189
      px      :     0.919927
      py      :     0.880966
      dz2     :     0.040013  d :     0.156552
      dxz     :     0.049918
      dyz     :     0.046444
      dx2y2   :     0.008614
      dxy     :     0.011563
      f0      :     0.005933  f :     0.016532
      f+1     :     0.002655
      f-1     :     0.002237
      f+2     :     0.002586
      f-2     :     0.002879
      f+3     :     0.000286
      f-3     :    -0.000044
      g0      :     0.000540  g :     0.001773
      g+1     :     0.000310
      g-1     :     0.000368
      g+2     :     0.000234
      g-2     :     0.000191
      g+3     :     0.000072
      g-3     :     0.000048
      g+4     :     0.000006
      g-4     :     0.000003

  2 C s       :     3.296961  s :     3.296961
      pz      :     0.979272  p :     2.701603
      px      :     0.883642
      py      :     0.838689
      dz2     :     0.017670  d :     0.080139
      dxz     :     0.015246
      dyz     :     0.018204
      dx2y2   :     0.011507
      dxy     :     0.017511
      f0      :     0.004006  f :     0.014863
      f+1     :     0.001539
      f-1     :     0.000980
      f+2     :     0.002607
      f-2     :     0.001280
      f+3     :     0.002534
      f-3     :     0.001916
      g0      :     0.000092  g :     0.000905
      g+1     :     0.000029
      g-1     :     0.000233
      g+2     :     0.000071
      g-2     :     0.000091
      g+3     :     0.000043
      g-3     :     0.000159
      g+4     :     0.000112
      g-4     :     0.000076

  3 C s       :     3.296959  s :     3.296959
      pz      :     0.979272  p :     2.701603
      px      :     0.883642
      py      :     0.838689
      dz2     :     0.017670  d :     0.080139
      dxz     :     0.015246
      dyz     :     0.018204
      dx2y2   :     0.011508
      dxy     :     0.017511
      f0      :     0.004006  f :     0.014863
      f+1     :     0.001539
      f-1     :     0.000980
      f+2     :     0.002607
      f-2     :     0.001280
      f+3     :     0.002534
      f-3     :     0.001916
      g0      :     0.000092  g :     0.000905
      g+1     :     0.000029
      g-1     :     0.000233
      g+2     :     0.000071
      g-2     :     0.000091
      g+3     :     0.000043
      g-3     :     0.000159
      g+4     :     0.000112
      g-4     :     0.000076

  4 H s       :     0.912026  s :     0.912026
      pz      :     0.009551  p :     0.038354
      px      :     0.018962
      py      :     0.009841
      dz2     :     0.001555  d :     0.005562
      dxz     :     0.001038
      dyz     :     0.000614
      dx2y2   :     0.000644
      dxy     :     0.001711
      f0      :     0.000024  f :     0.000362
      f+1     :     0.000006
      f-1     :     0.000125
      f+2     :     0.000019
      f-2     :     0.000085
      f+3     :     0.000074
      f-3     :     0.000029

  5 H s       :     0.912026  s :     0.912026
      pz      :     0.009551  p :     0.038354
      px      :     0.018962
      py      :     0.009841
      dz2     :     0.001555  d :     0.005562
      dxz     :     0.001038
      dyz     :     0.000614
      dx2y2   :     0.000644
      dxy     :     0.001711
      f0      :     0.000024  f :     0.000362
      f+1     :     0.000006
      f-1     :     0.000125
      f+2     :     0.000019
      f-2     :     0.000085
      f+3     :     0.000074
      f-3     :     0.000029

  6 H s       :     0.914781  s :     0.914781
      pz      :     0.017928  p :     0.043859
      px      :     0.008546
      py      :     0.017386
      dz2     :     0.000865  d :     0.006080
      dxz     :     0.001483
      dyz     :     0.000887
      dx2y2   :     0.001804
      dxy     :     0.001041
      f0      :     0.000030  f :     0.000362
      f+1     :     0.000065
      f-1     :     0.000041
      f+2     :     0.000027
      f-2     :     0.000057
      f+3     :     0.000117
      f-3     :     0.000025

  7 H s       :     0.914781  s :     0.914781
      pz      :     0.017928  p :     0.043860
      px      :     0.008546
      py      :     0.017386
      dz2     :     0.000865  d :     0.006080
      dxz     :     0.001483
      dyz     :     0.000887
      dx2y2   :     0.001804
      dxy     :     0.001041
      f0      :     0.000030  f :     0.000362
      f+1     :     0.000065
      f-1     :     0.000041
      f+2     :     0.000027
      f-2     :     0.000057
      f+3     :     0.000117
      f-3     :     0.000025

  8 H s       :     0.914781  s :     0.914781
      pz      :     0.017928  p :     0.043860
      px      :     0.008546
      py      :     0.017386
      dz2     :     0.000865  d :     0.006080
      dxz     :     0.001483
      dyz     :     0.000887
      dx2y2   :     0.001804
      dxy     :     0.001041
      f0      :     0.000030  f :     0.000362
      f+1     :     0.000065
      f-1     :     0.000041
      f+2     :     0.000027
      f-2     :     0.000057
      f+3     :     0.000117
      f-3     :     0.000025

  9 H s       :     0.914781  s :     0.914781
      pz      :     0.017928  p :     0.043859
      px      :     0.008546
      py      :     0.017386
      dz2     :     0.000865  d :     0.006080
      dxz     :     0.001483
      dyz     :     0.000887
      dx2y2   :     0.001804
      dxy     :     0.001041
      f0      :     0.000030  f :     0.000362
      f+1     :     0.000065
      f-1     :     0.000041
      f+2     :     0.000027
      f-2     :     0.000057
      f+3     :     0.000117
      f-3     :     0.000025



                     *******************************
                     * LOEWDIN POPULATION ANALYSIS *
                     *******************************

----------------------
LOEWDIN ATOMIC CHARGES
----------------------
   0 C :    0.190169
   1 C :   -0.100372
   2 C :    0.170272
   3 C :    0.170272
   4 H :   -0.089595
   5 H :   -0.089595
   6 H :   -0.062788
   7 H :   -0.062788
   8 H :   -0.062788
   9 H :   -0.062788

-------------------------------
LOEWDIN REDUCED ORBITAL CHARGES
-------------------------------
  0 C s       :     2.627214  s :     2.627214
      pz      :     1.011038  p :     2.791832
      px      :     0.823465
      py      :     0.957329
      dz2     :     0.076957  d :     0.317548
      dxz     :     0.041227
      dyz     :     0.177922
      dx2y2   :     0.021234
      dxy     :     0.000208
      f0      :     0.014485  f :     0.064303
      f+1     :     0.013413
      f-1     :     0.026555
      f+2     :     0.006038
      f-2     :     0.000137
      f+3     :     0.000917
      f-3     :     0.002758
      g0      :     0.002423  g :     0.008934
      g+1     :     0.001906
      g-1     :     0.003185
      g+2     :     0.000103
      g-2     :     0.000004
      g+3     :     0.000149
      g-3     :     0.000862
      g+4     :     0.000302
      g-4     :     0.000000

  1 C s       :     2.594893  s :     2.594893
      pz      :     1.052783  p :     2.685852
      px      :     0.756701
      py      :     0.876367
      dz2     :     0.204341  d :     0.659556
      dxz     :     0.162875
      dyz     :     0.211566
      dx2y2   :     0.035261
      dxy     :     0.045513
      f0      :     0.048822  f :     0.141589
      f+1     :     0.017699
      f-1     :     0.034692
      f+2     :     0.014624
      f-2     :     0.021476
      f+3     :     0.003498
      f-3     :     0.000780
      g0      :     0.006072  g :     0.018482
      g+1     :     0.002909
      g-1     :     0.004609
      g+2     :     0.001517
      g-2     :     0.001911
      g+3     :     0.000900
      g-3     :     0.000416
      g+4     :     0.000064
      g-4     :     0.000084

  2 C s       :     2.552648  s :     2.552648
      pz      :     0.890009  p :     2.692018
      px      :     0.939971
      py      :     0.862038
      dz2     :     0.085387  d :     0.465945
      dxz     :     0.059680
      dyz     :     0.113735
      dx2y2   :     0.071925
      dxy     :     0.135218
      f0      :     0.026533  f :     0.110193
      f+1     :     0.010449
      f-1     :     0.010826
      f+2     :     0.025083
      f-2     :     0.008917
      f+3     :     0.013893
      f-3     :     0.014493
      g0      :     0.000880  g :     0.008925
      g+1     :     0.000570
      g-1     :     0.002581
      g+2     :     0.000831
      g-2     :     0.000911
      g+3     :     0.000290
      g-3     :     0.001393
      g+4     :     0.000456
      g-4     :     0.001011

  3 C s       :     2.552647  s :     2.552647
      pz      :     0.890009  p :     2.692018
      px      :     0.939971
      py      :     0.862038
      dz2     :     0.085387  d :     0.465945
      dxz     :     0.059680
      dyz     :     0.113735
      dx2y2   :     0.071925
      dxy     :     0.135218
      f0      :     0.026533  f :     0.110193
      f+1     :     0.010449
      f-1     :     0.010826
      f+2     :     0.025083
      f-2     :     0.008917
      f+3     :     0.013893
      f-3     :     0.014493
      g0      :     0.000880  g :     0.008925
      g+1     :     0.000570
      g-1     :     0.002581
      g+2     :     0.000831
      g-2     :     0.000911
      g+3     :     0.000290
      g-3     :     0.001393
      g+4     :     0.000456
      g-4     :     0.001011

  4 H s       :     0.819244  s :     0.819244
      pz      :     0.057566  p :     0.198481
      px      :     0.058634
      py      :     0.082281
      dz2     :     0.014518  d :     0.062654
      dxz     :     0.007309
      dyz     :     0.015961
      dx2y2   :     0.011557
      dxy     :     0.013308
      f0      :     0.000795  f :     0.009216
      f+1     :     0.000083
      f-1     :     0.002873
      f+2     :     0.001625
      f-2     :     0.001610
      f+3     :     0.001183
      f-3     :     0.001047

  5 H s       :     0.819244  s :     0.819244
      pz      :     0.057566  p :     0.198481
      px      :     0.058634
      py      :     0.082281
      dz2     :     0.014518  d :     0.062654
      dxz     :     0.007309
      dyz     :     0.015961
      dx2y2   :     0.011557
      dxy     :     0.013308
      f0      :     0.000795  f :     0.009216
      f+1     :     0.000083
      f-1     :     0.002873
      f+2     :     0.001625
      f-2     :     0.001610
      f+3     :     0.001183
      f-3     :     0.001047

  6 H s       :     0.797771  s :     0.797771
      pz      :     0.060330  p :     0.191759
      px      :     0.078022
      py      :     0.053407
      dz2     :     0.008549  d :     0.063806
      dxz     :     0.015177
      dyz     :     0.006620
      dx2y2   :     0.018512
      dxy     :     0.014947
      f0      :     0.000815  f :     0.009452
      f+1     :     0.001461
      f-1     :     0.000679
      f+2     :     0.000654
      f-2     :     0.001576
      f+3     :     0.002589
      f-3     :     0.001677

  7 H s       :     0.797771  s :     0.797771
      pz      :     0.060330  p :     0.191759
      px      :     0.078022
      py      :     0.053407
      dz2     :     0.008549  d :     0.063806
      dxz     :     0.015177
      dyz     :     0.006620
      dx2y2   :     0.018512
      dxy     :     0.014947
      f0      :     0.000815  f :     0.009452
      f+1     :     0.001461
      f-1     :     0.000679
      f+2     :     0.000654
      f-2     :     0.001576
      f+3     :     0.002589
      f-3     :     0.001677

  8 H s       :     0.797771  s :     0.797771
      pz      :     0.060330  p :     0.191759
      px      :     0.078022
      py      :     0.053407
      dz2     :     0.008549  d :     0.063806
      dxz     :     0.015177
      dyz     :     0.006620
      dx2y2   :     0.018512
      dxy     :     0.014947
      f0      :     0.000815  f :     0.009452
      f+1     :     0.001461
      f-1     :     0.000679
      f+2     :     0.000654
      f-2     :     0.001576
      f+3     :     0.002589
      f-3     :     0.001677

  9 H s       :     0.797771  s :     0.797771
      pz      :     0.060330  p :     0.191759
      px      :     0.078022
      py      :     0.053407
      dz2     :     0.008549  d :     0.063806
      dxz     :     0.015177
      dyz     :     0.006620
      dx2y2   :     0.018512
      dxy     :     0.014947
      f0      :     0.000815  f :     0.009452
      f+1     :     0.001461
      f-1     :     0.000679
      f+2     :     0.000654
      f-2     :     0.001576
      f+3     :     0.002589
      f-3     :     0.001677



                      *****************************
                      * MAYER POPULATION ANALYSIS *
                      *****************************

  NA   - Mulliken gross atomic population
  ZA   - Total nuclear charge
  QA   - Mulliken gross atomic charge
  VA   - Mayer's total valence
  BVA  - Mayer's bonded valence
  FA   - Mayer's free valence

  ATOM       NA         ZA         QA         VA         BVA        FA
  0 C      6.1636     6.0000    -0.1636     3.7956     3.7956    -0.0000
  1 C      5.8746     6.0000     0.1254     3.6373     3.6373    -0.0000
  2 C      6.0945     6.0000    -0.0945     3.8312     3.8312    -0.0000
  3 C      6.0945     6.0000    -0.0945     3.8312     3.8312     0.0000
  4 H      0.9563     1.0000     0.0437     1.0114     1.0114    -0.0000
  5 H      0.9563     1.0000     0.0437     1.0114     1.0114    -0.0000
  6 H      0.9651     1.0000     0.0349     1.0220     1.0220    -0.0000
  7 H      0.9651     1.0000     0.0349     1.0220     1.0220    -0.0000
  8 H      0.9651     1.0000     0.0349     1.0220     1.0220    -0.0000
  9 H      0.9651     1.0000     0.0349     1.0220     1.0220     0.0000

  Mayer bond orders larger than 0.100000
B(  0-C ,  1-C ) :   1.7329 B(  0-C ,  4-H ) :   0.9625 B(  0-C ,  5-H ) :   0.9625 
B(  1-C ,  2-C ) :   0.9130 B(  1-C ,  3-C ) :   0.9130 B(  2-C ,  3-C ) :   0.8964 
B(  2-C ,  6-H ) :   0.9633 B(  2-C ,  7-H ) :   0.9633 B(  3-C ,  8-H ) :   0.9633 
B(  3-C ,  9-H ) :   0.9633 

-------
TIMINGS
-------

Total SCF time: 0 days 0 hours 0 min 48 sec 

Total time                  ....      48.472 sec
Sum of individual times     ....      45.122 sec  ( 93.1%)

SCF preparation             ....       0.143 sec  (  0.3%)
Fock matrix formation       ....      44.418 sec  ( 91.6%)
  Startup                   ....       0.014 sec  (  0.0% of F)
  Coulomb formation         ....      46.474 sec  (104.6% of F)
  XC integration            ....       1.128 sec  (  2.5% of F)
    XC Preparation          ....       0.000 sec  (  0.0% of XC)
    Basis function eval.    ....       0.165 sec  ( 14.6% of XC)
    Density eval.           ....       0.214 sec  ( 19.0% of XC)
    XC-Functional eval.     ....       0.016 sec  (  1.4% of XC)
    XC-Potential eval.      ....       0.551 sec  ( 48.9% of XC)
Diagonalization             ....       0.000 sec  (  0.0%)
Density matrix formation    ....       0.056 sec  (  0.1%)
Total Energy calculation    ....       0.021 sec  (  0.0%)
Population analysis         ....       0.025 sec  (  0.1%)
Orbital Transformation      ....       0.057 sec  (  0.1%)
Orbital Orthonormalization  ....       0.000 sec  (  0.0%)
DIIS solution               ....       0.285 sec  (  0.6%)
SOSCF solution              ....       0.117 sec  (  0.2%)
Finished LeanSCF after  48.5 sec

Maximum memory used throughout the entire LEANSCF-calculation: 39.2 MB


           ************************************************************
           *        Program running with 8 parallel MPI-processes     *
           *              working on a common directory               *
           ************************************************************

------------------------------------------------------------------------------
                         ORCA PROPERTY INTEGRAL CALCULATIONS
------------------------------------------------------------------------------

GBWName                                   ... /cluster/projects/nn14654k/ylvaos/basis_set_n_funcs/functionals/gga_x_pbe/C4H6/inp/C4H6_gga_x_pbe_def2qzvp.gbw
Number of atoms                           ...     10
Number of basis functions                 ...    408
Max core memory                           ...   4096 MB

Dipole integrals                          ... YES
Quadrupole integrals                      ... YES
Linear momentum integrals                 ...  NO
Angular momentum integrals                ...  NO
Higher moments length integrals           ...  NO
Higher moments velocity integrals         ...  NO
Kinetic energy integrals                  ...  NO
GIAO right hand sides                     ...  NO
GIAO dipole derivative integrals          ...  NO
SOC integrals                             ...  NO
EPR diamagnetic integrals (GIAO)          ...  NO
EPR gauge integrals                       ...  NO
Field gradient integrals                  ...  NO (   0 nuclei)
Spin-dipole/Fermi contact integrals       ...  NO (   0 nuclei)
Contact density integrals                 ...  NO (   0 nuclei)
Nucleus-orbit integrals                   ...  NO (   0 nuclei)
Geometric perturbations                   ...  NO (  10 nuclei)

Choice of electric origin   ... Center of mass
Position of electric origin ... (  0.0000,  0.0000,  0.0124) 
Choice of magnetic origin   ... GIAO
Position of magnetic origin ... (  0.0000,  0.0000,  0.0000) 

Calculating integrals                     ... Electric Dipole (Length)     done (  0.0 sec)
Calculating integrals                     ... Electric Quadrupole (Length) done (  0.0 sec)

Property integrals calculated in   0.0 sec

Maximum memory used throughout the entire PROPINT-calculation: 27.1 MB
------------------------------------------------------------------------------
                           ORCA ORBITAL LOCALIZATION
------------------------------------------------------------------------------

Input orbitals are from                  ... /cluster/projects/nn14654k/ylvaos/basis_set_n_funcs/functionals/gga_x_pbe/C4H6/inp/C4H6_gga_x_pbe_def2qzvp.gbw
Output orbitals are to                   ... /cluster/projects/nn14654k/ylvaos/basis_set_n_funcs/functionals/gga_x_pbe/C4H6/inp/C4H6_gga_x_pbe_def2qzvp.loc
Max. number of iterations                ... 128
Localizations seeded randomly            ... on
Convergence tolerance                    ... 1.000e-06
Threshold for strong local MOs           ... 9.500e-01
Threshold for bond MOs                   ... 8.500e-01
Operator                                 ... 0
Orbital range for localization           ... 4 to 14
Localization criterion                   ... NEW-BOYS
Doing the dipole integrals               ... o.k.
Initial value of the localization sum :    55.771184
ITERATION   0 : L=   80.9708439358 DL=  2.52e+01 (AVERGE_DL)=    0.6768867185 
ITERATION   1 : L=   86.6914156285 DL=  5.72e+00 (AVERGE_DL)=    0.3225064254 
ITERATION   2 : L=   86.9014349985 DL=  2.10e-01 (AVERGE_DL)=    0.0617942878 
ITERATION   3 : L=   86.9029620104 DL=  1.53e-03 (AVERGE_DL)=    0.0052691416 
ITERATION   4 : L=   86.9029742031 DL=  1.22e-05 (AVERGE_DL)=    0.0004708340 
ITERATION   5 : L=   86.9029742869 DL=  8.38e-08 (AVERGE_DL)=    0.0000390391 
LOCALIZATION SUM CONVERGED


--------------------------------------------------------------------------------
                    LOCALIZED MOLECULAR ORBITAL COMPOSITIONS
--------------------------------------------------------------------------------

The Mulliken populations for each LMO on each atom are computed
The LMO`s will be ordered according to atom index and type
  (A) Strongly localized MO`s have populations of >=0.950 on one atom
  (B) Two center bond orbitals have populations of >=0.850 on two atoms
  (C) Other MO`s are considered to be `delocalized`

FOUND  -   0 strongly local MO`s
       -  11 two center bond MO`s
       -   0 significantly delocalized MO`s

Bond-like localized orbitals:
MO  14:   9H  -   0.495223  and   3C  -   0.526544
MO  13:   8H  -   0.495222  and   3C  -   0.526545
MO  12:   7H  -   0.495223  and   2C  -   0.526545
MO  11:   6H  -   0.495223  and   2C  -   0.526545
MO  10:   5H  -   0.492641  and   0C  -   0.533435
MO   9:   4H  -   0.492641  and   0C  -   0.533435
MO   8:   3C  -   0.507102  and   2C  -   0.507102
MO   7:   3C  -   0.541291  and   1C  -   0.506827
MO   6:   2C  -   0.541291  and   1C  -   0.506827
MO   5:   1C  -   0.500874  and   0C  -   0.515589
MO   4:   1C  -   0.500874  and   0C  -   0.515589
Localized MO's were stored in: /cluster/projects/nn14654k/ylvaos/basis_set_n_funcs/functionals/gga_x_pbe/C4H6/inp/C4H6_gga_x_pbe_def2qzvp.loc

-------------------------   --------------------
FINAL SINGLE POINT ENERGY      -154.853340603309
-------------------------   --------------------



           ************************************************************
           *        Program running with 8 parallel MPI-processes     *
           *              working on a common directory               *
           ************************************************************

------------------------------------------------------------------------------
                              ORCA PROPERTY CALCULATIONS
------------------------------------------------------------------------------

GBWName                                 ... /cluster/projects/nn14654k/ylvaos/basis_set_n_funcs/functionals/gga_x_pbe/C4H6/inp/C4H6_gga_x_pbe_def2qzvp.gbw
Number of atoms                         ...     10
Number of basis functions               ...    408
Max core memory                         ...   4096 MB

Electric properties:
Dipole moment                           ... YES
Quadrupole moment                       ... YES
Static polarizability (Dipole/Dipole)   ...  NO
Static polarizability (Dipole/Quad.)    ...  NO
Static polarizability (Quad./Quad.)     ...  NO
Static polarizability (Velocity)        ...  NO
Static hyperpolarizability              ...  NO

Atomic electric properties:
Dipole moment                           ...  NO
Quadrupole moment                       ...  NO
Static polarizability                   ...  NO

Choice of electric origin               ... Center of mass
Position of electric origin             ...     0.000000     0.000000     0.012360

General magnetic properties:
Magnetizability                         ...  NO

EPR properties:
g-Tensor (aka g-matrix)                 ...  NO
Zero-Field splitting spin-orbit         ...  NO
Zero-field splitting spin-spin          ...  NO
Hyperfine couplings                     ...  NO (   0 nuclei)
Quadrupole couplings                    ...  NO (   0 nuclei)
Contact density                         ...  NO (   0 nuclei)

NMR properties:
Chemical shifts                         ...  NO (   0 nuclei)
Spin-rotation constants                 ...  NO (   0 nuclei)
Spin-spin couplings                     ...  NO (   0 nuclei,    0 pairs)

Choice of magnetic origin               ... GIAO
Position of magnetic origin             ...     0.000000     0.000000     0.000000

Properties with geometric perturbations:
SCF Hessian                             ...  NO
IR spectrum                             ...  NO
VCD spectrum                            ...  NO
X-ray spectroscopy properties:
SCF XES/XAS/RIXS spectra                ...  NO

SCF SOC stabilization energy            ...  NO
Diagonal Born-Oppenheimer correction    ...  NO

-------------
DIPOLE MOMENT
-------------

Method             : SCF
Type of density    : Electron Density
Multiplicity       :   1
Irrep              :   0
Energy             :  -154.8533406033094479 Eh
Basis              : AO
                                X                 Y                 Z
Electronic contribution:     -0.000000003      -0.000000006       0.196820065
Nuclear contribution   :      0.000000000       0.000000000      -0.371559272
                        -----------------------------------------
Total Dipole Moment    :     -0.000000003      -0.000000006      -0.174739206
                        -----------------------------------------
Magnitude (a.u.)       :      0.174739206
Magnitude (Debye)      :      0.444151765



--------------------
Rotational spectrum 
--------------------
 
Rotational constants in cm-1:             0.643527             0.230144             0.181788 
Rotational constants in MHz :         19292.450199          6899.535423          5449.866904 

Dipole components along the rotational axes: 
x,y,z [a.u.] :    -0.174739    -0.000000    -0.000000 
x,y,z [Debye]:    -0.444152    -0.000000    -0.000000 

 

Dipole moment calculation done in   0.0 sec 

-----------------
QUADRUPOLE MOMENT
-----------------

Method             : SCF
Type of density    : Electron Density
Multiplicity       :   1
Irrep              :   0
Energy             :  -154.8533406033094479 Eh
Basis              : AO

                XX              YY              ZZ              XY              XZ              YZ
  NUC       11.888664720    55.799971245   152.416444257     0.000000000     0.000000000     0.000000000
  EL       -31.609048282   -74.693205957  -172.053069966     0.000000001     0.000000018     0.000000047
  TOT      -19.720383562   -18.893234712   -19.636625709     0.000000001     0.000000018     0.000000047 (a.u.)
           -26.524590328   -25.412046836   -26.411933151     0.000000002     0.000000024     0.000000063 (Buckingham)

diagonalized tensor:
           -19.720383562   -19.636625709   -18.893234712 (a.u.)
           -26.524590328   -26.411933151   -25.412046836 (Buckingham)
            -1.225200670    -0.887229136     2.112429806 (traceless form in Buckingham)

             1.000000000     0.000000210     0.000000002
            -0.000000002    -0.000000063     1.000000000
            -0.000000210     1.000000000     0.000000063
        
Isotropic quadrupole :   -19.416747994

Quadrupole moment calculation done in   0.0 sec (  0.0 sec for integrals)

Maximum memory used throughout the entire PROP-calculation: 23.6 MB

--------------------------------
SUGGESTED CITATIONS FOR THIS RUN
--------------------------------

Below you find a list of papers that are relevant to this ORCA run
We neither can nor want to force you to cite these papers, but we appreciate if you do
You receive ORCA, which is the product of decades of hard work by many enthusiastic individuals, for free
The only thing we kindly ask in return is that you cite our papers,
We deeply appreciate it, if you show your appreciation for ORCA by not just citing the generic ORCA reference.

Please note that relegating all ORCA citations to the supporting information does *not* help us.
SI sections are not indexed - citations you put there will not count into any citation statistics
But we need these citations in order to attract the funding resources that allow us to do what we are doing

Therefore, if you are a happy ORCA user, please consider citing a few of the papers listed below in the main body of your paper

In addition to the list printed below, the program has created the file /cluster/projects/nn14654k/ylvaos/basis_set_n_funcs/functionals/gga_x_pbe/C4H6/inp/C4H6_gga_x_pbe_def2qzvp.bibtex that contains the list in bibtex format
You can import this file easily into all common literature databanks and citation aid programs

It goes without saying that in many instances, there are alternative algorithms to achieve similar
results as the ones you have gotten from ORCA. It is, of course, also the case that in some instances
ORCA just re-implements algorithms worked out by others. We are fully aware of that and we are also
fully appreciative of our colleagues work. Hence this citation list should not be read as indicating
that the listed papers, which are focused on our own work, are the only ones worth citing. It simply
meant to make it easier for users to cite ORCA specific papers. It is not a substitute for doing your
own literature research and citing the relevant literature in a scientifically appropriate manner.

List of essential papers. We consider these as the minimum necessary citations

  1. Neese, F.
     Software update: the ORCA program system, version 6.0
     WIRES Comput. Molec. Sci. 2025 15(1), e70019
     doi.org/10.1002/wcms.70019

List of papers to cite with high priority. The work reported in these papers was absolutely
necessary for this run to complete.
Our perspective: the developers of density functionals and basis sets usually get cited in chemistry papers
Good! But without the algorithms to do something with them, the functionals or basis sets would not do anything.
Hence, in our opinion, the algorithm design and method developments papers are equally worthy of getting cited

  1. Lehtola, S.; Steigemann, C.; Oliveira, M.; Marques, M.
     Recent developments in Libxc - A comprehensive library of functionals for density functional theory
     Software X 2018 7 , 
     doi.org/10.1016/j.softx.2017.11.002
  2. Neese, F.
     The SHARK Integral Generation and Digestion System
     J. Comp. Chem. 2022 44(3), 381
     doi.org/10.1002/jcc.26942

List of suggested additional citations. These are papers that are important in the 'surrounding' of 
of this run, or papers that preceded the highly important papers. If you like your results we are grateful for a citation.

  1. Neese, F.
     The ORCA program system
     WIRES Comput. Molec. Sci. 2012 2(1), 73-78
     doi.org/10.1002/wcms.81
  2. Neese, F.
     Software update: the ORCA program system, version 4.0
     WIRES Comput. Molec. Sci. 2018 8(1), 1-6
     doi.org/10.1002/wcms.1327
  3. Neese, F.; Wennmohs, F.; Becker, U.; Riplinger, C.
     The ORCA quantum chemistry program package
     J. Chem. Phys. 2020 152(22), 224108
     doi.org/10.1063/5.0004608
  4. Neese, F.
     Software update: The ORCA program system—Version 5.0
     WIRES Comput. Molec. Sci. 2022 12(1), e1606
     doi.org/10.1002/wcms.1606

List of optional additional citations

  1. Neese, F.
     Approximate second-order SCF convergence for spin unrestricted wavefunctions
     Chem. Phys. Lett. 2000 325(1-3), 93-98
     doi.org/10.1016/s0009-2614(00)00662-x

Timings for individual modules:

Sum of individual times          ...       50.475 sec (=   0.841 min)
Startup calculation              ...        0.655 sec (=   0.011 min)   1.3 %
SCF iterations                   ...       49.299 sec (=   0.822 min)  97.7 %
Property integrals               ...        0.268 sec (=   0.004 min)   0.5 %
Property calculations            ...        0.242 sec (=   0.004 min)   0.5 %
Orbital localization             ...        0.011 sec (=   0.000 min)   0.0 %
                             ****ORCA TERMINATED NORMALLY****
TOTAL RUN TIME: 0 days 0 hours 0 minutes 50 seconds 976 msec
