
                                 *****************
                                 * O   R   C   A *
                                 *****************

                                            #,                                       
                                            ###                                      
                                            ####                                     
                                            #####                                    
                                            ######                                   
                                           ########,                                 
                                     ,,################,,,,,                         
                               ,,#################################,,                 
                          ,,##########################################,,             
                       ,#########################################, ''#####,          
                    ,#############################################,,   '####,        
                  ,##################################################,,,,####,       
                ,###########''''           ''''###############################       
              ,#####''   ,,,,##########,,,,          '''####'''          '####       
            ,##' ,,,,###########################,,,                        '##       
           ' ,,###''''                  '''############,,,                           
         ,,##''                                '''############,,,,        ,,,,,,###''
      ,#''                                            '''#######################'''  
     '                                                          ''''####''''         
             ,#######,   #######,   ,#######,      ##                                
            ,#'     '#,  ##    ##  ,#'     '#,    #''#        ,####,    ,#,          
            ##       ##  ##   ,#'  ##            #'  '#       #'       ,# #          
            ##       ##  #######   ##           ,######,      #####,      #          
            '#,     ,#'  ##    ##  '#,     ,#' ,#      #,     #,   #      #          
             '#######'   ##     ##  '#######'  #'      '#     '####' #    #          



                #########################################################
                #                        -***-                          #
                #          Department of theory and spectroscopy        #
                #                                                       #
                #                      Frank Neese                      #
                #                                                       #
                #     Directorship, Architecture, Infrastructure        #
                #                    SHARK, DRIVERS                     #
                #        Core code/Algorithms in most modules           #
                #                                                       #
                #        Max Planck Institute fuer Kohlenforschung      #
                #                Kaiser Wilhelm Platz 1                 #
                #                 D-45470 Muelheim/Ruhr                 #
                #                      Germany                          #
                #                                                       #
                #                  All rights reserved                  #
                #                        -***-                          #
                #########################################################


                         Program Version 6.1.1  -  RELEASE   -
                                (GIT: $487d211c$)
                          ($2025-11-21 10:33:24 +0100$)


 With contributions from (in alphabetic order):
[Max-Planck-Institut fuer Kohlenforschung]                               
  Daniel Aravena         : Magnetic Suceptibility                        
  Michael Atanasov       : Ab Initio Ligand Field Theory (pilot matlab implementation)
  Alexander A. Auer      : GIAO ZORA, VPT2 properties, NMR spectrum      
  Ute Becker             : All parallelization in ORCA, NUMFREQ, NUMCALC 
  Giovanni Bistoni       : ED, misc. LED, open-shell LED, HFLD           
  Dmytro Bykov           : pre 5.0 version of the SCF Hessian            
  Marcos Casanova-Páez   : Triplet and SCS-CIS(D). UHF-(DLPNO)-IP/EA/STEOM-CCSD. UHF-CVS-IP/STEOM-CCSD   
  Vijay G. Chilkuri      : MRCI spin determinant printing, contributions to CSF-ICE 
  Pauline Colinet        : FMM embedding                                 
  Dipayan Datta          : RHF DLPNO-CCSD density                        
  Achintya Kumar Dutta   : EOM-CC, STEOM-CC                              
  Nicolas Foglia         : Exact transition moments, OPA infrastructure, MCD improvements    
  Dmitry Ganyushin       : Spin-Orbit,Spin-Spin,Magnetic field MRCI      
  Miquel Garcia-Rates    : C-PCM and meta-GGA Hessian, CCSD/C-PCM, Gaussian charge scheme 
  Tiago L. C. Gouveia    : GS-ROHF, GS-ROCIS                             
  Yang Guo               : DLPNO-NEVPT2, F12-NEVPT2, CIM, IAO-localization        
  Andreas Hansen         : Spin unrestricted coupled pair/coupled cluster methods 
  Ingolf Harden          : AUTO-CI MPn and infrastructure                
  Benjamin Helmich-Paris : MC-RPA, TRAH-(SCF,CASSCF), AVAS, COSX integrals, SCF dyn. polar., MC-PDFT, srDFT 
  Lee Huntington         : MR-EOM, pCC                                   
  Robert Izsak           : Overlap fitted RIJCOSX, COSX-SCS-MP3, EOM     
  Riya Kayal             : Wick's Theorem for AUTO-CI, AUTO-CI UHF-CCSDT 
  Emily Kempfer          : AUTO-CI RHF CISDT and CCSDT, approximate NEVPT4
  Christian Kollmar      : KDIIS, OOCD, Brueckner-CCSD(T), CCSD density, CASPT2, CASPT2-K, improved NEVPT2 
  Axel Koslowski         : Symmetry handling                             
  Simone Kossmann        : meta-GGA functionals, TD-DFT gradient, OOMP2, (MP2 Hessian; deprecated post 5.0) 
  Lucas Lang             : DCDCAS, Hyperfine gauge corrections, ICE-SOC+SSC
  Marvin Lechner         : AUTO-CI (C++ implementation), FIC-MRCC        
  Spencer Leger          : CASSCF response                               
  Dagmar Lenk            : GEPOL surface, SMD, ORCA-2-JSON               
  Dimitrios Liakos       : Extrapolation schemes; Compound Job, Property file
  Dimitrios Manganas     : Further ROCIS development; embedding schemes. LFT, Crystal Embedding 
  Dimitrios Pantazis     : SARC Basis sets                               
  Anastasios Papadopoulos: AUTO-CI, single reference methods and gradients 
  Taras Petrenko         : pre 6.0 DFT Hessian and TD-DFT gradient,  ECA, NRVS 
  Petra Pikulova         : Analytic Raman intensities                    
  Peter Pinski           : DLPNO-MP2, DLPNO-MP2 Gradient                 
  Shashank Vittal Rao    : ES-AILFT, MagRelax                            
  Christoph Reimann      : Effective Core Potentials                     
  Marius Retegan         : Local ZFS, SOC                                
  Christoph Riplinger    : Optimizer, TS searches, QM/MM, DLPNO-CCSD(T), (RO)-DLPNO pert. Triples 
  Michael Roemelt        : Original ROCIS implementation, recursive CI coupling coefficients
  Masaaki Saitow         : Open-shell DLPNO-CCSD energy and density      
  Barbara Sandhoefer     : DKH picture change effects                    
  Yorick L. A. Schmerwitz: GMF and freeze-and-release deltaSCF, NEB S-IDPP initial path                    
  Kantharuban Sivalingam : CASSCF convergence/infrastructure, NEVPT2, NEVPT3, NEVPT4(SD), FIC-MRCI and CEPA variants
  Bernardo de Souza      : ESD, SOC TD-DFT                               
  Georgi L. Stoychev     : AutoAux, RI-MP2 NMR, DLPNO-MP2 response, X2C  
  Van Anh Tran           : RI-MP2 g-tensors                              
  Willem Van den Heuvel  : Paramagnetic NMR                              
  Zikuan Wang            : NOTCH, Electric field optimization            
  Frank Wennmohs         : Technical directorship and infrastructure     
  Hang Xu                : AUTO-CI-Response properties                   
                                                                         
[FACCTs GmbH]                                                            
  Markus Bursch, Nicolas Foglia, Miquel Garcia-Rates, Ingolf Harden, Hagen Neugebauer, Anastasios Papadopoulos, 
  Christoph Riplinger, Bernardo de Souza, Georgi L. Stoychev                                                    
                                                                 
  APM, various basis sets, CI-OPT, improved COSX, DLPNO-Multilevel,           
  DOCKER, DRACO, updates on ESD, Fragmentator, GOAT, IRC, LR-CPCM, L-BFGS, MBIS, meta-GGA TD-DFT gradient, ML-optimized integration grids, 
  MM, NACMEs, nearIR, NEB, NEB-TS, NL-DFT gradient (VV10), 2- and 3-layer-ONIOM, interface openCOSMO-RS, QMMM,   
  Crystal-QMMM, RESP, rigid body optimization, SF, symmetry and pop. for TD-DFT, various functionals, SOLVATOR                                   
                                                                         
[Other institutions]                                                     
  V. Asgeirsson          : NEB                                           
  Christoph Bannwarth    : sTDA-DFT, sTD-DFT, PBEh-3c, B97-3c, D3        
  Giovanni Bistoni       : ETS/NOCV, ADLD/ADEX, COVALED                  
  Martin Brehm           : Molecular dynamics                            
  Ronald Cardenas        : ETS/NOCV                                      
  Martina Colucci        : COVALED                                       
  Sebastian Ehlert       : rSCAN, r2SCAN, r2SCAN-3c, D4, dhf basis sets  
  Marvin Friede          : D4 for Fr, Ra, Ac-Lr                          
  Lars Goerigk           : TD-DFT with DH, B97 family of functionals     
  Stefan Grimme          : VdW corrections, initial TS optimization, DFT functionals, gCP, sTDA/sTD-DF 
  Waldemar Hujo          : DFT-NL                                        
  H. Jonsson             : NEB                                           
  Holger Kruse           : gCP                                           
  Marcel Mueller         : wB97X-3c, vDZP basis set                      
  Hagen Neugebauer       : wr2SCAN, Native XTB                           
  Gianluca Regni         : ADLD/ADEX                                     
  Tobias Risthaus        : pre 6.0 range-separated hybrid DFT and stability analysis
  Lukas Wittmann         : regularized MP2, r2SCAN double-hybrids, wr2SCAN        
                                                                         
We gratefully acknowledge several colleagues who have allowed us to      
interface, adapt or use parts of their codes:                            
  Ed Valeev, F. Pavosevic, A. Kumar             : LibInt (2-el integral package), F12 methods 
  Garnet Chan, S. Sharma, J. Yang, R. Olivares  : DMRG                   
  Ulf Ekstrom                                   : XCFun DFT Library      
  Mihaly Kallay                                 : mrcc  (arbitrary order and MRCC methods)
  Frank Weinhold                                : gennbo (NPA and NBO analysis)           
  Simon Mueller                                 : openCOSMO-RS                            
  Christopher J. Cramer and Donald G. Truhlar   : smd solvation model                     
  S Lehtola, MJT Oliveira, MAL Marques          : LibXC Library                           
  Liviu Ungur et al                             : ANISO software                          


 Your calculation uses the libint2 library for the computation of 2-el integrals
 For citations please refer to: http://libint.valeyev.net

 Your ORCA version has been built with support for libXC version: 7.0.0
 For citations please refer to: https://libxc.gitlab.io

 This ORCA versions uses:
   CBLAS   interface :  Fast vector & matrix operations
   LAPACKE interface :  Fast linear algebra routines
   SCALAPACK package :  Parallel linear algebra routines
   Shared memory     :  Shared parallel matrices
   BLAS/LAPACK       :  OpenBLAS 0.3.29  USE64BITINT DYNAMIC_ARCH NO_AFFINITY Cooperlake SINGLE_THREADED
        Core in use  :  Cooperlake
   Copyright (c) 2011-2014, The OpenBLAS Project


  ***********************************
  * Starting time: Tue May 12 11:21:02 2026
  * Host name:     c1-94
  * Process ID:    213367
  * Working dir.:  /cluster/projects/nn14654k/ylvaos/basis_set_n_funcs/functionals/gga_x_pbe/C4H6/out
  ***********************************

Using LibXC functional ID 101 : Perdew, Burke & Ernzerhof
[ 1]  J. P. Perdew, K. Burke, and M. Ernzerhof.,  Phys. Rev. Lett. 77, 3865 (1996)
[ 2]  J. P. Perdew, K. Burke, and M. Ernzerhof.,  Phys. Rev. Lett. 78, 1396 (1997)
Using LibXC functional ID 101 : Perdew, Burke & Ernzerhof
[ 1]  J. P. Perdew, K. Burke, and M. Ernzerhof.,  Phys. Rev. Lett. 77, 3865 (1996)
[ 2]  J. P. Perdew, K. Burke, and M. Ernzerhof.,  Phys. Rev. Lett. 78, 1396 (1997)
Your calculation utilizes LibXC
by S. Lehtola, C. Steigemann, M. J. T. Oliveira & M. A. L. Marques
Please cite in your paper:
Lehtola, S.; Steigemann, C.; Oliveira, M.J.T.; Marques, M. A. L. Software X, 7, (2018), 1.
   

================================================================================

----- Orbital basis set information -----
Your calculation utilizes the basis: cc-pVDZ 
       H, B-Ne : Obtained from the ccRepo (grant-hill.group.shef.ac.uk/ccrepo) Feb. 2017
                 T. H. Dunning, Jr., J. Chem. Phys. 90, 1007 (1989)
            He : Obtained from the ccRepo (grant-hill.group.shef.ac.uk/ccrepo) Feb. 2017
                 D. E. Woon, T. H. Dunning, Jr., J. Chem. Phys. 100, 2975 (1994)
  Li-Be, Na-Mg : Obtained from the ccRepo (grant-hill.group.shef.ac.uk/ccrepo) Feb. 2017
                 B. P. Prascher, D. E. Woon, K. A. Peterson, T. H. Dunning, Jr., A. K. Wilson, Theor. Chem. Acc. 128, 69 (2011)
         Al-Ar : Obtained from the ccRepo (grant-hill.group.shef.ac.uk/ccrepo) Feb. 2017
                 D. E. Woon, T. H. Dunning, Jr., J. Chem. Phys. 98, 1358 (1993)
            Ca : Obtained from the Peterson Research Group Website (tyr0.chem.wsu.edu/~kipeters) Feb. 2017
                 J. Koput, K. A. Peterson, J. Phys. Chem. 106, 9595 (2002)
         Sc-Zn : Obtained from the ccRepo (grant-hill.group.shef.ac.uk/ccrepo) Feb. 2017
                 N. B. Balabanov, K. A. Peterson, J. Chem. Phys. 123, 064107 (2005)
                 N. B. Balabanov, K. A. Peterson, J. Chem. Phys. 125, 074110 (2006)
         Ga-Kr : Obtained from the ccRepo (grant-hill.group.shef.ac.uk/ccrepo) Feb. 2017
                 A. K. Wilson, D. E. Woon, K. A. Peterson, T. H. Dunning, Jr., J. Chem. Phys. 110, 7667 (1999)

================================================================================
                                        WARNINGS
                       Please study these warnings very carefully!
================================================================================


================================================================================
                                       INPUT FILE
================================================================================
NAME = /cluster/projects/nn14654k/ylvaos/basis_set_n_funcs/functionals/gga_x_pbe/C4H6/inp/C4H6_gga_x_pbe_ccpvdz.inp
|  1> ! dft cc-pVDZ TightSCF
|  2> %pal nprocs 8 end
|  3> 
|  4> %loc
|  5>   LocMet NewBoys
|  6>   Occ true
|  7> end
|  8> 
|  9> %method
| 10>   exchange gga_x_pbe
| 11> end
| 12> 
| 13> %elprop
| 14>   Dipole true
| 15> end
| 16> 
| 17> * xyz 0 1
| 18> C    0.000000000000   0.000000000000   1.632000000000
| 19> C    0.000000000000   0.000000000000   0.300000000000
| 20> C    0.000000000000   0.771000000000  -0.936300000000
| 21> C    0.000000000000  -0.771000000000  -0.936300000000
| 22> H    0.000000000000   0.914000000000   2.222200000000
| 23> H    0.000000000000  -0.914000000000   2.222200000000
| 24> H    0.912300000000   1.305900000000  -1.200300000000
| 25> H   -0.912300000000   1.305900000000  -1.200300000000
| 26> H   -0.912300000000  -1.305900000000  -1.200300000000
| 27> H    0.912300000000  -1.305900000000  -1.200300000000
| 28> *
| 29> 
| 30> 
| 31>                          ****END OF INPUT****
================================================================================

                       ****************************
                       * Single Point Calculation *
                       ****************************

---------------------------------
CARTESIAN COORDINATES (ANGSTROEM)
---------------------------------
  C      0.000000    0.000000    1.632000
  C      0.000000    0.000000    0.300000
  C      0.000000    0.771000   -0.936300
  C      0.000000   -0.771000   -0.936300
  H      0.000000    0.914000    2.222200
  H      0.000000   -0.914000    2.222200
  H      0.912300    1.305900   -1.200300
  H     -0.912300    1.305900   -1.200300
  H     -0.912300   -1.305900   -1.200300
  H      0.912300   -1.305900   -1.200300

----------------------------
CARTESIAN COORDINATES (A.U.)
----------------------------
  NO LB      ZA    FRAG     MASS         X           Y           Z
   0 C     6.0000    0    12.011    0.000000    0.000000    3.084033
   1 C     6.0000    0    12.011    0.000000    0.000000    0.566918
   2 C     6.0000    0    12.011    0.000000    1.456979   -1.769351
   3 C     6.0000    0    12.011    0.000000   -1.456979   -1.769351
   4 H     1.0000    0     1.008    0.000000    1.727210    4.199349
   5 H     1.0000    0     1.008    0.000000   -1.727210    4.199349
   6 H     1.0000    0     1.008    1.723997    2.467793   -2.268238
   7 H     1.0000    0     1.008   -1.723997    2.467793   -2.268238
   8 H     1.0000    0     1.008   -1.723997   -2.467793   -2.268238
   9 H     1.0000    0     1.008    1.723997   -2.467793   -2.268238

--------------------------------
INTERNAL COORDINATES (ANGSTROEM)
--------------------------------
 C      0   0   0     0.000000000000     0.00000000     0.00000000
 C      1   0   0     1.332000000000     0.00000000     0.00000000
 C      2   1   0     1.457010188708   148.05088964     0.00000000
 C      2   1   3     1.457010188708   148.05088964   180.00000000
 H      1   2   3     1.087994503663   122.85166680     0.00000000
 H      1   2   3     1.087994503663   122.85166680   180.00000000
 H      3   2   1     1.090002431190   117.72260444    70.99760541
 H      3   2   1     1.090002431190   117.72260444   289.00239459
 H      4   2   1     1.090002431190   117.72260444    70.99760541
 H      4   2   1     1.090002431190   117.72260444   289.00239459

---------------------------
INTERNAL COORDINATES (A.U.)
---------------------------
 C      0   0   0     0.000000000000     0.00000000     0.00000000
 C      1   0   0     2.517115210383     0.00000000     0.00000000
 C      2   1   0     2.753350230992   148.05088964     0.00000000
 C      2   1   3     2.753350230992   148.05088964   180.00000000
 H      1   2   3     2.056011647134   122.85166680     0.00000000
 H      1   2   3     2.056011647134   122.85166680   180.00000000
 H      3   2   1     2.059806080257   117.72260444    70.99760541
 H      3   2   1     2.059806080257   117.72260444   289.00239459
 H      4   2   1     2.059806080257   117.72260444    70.99760541
 H      4   2   1     2.059806080257   117.72260444   289.00239459

---------------------
BASIS SET INFORMATION
---------------------
There are 2 groups of distinct atoms

 Group   1 Type C   : 17s4p1d contracted to 3s2p1d pattern {881/31/1}
 Group   2 Type H   : 4s1p contracted to 2s1p pattern {31/1}

Atom   0C    basis set group =>   1
Atom   1C    basis set group =>   1
Atom   2C    basis set group =>   1
Atom   3C    basis set group =>   1
Atom   4H    basis set group =>   2
Atom   5H    basis set group =>   2
Atom   6H    basis set group =>   2
Atom   7H    basis set group =>   2
Atom   8H    basis set group =>   2
Atom   9H    basis set group =>   2


           ************************************************************
           *        Program running with 8 parallel MPI-processes     *
           *              working on a common directory               *
           ************************************************************
------------------------------------------------------------------------------
                             ORCA STARTUP CALCULATIONS
------------------------------------------------------------------------------
------------------------------------------------------------------------------
                   ___                                                        
                  /   \      - P O W E R E D   B Y -                         
                 /     \                                                     
                 |  |  |   _    _      __       _____    __    __             
                 |  |  |  | |  | |    /  \     |  _  \  |  |  /  |          
                  \  \/   | |  | |   /    \    | | | |  |  | /  /          
                 / \  \   | |__| |  /  /\  \   | |_| |  |  |/  /          
                |  |  |   |  __  | /  /__\  \  |    /   |      \           
                |  |  |   | |  | | |   __   |  |    \   |  |\   \          
                \     /   | |  | | |  |  |  |  | |\  \  |  | \   \       
                 \___/    |_|  |_| |__|  |__|  |_| \__\ |__|  \__/        
                                                                              
                      - O R C A' S   B I G   F R I E N D -                    
                                      &                                       
                       - I N T E G R A L  F E E D E R -                       
                                                                              
 v1 FN, 2020, v2 2021, v3 2022-2024                                           
------------------------------------------------------------------------------


----------------------
SHARK INTEGRAL PACKAGE
----------------------

Number of atoms                             ...     10
Number of basis functions                   ...    110
Number of shells                            ...     66
Maximum angular momentum                    ...      2
Integral batch strategy                     ... SHARK/LIBINT Hybrid
RI-J (if used) integral strategy            ... SPLIT-RIJ (Revised 2003 algorithm where possible)
Printlevel                                  ...      1
Contraction scheme used                     ... PARTIAL GENERAL contraction
Prescreening option                         ... SCHWARTZ
   Thresh                                   ... 2.500e-11
   Tcut                                     ... 2.500e-12
   Tpresel                                  ... 2.500e-12 
Coulomb Range Separation                    ... NOT USED
Exchange Range Separation                   ... NOT USED
Multipole approximations                    ... NOT USED
Finite Nucleus Model                        ... NOT USED
CABS basis                                  ... NOT available
Auxiliary Coulomb fitting basis             ... NOT available
Auxiliary J/K fitting basis                 ... NOT available
Auxiliary Correlation fitting basis         ... NOT available
Auxiliary 'external' fitting basis          ... NOT available

Checking pre-screening integrals            ... done (  0.0 sec) Dimension = 66
Save PGC pre-screening integrals            ... done (  0.0 sec) Dimension = 66
Calculate PGC overlap integrals             ... done (  0.0 sec) Dimension = 42
Calculating pre-screening integrals (ORCA)  ... done (  0.0 sec) Dimension = 42
Shell pair information
Shell pair cut-off parameter TPreSel        ...   2.5e-12
Total number of shell pairs                 ...      2211
Shell pairs after pre-screening             ...      1944
Total number of primitive shell pairs       ...      3771
Primitive shell pairs kept                  ...      3003
          la=0 lb=0:    935 shell pairs
          la=1 lb=0:    646 shell pairs
          la=1 lb=1:    105 shell pairs
          la=2 lb=0:    192 shell pairs
          la=2 lb=1:     56 shell pairs
          la=2 lb=2:     10 shell pairs

Checking whether 4 symmetric matrices of dimension 110 fit in memory
:Max Core in MB      =   4096.00
 MB in use           =      3.35
 MB left             =   4092.65
 MB needed           =      0.19
 Data fit in memory  = YES
Calculating Nuclear repulsion               ... done (  0.0 sec) ENN=    109.249345578353 Eh

Diagonalization of the overlap matrix:
Smallest eigenvalue                        ... 1.692e-03
Time for diagonalization                   ...    0.022 sec
Threshold for overlap eigenvalues          ... 1.000e-07
Number of eigenvalues below threshold      ... 0
Time for construction of square roots      ...    0.002 sec
Total time needed                          ...    0.025 sec

-------------------
DFT GRID GENERATION
-------------------

General Integration Accuracy     IntAcc      ... 4.388
Radial Grid Type                 RadialGrid  ... OptM3 with GC (2021)
Angular Grid (max. ang.)         AngularGrid ... 4 (Lebedev-302)
Angular grid pruning method      GridPruning ... 4 (adaptive)
Weight generation scheme         WeightScheme... mBecke (2022)
Basis function cutoff            BFCut       ... 1.0000e-11
Integration weight cutoff        WCut        ... 1.0000e-14
Partially contracted basis set               ... off
Rotationally invariant grid construction     ... off
Angular grids for H and He will be reduced by one unit

Total number of grid points                  ...    43682
Total number of batches                      ...      687
Average number of points per batch           ...       63
Average number of grid points per atom       ...     4368

---------------------
SHARK GRID GENERATION
---------------------

General Integration Accuracy     IntAcc      ... 4.388
Radial Grid Type                 RadialGrid  ... OptM3 with GC (2021)
Angular Grid (max. ang.)         AngularGrid ... 4 (Lebedev-302)
Angular grid pruning method      GridPruning ... 4 (adaptive)
Weight generation scheme         WeightScheme... mBecke (2022)
Basis function cutoff            BFCut       ... 1.0000e-11
Integration weight cutoff        WCut        ... 1.0000e-14
Partially contracted basis set               ... off
Rotationally invariant grid construction     ... off
Angular grids for H and He will be reduced by one unit
Steep s-basis detected: some atoms will have their radial
                        grid points doubled.

Total number of grid points                  ...    68153
Total number of batches                      ...     1069
Average number of points per batch           ...       63
Average number of grid points per atom       ...     6815
Grids setup in   0.6 sec
Initializing property integral containers    ... done (  0.0 sec)

SHARK setup successfully completed in   1.4 seconds

Maximum memory used throughout the entire STARTUP-calculation: 17.6 MB


           ************************************************************
           *        Program running with 8 parallel MPI-processes     *
           *              working on a common directory               *
           ************************************************************
-------------------------------------------------------------------------------
                                 ORCA GUESS
                   Start orbitals & Density for SCF / CASSCF
-------------------------------------------------------------------------------

------------
SCF SETTINGS
------------
Hamiltonian:
 Density Functional     Method          .... DFT(GTOs)
  Functional kind                       .... Exchange
  Functional name                       .... Perdew, Burke & Ernzerhof
  Functional family                     .... GGA
  Functional refs                              
    [ 0] J. P. Perdew, K. Burke, and M. Ernzerhof.,  Phys. Rev. Lett. 77, 3865 (1996), doi: 10.1103/PhysRevLett.77.3865
    [ 1] J. P. Perdew, K. Burke, and M. Ernzerhof.,  Phys. Rev. Lett. 78, 1396 (1997), doi: 10.1103/PhysRevLett.78.1396
  Functional external parameters        .... 2
    Parameter  0 _kappa     =  8.040000e-01 : Asymptotic value of the enhancement function
    Parameter  1 _mu        =  2.195150e-01 : Coefficient of the 2nd order expansion
 Correlation Functional Correlation     .... VWN-5
 Gradients option       PostSCFGGA      .... off


General Settings:
 Integral files         IntName         .... /cluster/projects/nn14654k/ylvaos/basis_set_n_funcs/functionals/gga_x_pbe/C4H6/inp/C4H6_gga_x_pbe_ccpvdz
 Hartree-Fock type      HFTyp           .... RHF
 Total Charge           Charge          ....    0
 Multiplicity           Mult            ....    1
 Number of Electrons    NEL             ....   30
 Basis Dimension        Dim             ....   86
 Nuclear Repulsion      ENuc            ....    109.2493455784 Eh

Convergence Acceleration:
 AO-DIIS                CNVDIIS         .... on
   Start iteration      DIISMaxIt       ....    12
   Startup error        DIISStart       ....  0.200000
   # of expansion vecs  DIISMaxEq       ....     5
   Bias factor          DIISBfac        ....   1.050
   Max. coefficient     DIISMaxC        ....  10.000
 MO-DIIS                CNVKDIIS        .... off
 Trust-Rad. Augm. Hess. CNVTRAH         .... auto
   Auto Start mean grad. ratio tolernc. ....  1.125000
   Auto Start start iteration           ....    50
   Auto Start num. interpolation iter.  ....    10
   Max. Number of Micro iterations      ....    24
   Max. Number of Macro iterations      .... Maxiter - #DIIS iter
   Number of Davidson start vectors     ....     2
   Converg. threshold    (grad. norm)   ....   1.000e-05
   Grad. Scal. Fac. for Micro threshold ....   0.100
   Minimum threshold for Micro iter.    ....   1.000e-02
   NR start threshold (gradient norm)   ....   1.000e-04
   Initial trust radius                 ....   0.400
   Minimum AH scaling param. (alpha)    ....   1.000
   Maximum AH scaling param. (alpha)    .... 1000.000
   Quad. conv. algorithm                .... NR
   White noise on init. David. guess    .... on
   Maximum white noise                  ....   0.010
   Pseudo random numbers                .... off
   Inactive MOs                         .... canonical
   Orbital update algorithm             .... Taylor
   Preconditioner                       .... Diag
   Full preconditioner red. dimension   ....   250
 SOSCF                 CNVSOSCF           .... on
   Start iteration     SOSCFMaxIt         ....   150
   Startup grad/error  SOSCFStart         ....  0.003300
   Hessian update      SOSCFHessUp        .... L-BFGS
   Autom. constraints  SOSCFAutoConstrain .... off
 Level Shifting         CNVShift        .... on
   Level shift para.    LevelShift      ....    0.2500
   Turn off err/grad.   ShiftErr        ....    0.0010
 Zerner damping         CNVZerner       .... off
 Static damping         CNVDamp         .... on
   Fraction old density DampFac         ....    0.7000
   Max. Damping (<1)    DampMax         ....    0.9800
   Min. Damping (>=0)   DampMin         ....    0.0000
   Turn off err/grad.   DampErr         ....    0.1000

SCF Procedure:
 Maximum # iterations   MaxIter         ....   125
 SCF integral mode      SCFMode         .... Direct
   Integral package                     .... SHARK and LIBINT hybrid scheme
 Reset frequency        DirectResetFreq ....    20
 Integral Threshold     Thresh          ....  2.500e-11 Eh
 Primitive CutOff       TCut            ....  2.500e-12 Eh

Convergence Tolerance:
 Convergence Check Mode ConvCheckMode   .... Total+1el-Energy
 Convergence forced     ConvForced      .... 0
 Energy Change          TolE            ....  1.000e-08 Eh
 1-El. energy change                    ....  1.000e-05 Eh
 Orbital Gradient       TolG            ....  1.000e-05
 Orbital Rotation angle TolX            ....  1.000e-05
 DIIS Error             TolErr          ....  5.000e-07

------------------------------
INITIAL GUESS: MODEL POTENTIAL
------------------------------
Loading Hartree-Fock densities                     ... done
Calculating cut-offs                               ... done
Initializing the effective Hamiltonian             ... done
Setting up the integral package (SHARK)            ... done
Starting the Coulomb interaction                   ... done (   0.1 sec)
Making the grid                                    ... done (   0.0 sec)
Mapping shells                                     ... done
Starting the XC term evaluation                    ... done (   0.1 sec)
  promolecular density results
     # of electrons  =     29.996209296
     EX              =    -22.197083970
     EC              =     -1.852098693
     EX+EC           =    -24.049182662
Transforming the Hamiltonian                       ... done (   0.0 sec)
Diagonalizing the Hamiltonian                      ... done (   0.0 sec)
Back transforming the eigenvectors                 ... done (   0.0 sec)
Now organizing SCF variables                       ... done
                      ------------------
                      INITIAL GUESS DONE (   0.2 sec)
                      ------------------
             **** ENERGY FILE WAS UPDATED (/cluster/projects/nn14654k/ylvaos/basis_set_n_funcs/functionals/gga_x_pbe/C4H6/inp/C4H6_gga_x_pbe_ccpvdz.en.tmp) ****
Finished Guess after   0.4 sec
Maximum memory used throughout the entire GUESS-calculation: 5.7 MB


           ************************************************************
           *        Program running with 8 parallel MPI-processes     *
           *              working on a common directory               *
           ************************************************************

-------------------------------------------------------------------------------------------
                                      ORCA LEAN-SCF
                              memory conserving SCF solver
-------------------------------------------------------------------------------------------

----------------------------------------D-I-I-S--------------------------------------------
Iteration    Energy (Eh)           Delta-E    RMSDP     MaxDP     DIISErr   Damp  Time(sec)
-------------------------------------------------------------------------------------------
               ***  Starting incremental Fock matrix formation  ***
    1    -156.5465641811956630     0.00e+00  1.12e-02  5.65e-02  1.60e-01  0.700   0.3
    2    -156.6022028687577290    -5.56e-02  8.69e-03  3.79e-02  8.17e-02  0.700   0.1
                               ***Turning on AO-DIIS***
    3    -156.6229956843852165    -2.08e-02  3.63e-03  1.41e-02  2.72e-02  0.700   0.1
    4    -156.6347728907089163    -1.18e-02  5.29e-03  1.96e-02  9.59e-03  0.000   0.1
    5    -156.6608948961603005    -2.61e-02  1.49e-03  5.90e-03  8.28e-03  0.000   0.1
                              *** Initializing SOSCF ***
---------------------------------------S-O-S-C-F--------------------------------------
Iteration    Energy (Eh)           Delta-E    RMSDP     MaxDP     MaxGrad    Time(sec)
--------------------------------------------------------------------------------------
    6    -156.6612205511947309    -3.26e-04  5.75e-04  2.13e-03  1.90e-03     0.1
               *** Restarting incremental Fock matrix formation ***
    7    -156.6612466339197454    -2.61e-05  4.55e-04  2.95e-03  5.93e-04     0.1
    8    -156.6612395334173584     7.10e-06  2.18e-04  2.14e-03  1.34e-03     0.1
    9    -156.6612494968476881    -9.96e-06  1.63e-04  5.82e-04  1.91e-04     0.1
   10    -156.6612488045787472     6.92e-07  9.03e-05  3.84e-04  2.92e-04     0.1
   11    -156.6612500252762743    -1.22e-06  9.57e-06  5.55e-05  1.19e-05     0.1
   12    -156.6612500235364678     1.74e-09  5.16e-06  3.48e-05  1.67e-05     0.1
                 **** Energy Check signals convergence ****

               *****************************************************
               *                     SUCCESS                       *
               *           SCF CONVERGED AFTER  12 CYCLES          *
               *****************************************************

             **** ENERGY FILE WAS UPDATED (/cluster/projects/nn14654k/ylvaos/basis_set_n_funcs/functionals/gga_x_pbe/C4H6/inp/C4H6_gga_x_pbe_ccpvdz.en.tmp) ****

----------------
TOTAL SCF ENERGY
----------------

Total Energy       :       -156.66125002809576 Eh           -4262.96934 eV

Components:
Nuclear Repulsion  :        109.24934557835338 Eh            2972.82583 eV
Electronic Energy  :       -265.91059560644908 Eh           -7235.79517 eV
One Electron Energy:       -424.43047076206705 Eh          -11549.34027 eV
Two Electron Energy:        158.51987515561794 Eh            4313.54510 eV

Virial components:
Potential Energy   :       -311.51650254305241 Eh           -8476.79499 eV
Kinetic Energy     :        154.85525251495662 Eh            4213.82565 eV
Virial Ratio       :          2.01166248792862

DFT components:
N(Alpha)           :       14.999998906770 electrons
N(Beta)            :       14.999998906770 electrons
N(Total)           :       29.999997813540 electrons
E(X)               :      -22.750186420348 Eh       
E(C)               :       -1.885839714843 Eh       
E(XC)              :      -24.636026135191 Eh       

---------------
SCF CONVERGENCE
---------------

  Last Energy change         ...   -1.7398e-09  Tolerance :   1.0000e-08
  Last MAX-Density change    ...    3.4784e-05  Tolerance :   1.0000e-07
  Last RMS-Density change    ...    5.1580e-06  Tolerance :   5.0000e-09
  Last DIIS Error            ...    1.9021e-03  Tolerance :   5.0000e-07
  Last Orbital Gradient      ...    1.6651e-05  Tolerance :   1.0000e-05
  Last Orbital Rotation      ...    1.4782e-05  Tolerance :   1.0000e-05


----------------
ORBITAL ENERGIES
----------------

  NO   OCC          E(Eh)            E(eV) 
   0   2.0000      -9.962670      -271.0980 
   1   2.0000      -9.962633      -271.0970 
   2   2.0000      -9.960246      -271.0321 
   3   2.0000      -9.945564      -270.6326 
   4   2.0000      -0.799034       -21.7428 
   5   2.0000      -0.652533       -17.7563 
   6   2.0000      -0.561335       -15.2747 
   7   2.0000      -0.488396       -13.2899 
   8   2.0000      -0.437890       -11.9156 
   9   2.0000      -0.429227       -11.6799 
  10   2.0000      -0.388037       -10.5590 
  11   2.0000      -0.341608        -9.2956 
  12   2.0000      -0.283230        -7.7071 
  13   2.0000      -0.263965        -7.1828 
  14   2.0000      -0.231501        -6.2995 
  15   0.0000      -0.035855        -0.9757 
  16   0.0000       0.037292         1.0148 
  17   0.0000       0.059342         1.6148 
  18   0.0000       0.066667         1.8141 
  19   0.0000       0.079225         2.1558 
  20   0.0000       0.090268         2.4563 
  21   0.0000       0.134927         3.6715 
  22   0.0000       0.141545         3.8516 
  23   0.0000       0.173342         4.7169 
  24   0.0000       0.217611         5.9215 
  25   0.0000       0.283289         7.7087 
*Only the first 10 virtual orbitals were printed.

                    ********************************
                    * MULLIKEN POPULATION ANALYSIS *
                    ********************************

-----------------------
MULLIKEN ATOMIC CHARGES
-----------------------
   0 C :    0.036813
   1 C :   -0.096410
   2 C :    0.037622
   3 C :    0.037622
   4 H :   -0.021714
   5 H :   -0.021714
   6 H :    0.006945
   7 H :    0.006945
   8 H :    0.006945
   9 H :    0.006945
Sum of atomic charges:   -0.0000000

--------------------------------
MULLIKEN REDUCED ORBITAL CHARGES
--------------------------------
  0 C s       :     3.011270  s :     3.011270
      pz      :     1.051031  p :     2.910949
      px      :     1.039841
      py      :     0.820078
      dz2     :     0.009637  d :     0.040967
      dxz     :     0.007850
      dyz     :     0.023309
      dx2y2   :     0.000175
      dxy     :    -0.000004

  1 C s       :     3.152648  s :     3.152648
      pz      :     0.826410  p :     2.856066
      px      :     0.965582
      py      :     1.064074
      dz2     :     0.025361  d :     0.087696
      dxz     :     0.018913
      dyz     :     0.033536
      dx2y2   :     0.003434
      dxy     :     0.006451

  2 C s       :     3.002098  s :     3.002098
      pz      :     1.069085  p :     2.900147
      px      :     0.915767
      py      :     0.915295
      dz2     :     0.013165  d :     0.060133
      dxz     :     0.007496
      dyz     :     0.013715
      dx2y2   :     0.010805
      dxy     :     0.014952

  3 C s       :     3.002098  s :     3.002098
      pz      :     1.069085  p :     2.900147
      px      :     0.915767
      py      :     0.915295
      dz2     :     0.013165  d :     0.060133
      dxz     :     0.007496
      dyz     :     0.013715
      dx2y2   :     0.010805
      dxy     :     0.014952

  4 H s       :     0.991395  s :     0.991395
      pz      :     0.009009  p :     0.030318
      px      :     0.006460
      py      :     0.014849

  5 H s       :     0.991395  s :     0.991395
      pz      :     0.009009  p :     0.030318
      px      :     0.006460
      py      :     0.014849

  6 H s       :     0.962916  s :     0.962916
      pz      :     0.007208  p :     0.030139
      px      :     0.014283
      py      :     0.008647

  7 H s       :     0.962916  s :     0.962916
      pz      :     0.007208  p :     0.030139
      px      :     0.014283
      py      :     0.008647

  8 H s       :     0.962916  s :     0.962916
      pz      :     0.007208  p :     0.030139
      px      :     0.014283
      py      :     0.008647

  9 H s       :     0.962916  s :     0.962916
      pz      :     0.007208  p :     0.030139
      px      :     0.014283
      py      :     0.008647



                     *******************************
                     * LOEWDIN POPULATION ANALYSIS *
                     *******************************

----------------------
LOEWDIN ATOMIC CHARGES
----------------------
   0 C :   -0.062851
   1 C :   -0.033112
   2 C :   -0.020888
   3 C :   -0.020888
   4 H :    0.017344
   5 H :    0.017344
   6 H :    0.025763
   7 H :    0.025763
   8 H :    0.025763
   9 H :    0.025763

-------------------------------
LOEWDIN REDUCED ORBITAL CHARGES
-------------------------------
  0 C s       :     2.838001  s :     2.838001
      pz      :     1.054393  p :     3.073894
      px      :     1.001747
      py      :     1.017753
      dz2     :     0.039632  d :     0.150956
      dxz     :     0.018205
      dyz     :     0.082714
      dx2y2   :     0.010404
      dxy     :     0.000001

  1 C s       :     2.793793  s :     2.793793
      pz      :     1.031795  p :     2.975534
      px      :     0.909475
      py      :     1.034263
      dz2     :     0.091282  d :     0.263785
      dxz     :     0.053175
      dyz     :     0.096362
      dx2y2   :     0.011403
      dxy     :     0.011563

  2 C s       :     2.778283  s :     2.778283
      pz      :     1.071269  p :     3.056391
      px      :     1.032861
      py      :     0.952261
      dz2     :     0.036325  d :     0.186215
      dxz     :     0.022579
      dyz     :     0.042680
      dx2y2   :     0.034700
      dxy     :     0.049931

  3 C s       :     2.778283  s :     2.778283
      pz      :     1.071269  p :     3.056391
      px      :     1.032861
      py      :     0.952261
      dz2     :     0.036325  d :     0.186215
      dxz     :     0.022579
      dyz     :     0.042680
      dx2y2   :     0.034700
      dxy     :     0.049931

  4 H s       :     0.900630  s :     0.900630
      pz      :     0.022579  p :     0.082026
      px      :     0.019644
      py      :     0.039803

  5 H s       :     0.900630  s :     0.900630
      pz      :     0.022579  p :     0.082026
      px      :     0.019644
      py      :     0.039803

  6 H s       :     0.892076  s :     0.892076
      pz      :     0.021839  p :     0.082162
      px      :     0.038203
      py      :     0.022120

  7 H s       :     0.892076  s :     0.892076
      pz      :     0.021839  p :     0.082162
      px      :     0.038203
      py      :     0.022120

  8 H s       :     0.892076  s :     0.892076
      pz      :     0.021839  p :     0.082162
      px      :     0.038203
      py      :     0.022120

  9 H s       :     0.892076  s :     0.892076
      pz      :     0.021839  p :     0.082162
      px      :     0.038203
      py      :     0.022120



                      *****************************
                      * MAYER POPULATION ANALYSIS *
                      *****************************

  NA   - Mulliken gross atomic population
  ZA   - Total nuclear charge
  QA   - Mulliken gross atomic charge
  VA   - Mayer's total valence
  BVA  - Mayer's bonded valence
  FA   - Mayer's free valence

  ATOM       NA         ZA         QA         VA         BVA        FA
  0 C      5.9632     6.0000     0.0368     3.9522     3.9522    -0.0000
  1 C      6.0964     6.0000    -0.0964     4.3906     4.3906    -0.0000
  2 C      5.9624     6.0000     0.0376     3.9827     3.9827    -0.0000
  3 C      5.9624     6.0000     0.0376     3.9827     3.9827    -0.0000
  4 H      1.0217     1.0000    -0.0217     0.9695     0.9695    -0.0000
  5 H      1.0217     1.0000    -0.0217     0.9695     0.9695    -0.0000
  6 H      0.9931     1.0000     0.0069     0.9701     0.9701     0.0000
  7 H      0.9931     1.0000     0.0069     0.9701     0.9701    -0.0000
  8 H      0.9931     1.0000     0.0069     0.9701     0.9701    -0.0000
  9 H      0.9931     1.0000     0.0069     0.9701     0.9701    -0.0000

  Mayer bond orders larger than 0.100000
B(  0-C ,  1-C ) :   2.0931 B(  0-C ,  4-H ) :   0.8987 B(  0-C ,  5-H ) :   0.8987 
B(  1-C ,  2-C ) :   1.0477 B(  1-C ,  3-C ) :   1.0477 B(  2-C ,  3-C ) :   1.0282 
B(  2-C ,  6-H ) :   0.9292 B(  2-C ,  7-H ) :   0.9292 B(  3-C ,  8-H ) :   0.9292 
B(  3-C ,  9-H ) :   0.9292 

-------
TIMINGS
-------

Total SCF time: 0 days 0 hours 0 min 1 sec 

Total time                  ....       1.505 sec
Sum of individual times     ....       1.423 sec  ( 94.6%)

SCF preparation             ....       0.164 sec  ( 10.9%)
Fock matrix formation       ....       1.043 sec  ( 69.3%)
  Startup                   ....       0.007 sec  (  0.7% of F)
  Coulomb formation         ....       0.573 sec  ( 54.9% of F)
  XC integration            ....       0.423 sec  ( 40.6% of F)
    XC Preparation          ....       0.000 sec  (  0.0% of XC)
    Basis function eval.    ....       0.085 sec  ( 20.0% of XC)
    Density eval.           ....       0.031 sec  (  7.2% of XC)
    XC-Functional eval.     ....       0.026 sec  (  6.1% of XC)
    XC-Potential eval.      ....       0.054 sec  ( 12.8% of XC)
Diagonalization             ....       0.000 sec  (  0.0%)
Density matrix formation    ....       0.036 sec  (  2.4%)
Total Energy calculation    ....       0.013 sec  (  0.8%)
Population analysis         ....       0.012 sec  (  0.8%)
Orbital Transformation      ....       0.014 sec  (  0.9%)
Orbital Orthonormalization  ....       0.000 sec  (  0.0%)
DIIS solution               ....       0.099 sec  (  6.6%)
SOSCF solution              ....       0.042 sec  (  2.8%)
Finished LeanSCF after   1.5 sec

Maximum memory used throughout the entire LEANSCF-calculation: 7.7 MB
------------------------------------------------------------------------------
                           ORCA ORBITAL LOCALIZATION
------------------------------------------------------------------------------

Input orbitals are from                  ... /cluster/projects/nn14654k/ylvaos/basis_set_n_funcs/functionals/gga_x_pbe/C4H6/inp/C4H6_gga_x_pbe_ccpvdz.gbw
Output orbitals are to                   ... /cluster/projects/nn14654k/ylvaos/basis_set_n_funcs/functionals/gga_x_pbe/C4H6/inp/C4H6_gga_x_pbe_ccpvdz.loc
Max. number of iterations                ... 128
Localizations seeded randomly            ... on
Convergence tolerance                    ... 1.000e-06
Threshold for strong local MOs           ... 9.500e-01
Threshold for bond MOs                   ... 8.500e-01
Operator                                 ... 0
Orbital range for localization           ... 4 to 14
Localization criterion                   ... NEW-BOYS
Doing the dipole integrals               ... o.k.
Initial value of the localization sum :    68.641373
ITERATION   0 : L=   82.5180632385 DL=  1.39e+01 (AVERGE_DL)=    0.5022981830 
ITERATION   1 : L=   86.9751365508 DL=  4.46e+00 (AVERGE_DL)=    0.2846712079 
ITERATION   2 : L=   87.0348274549 DL=  5.97e-02 (AVERGE_DL)=    0.0329437273 
ITERATION   3 : L=   87.0350914975 DL=  2.64e-04 (AVERGE_DL)=    0.0021910669 
ITERATION   4 : L=   87.0350933662 DL=  1.87e-06 (AVERGE_DL)=    0.0001843244 
ITERATION   5 : L=   87.0350933776 DL=  1.14e-08 (AVERGE_DL)=    0.0000144222 
LOCALIZATION SUM CONVERGED


--------------------------------------------------------------------------------
                    LOCALIZED MOLECULAR ORBITAL COMPOSITIONS
--------------------------------------------------------------------------------

The Mulliken populations for each LMO on each atom are computed
The LMO`s will be ordered according to atom index and type
  (A) Strongly localized MO`s have populations of >=0.950 on one atom
  (B) Two center bond orbitals have populations of >=0.850 on two atoms
  (C) Other MO`s are considered to be `delocalized`

FOUND  -   0 strongly local MO`s
       -  11 two center bond MO`s
       -   0 significantly delocalized MO`s

Bond-like localized orbitals:
MO  14:   9H  -   0.513891  and   3C  -   0.471900
MO  13:   8H  -   0.513891  and   3C  -   0.471900
MO  12:   7H  -   0.513891  and   2C  -   0.471900
MO  11:   6H  -   0.513891  and   2C  -   0.471900
MO  10:   5H  -   0.528914  and   0C  -   0.441592
MO   9:   4H  -   0.528914  and   0C  -   0.441592
MO   8:   3C  -   0.507288  and   2C  -   0.507288
MO   7:   3C  -   0.549791  and   1C  -   0.488236
MO   6:   2C  -   0.549791  and   1C  -   0.488236
MO   5:   1C  -   0.461024  and   0C  -   0.553131
MO   4:   1C  -   0.461024  and   0C  -   0.553131
Localized MO's were stored in: /cluster/projects/nn14654k/ylvaos/basis_set_n_funcs/functionals/gga_x_pbe/C4H6/inp/C4H6_gga_x_pbe_ccpvdz.loc

-------------------------   --------------------
FINAL SINGLE POINT ENERGY      -156.661250028096
-------------------------   --------------------



           ************************************************************
           *        Program running with 8 parallel MPI-processes     *
           *              working on a common directory               *
           ************************************************************

------------------------------------------------------------------------------
                              ORCA PROPERTY CALCULATIONS
------------------------------------------------------------------------------

GBWName                                 ... /cluster/projects/nn14654k/ylvaos/basis_set_n_funcs/functionals/gga_x_pbe/C4H6/inp/C4H6_gga_x_pbe_ccpvdz.gbw
Number of atoms                         ...     10
Number of basis functions               ...    110
Max core memory                         ...   4096 MB

Electric properties:
Dipole moment                           ... YES
Quadrupole moment                       ...  NO
Static polarizability (Dipole/Dipole)   ...  NO
Static polarizability (Dipole/Quad.)    ...  NO
Static polarizability (Quad./Quad.)     ...  NO
Static polarizability (Velocity)        ...  NO
Static hyperpolarizability              ...  NO

Atomic electric properties:
Dipole moment                           ...  NO
Quadrupole moment                       ...  NO
Static polarizability                   ...  NO

Choice of electric origin               ... Center of mass
Position of electric origin             ...     0.000000     0.000000     0.012360

General magnetic properties:
Magnetizability                         ...  NO

EPR properties:
g-Tensor (aka g-matrix)                 ...  NO
Zero-Field splitting spin-orbit         ...  NO
Zero-field splitting spin-spin          ...  NO
Hyperfine couplings                     ...  NO (   0 nuclei)
Quadrupole couplings                    ...  NO (   0 nuclei)
Contact density                         ...  NO (   0 nuclei)

NMR properties:
Chemical shifts                         ...  NO (   0 nuclei)
Spin-rotation constants                 ...  NO (   0 nuclei)
Spin-spin couplings                     ...  NO (   0 nuclei,    0 pairs)

Choice of magnetic origin               ... GIAO
Position of magnetic origin             ...     0.000000     0.000000     0.000000

Properties with geometric perturbations:
SCF Hessian                             ...  NO
IR spectrum                             ...  NO
VCD spectrum                            ...  NO
X-ray spectroscopy properties:
SCF XES/XAS/RIXS spectra                ...  NO

SCF SOC stabilization energy            ...  NO
Diagonal Born-Oppenheimer correction    ...  NO

-------------
DIPOLE MOMENT
-------------

Method             : SCF
Type of density    : Electron Density
Multiplicity       :   1
Irrep              :   0
Energy             :  -156.6612500280957647 Eh
Basis              : AO
                                X                 Y                 Z
Electronic contribution:     -0.000000001      -0.000000016       0.224211864
Nuclear contribution   :      0.000000000       0.000000000      -0.371559272
                        -----------------------------------------
Total Dipole Moment    :     -0.000000001      -0.000000016      -0.147347408
                        -----------------------------------------
Magnitude (a.u.)       :      0.147347408
Magnitude (Debye)      :      0.374527346



--------------------
Rotational spectrum 
--------------------
 
Rotational constants in cm-1:             0.643527             0.230144             0.181788 
Rotational constants in MHz :         19292.450199          6899.535423          5449.866904 

Dipole components along the rotational axes: 
x,y,z [a.u.] :    -0.147347    -0.000000    -0.000000 
x,y,z [Debye]:    -0.374527    -0.000000    -0.000000 

 

Dipole moment calculation done in   0.0 sec 

Maximum memory used throughout the entire PROP-calculation: 3.6 MB

--------------------------------
SUGGESTED CITATIONS FOR THIS RUN
--------------------------------

Below you find a list of papers that are relevant to this ORCA run
We neither can nor want to force you to cite these papers, but we appreciate if you do
You receive ORCA, which is the product of decades of hard work by many enthusiastic individuals, for free
The only thing we kindly ask in return is that you cite our papers,
We deeply appreciate it, if you show your appreciation for ORCA by not just citing the generic ORCA reference.

Please note that relegating all ORCA citations to the supporting information does *not* help us.
SI sections are not indexed - citations you put there will not count into any citation statistics
But we need these citations in order to attract the funding resources that allow us to do what we are doing

Therefore, if you are a happy ORCA user, please consider citing a few of the papers listed below in the main body of your paper

In addition to the list printed below, the program has created the file /cluster/projects/nn14654k/ylvaos/basis_set_n_funcs/functionals/gga_x_pbe/C4H6/inp/C4H6_gga_x_pbe_ccpvdz.bibtex that contains the list in bibtex format
You can import this file easily into all common literature databanks and citation aid programs

It goes without saying that in many instances, there are alternative algorithms to achieve similar
results as the ones you have gotten from ORCA. It is, of course, also the case that in some instances
ORCA just re-implements algorithms worked out by others. We are fully aware of that and we are also
fully appreciative of our colleagues work. Hence this citation list should not be read as indicating
that the listed papers, which are focused on our own work, are the only ones worth citing. It simply
meant to make it easier for users to cite ORCA specific papers. It is not a substitute for doing your
own literature research and citing the relevant literature in a scientifically appropriate manner.

List of essential papers. We consider these as the minimum necessary citations

  1. Neese, F.
     Software update: the ORCA program system, version 6.0
     WIRES Comput. Molec. Sci. 2025 15(1), e70019
     doi.org/10.1002/wcms.70019

List of papers to cite with high priority. The work reported in these papers was absolutely
necessary for this run to complete.
Our perspective: the developers of density functionals and basis sets usually get cited in chemistry papers
Good! But without the algorithms to do something with them, the functionals or basis sets would not do anything.
Hence, in our opinion, the algorithm design and method developments papers are equally worthy of getting cited

  1. Lehtola, S.; Steigemann, C.; Oliveira, M.; Marques, M.
     Recent developments in Libxc - A comprehensive library of functionals for density functional theory
     Software X 2018 7 , 
     doi.org/10.1016/j.softx.2017.11.002
  2. Neese, F.
     The SHARK Integral Generation and Digestion System
     J. Comp. Chem. 2022 44(3), 381
     doi.org/10.1002/jcc.26942

List of suggested additional citations. These are papers that are important in the 'surrounding' of 
of this run, or papers that preceded the highly important papers. If you like your results we are grateful for a citation.

  1. Neese, F.
     The ORCA program system
     WIRES Comput. Molec. Sci. 2012 2(1), 73-78
     doi.org/10.1002/wcms.81
  2. Neese, F.
     Software update: the ORCA program system, version 4.0
     WIRES Comput. Molec. Sci. 2018 8(1), 1-6
     doi.org/10.1002/wcms.1327
  3. Neese, F.; Wennmohs, F.; Becker, U.; Riplinger, C.
     The ORCA quantum chemistry program package
     J. Chem. Phys. 2020 152(22), 224108
     doi.org/10.1063/5.0004608
  4. Neese, F.
     Software update: The ORCA program system—Version 5.0
     WIRES Comput. Molec. Sci. 2022 12(1), e1606
     doi.org/10.1002/wcms.1606

List of optional additional citations

  1. Neese, F.
     Approximate second-order SCF convergence for spin unrestricted wavefunctions
     Chem. Phys. Lett. 2000 325(1-3), 93-98
     doi.org/10.1016/s0009-2614(00)00662-x

Timings for individual modules:

Sum of individual times          ...       11.775 sec (=   0.196 min)
Startup calculation              ...        4.699 sec (=   0.078 min)  39.9 %
SCF iterations                   ...        5.323 sec (=   0.089 min)  45.2 %
Property calculations            ...        1.722 sec (=   0.029 min)  14.6 %
Orbital localization             ...        0.031 sec (=   0.001 min)   0.3 %
                             ****ORCA TERMINATED NORMALLY****
TOTAL RUN TIME: 0 days 0 hours 0 minutes 16 seconds 92 msec
