
                                 *****************
                                 * O   R   C   A *
                                 *****************

                                            #,                                       
                                            ###                                      
                                            ####                                     
                                            #####                                    
                                            ######                                   
                                           ########,                                 
                                     ,,################,,,,,                         
                               ,,#################################,,                 
                          ,,##########################################,,             
                       ,#########################################, ''#####,          
                    ,#############################################,,   '####,        
                  ,##################################################,,,,####,       
                ,###########''''           ''''###############################       
              ,#####''   ,,,,##########,,,,          '''####'''          '####       
            ,##' ,,,,###########################,,,                        '##       
           ' ,,###''''                  '''############,,,                           
         ,,##''                                '''############,,,,        ,,,,,,###''
      ,#''                                            '''#######################'''  
     '                                                          ''''####''''         
             ,#######,   #######,   ,#######,      ##                                
            ,#'     '#,  ##    ##  ,#'     '#,    #''#        ,####,    ,#,          
            ##       ##  ##   ,#'  ##            #'  '#       #'       ,# #          
            ##       ##  #######   ##           ,######,      #####,      #          
            '#,     ,#'  ##    ##  '#,     ,#' ,#      #,     #,   #      #          
             '#######'   ##     ##  '#######'  #'      '#     '####' #    #          



                #########################################################
                #                        -***-                          #
                #          Department of theory and spectroscopy        #
                #                                                       #
                #                      Frank Neese                      #
                #                                                       #
                #     Directorship, Architecture, Infrastructure        #
                #                    SHARK, DRIVERS                     #
                #        Core code/Algorithms in most modules           #
                #                                                       #
                #        Max Planck Institute fuer Kohlenforschung      #
                #                Kaiser Wilhelm Platz 1                 #
                #                 D-45470 Muelheim/Ruhr                 #
                #                      Germany                          #
                #                                                       #
                #                  All rights reserved                  #
                #                        -***-                          #
                #########################################################


                         Program Version 6.1.1  -  RELEASE   -
                                (GIT: $487d211c$)
                          ($2025-11-21 10:33:24 +0100$)


 With contributions from (in alphabetic order):
[Max-Planck-Institut fuer Kohlenforschung]                               
  Daniel Aravena         : Magnetic Suceptibility                        
  Michael Atanasov       : Ab Initio Ligand Field Theory (pilot matlab implementation)
  Alexander A. Auer      : GIAO ZORA, VPT2 properties, NMR spectrum      
  Ute Becker             : All parallelization in ORCA, NUMFREQ, NUMCALC 
  Giovanni Bistoni       : ED, misc. LED, open-shell LED, HFLD           
  Dmytro Bykov           : pre 5.0 version of the SCF Hessian            
  Marcos Casanova-Páez   : Triplet and SCS-CIS(D). UHF-(DLPNO)-IP/EA/STEOM-CCSD. UHF-CVS-IP/STEOM-CCSD   
  Vijay G. Chilkuri      : MRCI spin determinant printing, contributions to CSF-ICE 
  Pauline Colinet        : FMM embedding                                 
  Dipayan Datta          : RHF DLPNO-CCSD density                        
  Achintya Kumar Dutta   : EOM-CC, STEOM-CC                              
  Nicolas Foglia         : Exact transition moments, OPA infrastructure, MCD improvements    
  Dmitry Ganyushin       : Spin-Orbit,Spin-Spin,Magnetic field MRCI      
  Miquel Garcia-Rates    : C-PCM and meta-GGA Hessian, CCSD/C-PCM, Gaussian charge scheme 
  Tiago L. C. Gouveia    : GS-ROHF, GS-ROCIS                             
  Yang Guo               : DLPNO-NEVPT2, F12-NEVPT2, CIM, IAO-localization        
  Andreas Hansen         : Spin unrestricted coupled pair/coupled cluster methods 
  Ingolf Harden          : AUTO-CI MPn and infrastructure                
  Benjamin Helmich-Paris : MC-RPA, TRAH-(SCF,CASSCF), AVAS, COSX integrals, SCF dyn. polar., MC-PDFT, srDFT 
  Lee Huntington         : MR-EOM, pCC                                   
  Robert Izsak           : Overlap fitted RIJCOSX, COSX-SCS-MP3, EOM     
  Riya Kayal             : Wick's Theorem for AUTO-CI, AUTO-CI UHF-CCSDT 
  Emily Kempfer          : AUTO-CI RHF CISDT and CCSDT, approximate NEVPT4
  Christian Kollmar      : KDIIS, OOCD, Brueckner-CCSD(T), CCSD density, CASPT2, CASPT2-K, improved NEVPT2 
  Axel Koslowski         : Symmetry handling                             
  Simone Kossmann        : meta-GGA functionals, TD-DFT gradient, OOMP2, (MP2 Hessian; deprecated post 5.0) 
  Lucas Lang             : DCDCAS, Hyperfine gauge corrections, ICE-SOC+SSC
  Marvin Lechner         : AUTO-CI (C++ implementation), FIC-MRCC        
  Spencer Leger          : CASSCF response                               
  Dagmar Lenk            : GEPOL surface, SMD, ORCA-2-JSON               
  Dimitrios Liakos       : Extrapolation schemes; Compound Job, Property file
  Dimitrios Manganas     : Further ROCIS development; embedding schemes. LFT, Crystal Embedding 
  Dimitrios Pantazis     : SARC Basis sets                               
  Anastasios Papadopoulos: AUTO-CI, single reference methods and gradients 
  Taras Petrenko         : pre 6.0 DFT Hessian and TD-DFT gradient,  ECA, NRVS 
  Petra Pikulova         : Analytic Raman intensities                    
  Peter Pinski           : DLPNO-MP2, DLPNO-MP2 Gradient                 
  Shashank Vittal Rao    : ES-AILFT, MagRelax                            
  Christoph Reimann      : Effective Core Potentials                     
  Marius Retegan         : Local ZFS, SOC                                
  Christoph Riplinger    : Optimizer, TS searches, QM/MM, DLPNO-CCSD(T), (RO)-DLPNO pert. Triples 
  Michael Roemelt        : Original ROCIS implementation, recursive CI coupling coefficients
  Masaaki Saitow         : Open-shell DLPNO-CCSD energy and density      
  Barbara Sandhoefer     : DKH picture change effects                    
  Yorick L. A. Schmerwitz: GMF and freeze-and-release deltaSCF, NEB S-IDPP initial path                    
  Kantharuban Sivalingam : CASSCF convergence/infrastructure, NEVPT2, NEVPT3, NEVPT4(SD), FIC-MRCI and CEPA variants
  Bernardo de Souza      : ESD, SOC TD-DFT                               
  Georgi L. Stoychev     : AutoAux, RI-MP2 NMR, DLPNO-MP2 response, X2C  
  Van Anh Tran           : RI-MP2 g-tensors                              
  Willem Van den Heuvel  : Paramagnetic NMR                              
  Zikuan Wang            : NOTCH, Electric field optimization            
  Frank Wennmohs         : Technical directorship and infrastructure     
  Hang Xu                : AUTO-CI-Response properties                   
                                                                         
[FACCTs GmbH]                                                            
  Markus Bursch, Nicolas Foglia, Miquel Garcia-Rates, Ingolf Harden, Hagen Neugebauer, Anastasios Papadopoulos, 
  Christoph Riplinger, Bernardo de Souza, Georgi L. Stoychev                                                    
                                                                 
  APM, various basis sets, CI-OPT, improved COSX, DLPNO-Multilevel,           
  DOCKER, DRACO, updates on ESD, Fragmentator, GOAT, IRC, LR-CPCM, L-BFGS, MBIS, meta-GGA TD-DFT gradient, ML-optimized integration grids, 
  MM, NACMEs, nearIR, NEB, NEB-TS, NL-DFT gradient (VV10), 2- and 3-layer-ONIOM, interface openCOSMO-RS, QMMM,   
  Crystal-QMMM, RESP, rigid body optimization, SF, symmetry and pop. for TD-DFT, various functionals, SOLVATOR                                   
                                                                         
[Other institutions]                                                     
  V. Asgeirsson          : NEB                                           
  Christoph Bannwarth    : sTDA-DFT, sTD-DFT, PBEh-3c, B97-3c, D3        
  Giovanni Bistoni       : ETS/NOCV, ADLD/ADEX, COVALED                  
  Martin Brehm           : Molecular dynamics                            
  Ronald Cardenas        : ETS/NOCV                                      
  Martina Colucci        : COVALED                                       
  Sebastian Ehlert       : rSCAN, r2SCAN, r2SCAN-3c, D4, dhf basis sets  
  Marvin Friede          : D4 for Fr, Ra, Ac-Lr                          
  Lars Goerigk           : TD-DFT with DH, B97 family of functionals     
  Stefan Grimme          : VdW corrections, initial TS optimization, DFT functionals, gCP, sTDA/sTD-DF 
  Waldemar Hujo          : DFT-NL                                        
  H. Jonsson             : NEB                                           
  Holger Kruse           : gCP                                           
  Marcel Mueller         : wB97X-3c, vDZP basis set                      
  Hagen Neugebauer       : wr2SCAN, Native XTB                           
  Gianluca Regni         : ADLD/ADEX                                     
  Tobias Risthaus        : pre 6.0 range-separated hybrid DFT and stability analysis
  Lukas Wittmann         : regularized MP2, r2SCAN double-hybrids, wr2SCAN        
                                                                         
We gratefully acknowledge several colleagues who have allowed us to      
interface, adapt or use parts of their codes:                            
  Ed Valeev, F. Pavosevic, A. Kumar             : LibInt (2-el integral package), F12 methods 
  Garnet Chan, S. Sharma, J. Yang, R. Olivares  : DMRG                   
  Ulf Ekstrom                                   : XCFun DFT Library      
  Mihaly Kallay                                 : mrcc  (arbitrary order and MRCC methods)
  Frank Weinhold                                : gennbo (NPA and NBO analysis)           
  Simon Mueller                                 : openCOSMO-RS                            
  Christopher J. Cramer and Donald G. Truhlar   : smd solvation model                     
  S Lehtola, MJT Oliveira, MAL Marques          : LibXC Library                           
  Liviu Ungur et al                             : ANISO software                          


 Your calculation uses the libint2 library for the computation of 2-el integrals
 For citations please refer to: http://libint.valeyev.net

 Your ORCA version has been built with support for libXC version: 7.0.0
 For citations please refer to: https://libxc.gitlab.io

 This ORCA versions uses:
   CBLAS   interface :  Fast vector & matrix operations
   LAPACKE interface :  Fast linear algebra routines
   SCALAPACK package :  Parallel linear algebra routines
   Shared memory     :  Shared parallel matrices
   BLAS/LAPACK       :  OpenBLAS 0.3.29  USE64BITINT DYNAMIC_ARCH NO_AFFINITY Cooperlake SINGLE_THREADED
        Core in use  :  Cooperlake
   Copyright (c) 2011-2014, The OpenBLAS Project


  ***********************************
  * Starting time: Wed May 20 11:51:34 2026
  * Host name:     c1-41
  * Process ID:    3391725
  * Working dir.:  /cluster/projects/nn14654k/ylvaos/basis_set_n_funcs/functionals/hyb_gga_xc_b97/BF/out
  ***********************************

Using LibXC functional ID 407 : Becke 97
[ 1]  A. D. Becke.,  J. Chem. Phys. 107, 8554 (1997)
Using LibXC functional ID 407 : Becke 97
[ 1]  A. D. Becke.,  J. Chem. Phys. 107, 8554 (1997)
Your calculation utilizes LibXC
by S. Lehtola, C. Steigemann, M. J. T. Oliveira & M. A. L. Marques
Please cite in your paper:
Lehtola, S.; Steigemann, C.; Oliveira, M.J.T.; Marques, M. A. L. Software X, 7, (2018), 1.
   

================================================================================

----- Orbital basis set information -----
Your calculation utilizes the basis: aug-cc-pVDZ 
    H, B-Ne : Obtained from the ccRepo (grant-hill.group.shef.ac.uk/ccrepo) Feb. 2017
              R. A. Kendall, T. H. Dunning, Jr., R. J. Harrison, J. Chem. Phys. 96, 6796 (1992)
         He : Obtained from the ccRepo (grant-hill.group.shef.ac.uk/ccrepo) Feb. 2017
              D. E. Woon, T. H. Dunning, Jr., J. Chem. Phys. 100, 2975 (1994)
  Li-Be, Na : Obtained from the ccRepo (grant-hill.group.shef.ac.uk/ccrepo) Feb. 2017
              B. P. Prascher, D. E. Woon, K. A. Peterson, T. H. Dunning, Jr., A. K. Wilson, Theor. Chem. Acc. 128, 69 (2011)
         Mg : Obtained from the Peterson Research Group Website (tyr0.chem.wsu.edu/~kipeters) Feb. 2017
              B. P. Prascher, D. E. Woon, K. A. Peterson, T. H. Dunning, Jr., A. K. Wilson, Theor. Chem. Acc. 128, 69 (2011)
      Al-Ar : Obtained from the ccRepo (grant-hill.group.shef.ac.uk/ccrepo) Feb. 2017
              D. E. Woon, T. H. Dunning, Jr., J. Chem. Phys. 98, 1358 (1993)
      Sc-Zn : Obtained from the ccRepo (grant-hill.group.shef.ac.uk/ccrepo) Feb. 2017
              N. B. Balabanov, K. A. Peterson, J. Chem. Phys. 123, 064107 (2005)
              N. B. Balabanov, K. A. Peterson, J. Chem. Phys. 125, 074110 (2006)
      Ga-Kr : Obtained from the ccRepo (grant-hill.group.shef.ac.uk/ccrepo) Feb. 2017
              A. K. Wilson, D. E. Woon, K. A. Peterson, T. H. Dunning, Jr., J. Chem. Phys. 110, 7667 (1999)

================================================================================
                                        WARNINGS
                       Please study these warnings very carefully!
================================================================================


================================================================================
                                       INPUT FILE
================================================================================
NAME = /cluster/projects/nn14654k/ylvaos/basis_set_n_funcs/functionals/hyb_gga_xc_b97/BF/inp/BF_hyb_gga_xc_b97_augccpvdz.inp
|  1> ! dft aug-cc-pVDZ TightSCF
|  2> %pal nprocs 8 end
|  3> 
|  4> %loc
|  5>   LocMet NewBoys
|  6>   Occ true
|  7> end
|  8> 
|  9> %method
| 10>   
| 11>   functional hyb_gga_xc_b97
| 12> end
| 13> 
| 14> %elprop
| 15>   Dipole true
| 16>   Quadrupole true
| 17> end
| 18> 
| 19> * xyz 0 1
| 20> B    0.000000000000   0.000000000000  -0.633450000000
| 21> F    0.000000000000   0.000000000000   0.633450000000
| 22> *
| 23> 
| 24> 
| 25>                          ****END OF INPUT****
================================================================================

                       ****************************
                       * Single Point Calculation *
                       ****************************

---------------------------------
CARTESIAN COORDINATES (ANGSTROEM)
---------------------------------
  B      0.000000    0.000000   -0.633450
  F      0.000000    0.000000    0.633450

----------------------------
CARTESIAN COORDINATES (A.U.)
----------------------------
  NO LB      ZA    FRAG     MASS         X           Y           Z
   0 B     5.0000    0    10.810    0.000000    0.000000   -1.197047
   1 F     9.0000    0    18.998    0.000000    0.000000    1.197047

--------------------------------
INTERNAL COORDINATES (ANGSTROEM)
--------------------------------
 B      0   0   0     0.000000000000     0.00000000     0.00000000
 F      1   0   0     1.266900000000     0.00000000     0.00000000

---------------------------
INTERNAL COORDINATES (A.U.)
---------------------------
 B      0   0   0     0.000000000000     0.00000000     0.00000000
 F      1   0   0     2.394094039065     0.00000000     0.00000000

---------------------
BASIS SET INFORMATION
---------------------
There are 2 groups of distinct atoms

 Group   1 Type B   : 18s5p2d contracted to 4s3p2d pattern {8811/311/11}
 Group   2 Type F   : 18s5p2d contracted to 4s3p2d pattern {8811/311/11}

Atom   0B    basis set group =>   1
Atom   1F    basis set group =>   2


           ************************************************************
           *        Program running with 8 parallel MPI-processes     *
           *              working on a common directory               *
           ************************************************************
------------------------------------------------------------------------------
                             ORCA STARTUP CALCULATIONS
------------------------------------------------------------------------------
------------------------------------------------------------------------------
                   ___                                                        
                  /   \      - P O W E R E D   B Y -                         
                 /     \                                                     
                 |  |  |   _    _      __       _____    __    __             
                 |  |  |  | |  | |    /  \     |  _  \  |  |  /  |          
                  \  \/   | |  | |   /    \    | | | |  |  | /  /          
                 / \  \   | |__| |  /  /\  \   | |_| |  |  |/  /          
                |  |  |   |  __  | /  /__\  \  |    /   |      \           
                |  |  |   | |  | | |   __   |  |    \   |  |\   \          
                \     /   | |  | | |  |  |  |  | |\  \  |  | \   \       
                 \___/    |_|  |_| |__|  |__|  |_| \__\ |__|  \__/        
                                                                              
                      - O R C A' S   B I G   F R I E N D -                    
                                      &                                       
                       - I N T E G R A L  F E E D E R -                       
                                                                              
 v1 FN, 2020, v2 2021, v3 2022-2024                                           
------------------------------------------------------------------------------


----------------------
SHARK INTEGRAL PACKAGE
----------------------

Number of atoms                             ...      2
Number of basis functions                   ...     58
Number of shells                            ...     30
Maximum angular momentum                    ...      2
Integral batch strategy                     ... SHARK/LIBINT Hybrid
RI-J (if used) integral strategy            ... SPLIT-RIJ (Revised 2003 algorithm where possible)
Printlevel                                  ...      1
Contraction scheme used                     ... PARTIAL GENERAL contraction
Prescreening option                         ... SCHWARTZ
   Thresh                                   ... 2.500e-11
   Tcut                                     ... 2.500e-12
   Tpresel                                  ... 2.500e-12 
Coulomb Range Separation                    ... NOT USED
Exchange Range Separation                   ... NOT USED
Multipole approximations                    ... NOT USED
Finite Nucleus Model                        ... NOT USED
CABS basis                                  ... NOT available
Auxiliary Coulomb fitting basis             ... NOT available
Auxiliary J/K fitting basis                 ... NOT available
Auxiliary Correlation fitting basis         ... NOT available
Auxiliary 'external' fitting basis          ... NOT available

Checking pre-screening integrals            ... done (  0.0 sec) Dimension = 30
Save PGC pre-screening integrals            ... done (  0.0 sec) Dimension = 30
Calculate PGC overlap integrals             ... done (  0.0 sec) Dimension = 18
Calculating pre-screening integrals (ORCA)  ... done (  0.0 sec) Dimension = 18
Shell pair information
Shell pair cut-off parameter TPreSel        ...   2.5e-12
Total number of shell pairs                 ...       465
Shell pairs after pre-screening             ...       427
Total number of primitive shell pairs       ...       601
Primitive shell pairs kept                  ...       555
          la=0 lb=0:    172 shell pairs
          la=1 lb=0:    120 shell pairs
          la=1 lb=1:     21 shell pairs
          la=2 lb=0:     80 shell pairs
          la=2 lb=1:     24 shell pairs
          la=2 lb=2:     10 shell pairs

Checking whether 4 symmetric matrices of dimension 58 fit in memory
:Max Core in MB      =   4096.00
 MB in use           =      1.62
 MB left             =   4094.38
 MB needed           =      0.05
 Data fit in memory  = YES
Calculating Nuclear repulsion               ... done (  0.0 sec) ENN=     18.796254142789 Eh

Diagonalization of the overlap matrix:
Smallest eigenvalue                        ... 1.189e-03
Time for diagonalization                   ...    0.000 sec
Threshold for overlap eigenvalues          ... 1.000e-07
Number of eigenvalues below threshold      ... 0
Time for construction of square roots      ...    0.001 sec
Total time needed                          ...    0.004 sec

-------------------
DFT GRID GENERATION
-------------------

General Integration Accuracy     IntAcc      ... 4.388
Radial Grid Type                 RadialGrid  ... OptM3 with GC (2021)
Angular Grid (max. ang.)         AngularGrid ... 4 (Lebedev-302)
Angular grid pruning method      GridPruning ... 4 (adaptive)
Weight generation scheme         WeightScheme... mBecke (2022)
Basis function cutoff            BFCut       ... 1.0000e-11
Integration weight cutoff        WCut        ... 1.0000e-14
Partially contracted basis set               ... off
Rotationally invariant grid construction     ... off
Angular grids for H and He will be reduced by one unit
Diffuse basis detected: some atoms will have their outermost
                        angular grid increased by 1.

Total number of grid points                  ...    12900
Total number of batches                      ...      203
Average number of points per batch           ...       63
Average number of grid points per atom       ...     6450

---------------------
SHARK GRID GENERATION
---------------------

General Integration Accuracy     IntAcc      ... 4.388
Radial Grid Type                 RadialGrid  ... OptM3 with GC (2021)
Angular Grid (max. ang.)         AngularGrid ... 4 (Lebedev-302)
Angular grid pruning method      GridPruning ... 4 (adaptive)
Weight generation scheme         WeightScheme... mBecke (2022)
Basis function cutoff            BFCut       ... 1.0000e-11
Integration weight cutoff        WCut        ... 1.0000e-14
Partially contracted basis set               ... off
Rotationally invariant grid construction     ... off
Angular grids for H and He will be reduced by one unit
Diffuse basis detected: some atoms will have their outermost
                        angular grid increased by 1.
Steep s-basis detected: some atoms will have their radial
                        grid points doubled.

Total number of grid points                  ...    26016
Total number of batches                      ...      407
Average number of points per batch           ...       63
Average number of grid points per atom       ...    13008
Grids setup in   0.2 sec
Initializing property integral containers    ... done (  0.0 sec)

SHARK setup successfully completed in   0.3 seconds

Maximum memory used throughout the entire STARTUP-calculation: 11.6 MB


           ************************************************************
           *        Program running with 8 parallel MPI-processes     *
           *              working on a common directory               *
           ************************************************************
-------------------------------------------------------------------------------
                                 ORCA GUESS
                   Start orbitals & Density for SCF / CASSCF
-------------------------------------------------------------------------------

------------
SCF SETTINGS
------------
Hamiltonian:
 Density Functional     Method          .... DFT(GTOs)
  Functional kind                       .... Exchange-Correlation
  Functional name                       .... Becke 97
  Functional family                     .... Hybrid GGA
  Functional refs                              
    [ 0] A. D. Becke.,  J. Chem. Phys. 107, 8554 (1997), doi: 10.1063/1.475007
  Fraction of HF Exchange               .... 0.1943
  Functional external parameters        .... 16
    Parameter  0 _cx0       =  8.094000e-01 : u^0 coefficient for exchange
    Parameter  1 _cx1       =  5.073000e-01 : u^1 coefficient for exchange
    Parameter  2 _cx2       =  7.481000e-01 : u^2 coefficient for exchange
    Parameter  3 _cx3       =  0.000000e+00 : u^3 coefficient for exchange
    Parameter  4 _cx4       =  0.000000e+00 : u^4 coefficient for exchange
    Parameter  5 _css0      =  1.737000e-01 : u^0 coefficient for same-spin correlation
    Parameter  6 _css1      =  2.348700e+00 : u^1 coefficient for same-spin correlation
    Parameter  7 _css2      = -2.486800e+00 : u^2 coefficient for same-spin correlation
    Parameter  8 _css3      =  0.000000e+00 : u^3 coefficient for same-spin correlation
    Parameter  9 _css4      =  0.000000e+00 : u^4 coefficient for same-spin correlation
    Parameter 10 _cos0      =  9.454000e-01 : u^0 coefficient for opposite-spin correlation
    Parameter 11 _cos1      =  7.471000e-01 : u^1 coefficient for opposite-spin correlation
    Parameter 12 _cos2      = -4.596100e+00 : u^2 coefficient for opposite-spin correlation
    Parameter 13 _cos3      =  0.000000e+00 : u^3 coefficient for opposite-spin correlation
    Parameter 14 _cos4      =  0.000000e+00 : u^4 coefficient for opposite-spin correlation
    Parameter 15 _cxx       =  1.943000e-01 : coefficient for exact exchange


General Settings:
 Integral files         IntName         .... /cluster/projects/nn14654k/ylvaos/basis_set_n_funcs/functionals/hyb_gga_xc_b97/BF/inp/BF_hyb_gga_xc_b97_augccpvdz
 Hartree-Fock type      HFTyp           .... RHF
 Total Charge           Charge          ....    0
 Multiplicity           Mult            ....    1
 Number of Electrons    NEL             ....   14
 Basis Dimension        Dim             ....   46
 Nuclear Repulsion      ENuc            ....     18.7962541428 Eh

Convergence Acceleration:
 AO-DIIS                CNVDIIS         .... on
   Start iteration      DIISMaxIt       ....    12
   Startup error        DIISStart       ....  0.200000
   # of expansion vecs  DIISMaxEq       ....     5
   Bias factor          DIISBfac        ....   1.050
   Max. coefficient     DIISMaxC        ....  10.000
 MO-DIIS                CNVKDIIS        .... off
 Trust-Rad. Augm. Hess. CNVTRAH         .... auto
   Auto Start mean grad. ratio tolernc. ....  1.125000
   Auto Start start iteration           ....    50
   Auto Start num. interpolation iter.  ....    10
   Max. Number of Micro iterations      ....    24
   Max. Number of Macro iterations      .... Maxiter - #DIIS iter
   Number of Davidson start vectors     ....     2
   Converg. threshold    (grad. norm)   ....   1.000e-05
   Grad. Scal. Fac. for Micro threshold ....   0.100
   Minimum threshold for Micro iter.    ....   1.000e-02
   NR start threshold (gradient norm)   ....   1.000e-04
   Initial trust radius                 ....   0.400
   Minimum AH scaling param. (alpha)    ....   1.000
   Maximum AH scaling param. (alpha)    .... 1000.000
   Quad. conv. algorithm                .... NR
   White noise on init. David. guess    .... on
   Maximum white noise                  ....   0.010
   Pseudo random numbers                .... off
   Inactive MOs                         .... canonical
   Orbital update algorithm             .... Taylor
   Preconditioner                       .... Diag
   Full preconditioner red. dimension   ....   250
 SOSCF                 CNVSOSCF           .... on
   Start iteration     SOSCFMaxIt         ....   150
   Startup grad/error  SOSCFStart         ....  0.003300
   Hessian update      SOSCFHessUp        .... L-BFGS
   Autom. constraints  SOSCFAutoConstrain .... off
 Level Shifting         CNVShift        .... on
   Level shift para.    LevelShift      ....    0.2500
   Turn off err/grad.   ShiftErr        ....    0.0010
 Zerner damping         CNVZerner       .... off
 Static damping         CNVDamp         .... on
   Fraction old density DampFac         ....    0.7000
   Max. Damping (<1)    DampMax         ....    0.9800
   Min. Damping (>=0)   DampMin         ....    0.0000
   Turn off err/grad.   DampErr         ....    0.1000

SCF Procedure:
 Maximum # iterations   MaxIter         ....   125
 SCF integral mode      SCFMode         .... Direct
   Integral package                     .... SHARK and LIBINT hybrid scheme
 Reset frequency        DirectResetFreq ....    20
 Integral Threshold     Thresh          ....  2.500e-11 Eh
 Primitive CutOff       TCut            ....  2.500e-12 Eh

Convergence Tolerance:
 Convergence Check Mode ConvCheckMode   .... Total+1el-Energy
 Convergence forced     ConvForced      .... 0
 Energy Change          TolE            ....  1.000e-08 Eh
 1-El. energy change                    ....  1.000e-05 Eh
 Orbital Gradient       TolG            ....  1.000e-05
 Orbital Rotation angle TolX            ....  1.000e-05
 DIIS Error             TolErr          ....  5.000e-07

------------------------------
INITIAL GUESS: MODEL POTENTIAL
------------------------------
Loading Hartree-Fock densities                     ... done
Calculating cut-offs                               ... done
Initializing the effective Hamiltonian             ... done
Setting up the integral package (SHARK)            ... done
Starting the Coulomb interaction                   ... done (   0.0 sec)
Making the grid                                    ... done (   0.0 sec)
Mapping shells                                     ... done
Starting the XC term evaluation                    ... done (   0.0 sec)
  promolecular density results
     # of electrons  =     13.999925435
     EX+EC           =    -11.587330985
Transforming the Hamiltonian                       ... done (   0.0 sec)
Diagonalizing the Hamiltonian                      ... done (   0.0 sec)
Back transforming the eigenvectors                 ... done (   0.0 sec)
Now organizing SCF variables                       ... done
                      ------------------
                      INITIAL GUESS DONE (   0.0 sec)
                      ------------------
             **** ENERGY FILE WAS UPDATED (/cluster/projects/nn14654k/ylvaos/basis_set_n_funcs/functionals/hyb_gga_xc_b97/BF/inp/BF_hyb_gga_xc_b97_augccpvdz.en.tmp) ****
Finished Guess after   0.1 sec
Maximum memory used throughout the entire GUESS-calculation: 3.9 MB


           ************************************************************
           *        Program running with 8 parallel MPI-processes     *
           *              working on a common directory               *
           ************************************************************

-------------------------------------------------------------------------------------------
                                      ORCA LEAN-SCF
                              memory conserving SCF solver
-------------------------------------------------------------------------------------------

----------------------------------------D-I-I-S--------------------------------------------
Iteration    Energy (Eh)           Delta-E    RMSDP     MaxDP     DIISErr   Damp  Time(sec)
-------------------------------------------------------------------------------------------
               ***  Starting incremental Fock matrix formation  ***
    1    -124.5619806043723514     0.00e+00  1.59e-02  7.24e-02  2.50e-01  0.700   0.1
    2    -124.5967001211853216    -3.47e-02  9.73e-03  3.72e-02  9.33e-02  0.700   0.1
                               ***Turning on AO-DIIS***
    3    -124.6082306519032983    -1.15e-02  4.24e-03  1.32e-02  3.33e-02  0.700   0.1
    4    -124.6155326508323498    -7.30e-03  8.47e-03  2.98e-02  2.33e-02  0.000   0.1
    5    -124.6324342471532276    -1.69e-02  1.28e-03  4.95e-03  5.28e-03  0.000   0.1
                              *** Initializing SOSCF ***
---------------------------------------S-O-S-C-F--------------------------------------
Iteration    Energy (Eh)           Delta-E    RMSDP     MaxDP     MaxGrad    Time(sec)
--------------------------------------------------------------------------------------
    6    -124.6324862613765134    -5.20e-05  5.52e-04  2.52e-03  1.29e-03     0.1
               *** Restarting incremental Fock matrix formation ***
    7    -124.6324898376438313    -3.58e-06  4.12e-04  2.43e-03  1.82e-04     0.0
    8    -124.6324898799047247    -4.23e-08  1.20e-04  6.17e-04  2.20e-04     0.1
    9    -124.6324902385612035    -3.59e-07  7.70e-05  4.15e-04  4.67e-05     0.0
   10    -124.6324902554620309    -1.69e-08  1.58e-05  7.65e-05  1.59e-05     0.0
   11    -124.6324902575434095    -2.08e-09  1.20e-06  6.28e-06  1.91e-06     0.0
                 **** Energy Check signals convergence ****

               *****************************************************
               *                     SUCCESS                       *
               *           SCF CONVERGED AFTER  11 CYCLES          *
               *****************************************************

             **** ENERGY FILE WAS UPDATED (/cluster/projects/nn14654k/ylvaos/basis_set_n_funcs/functionals/hyb_gga_xc_b97/BF/inp/BF_hyb_gga_xc_b97_augccpvdz.en.tmp) ****

----------------
TOTAL SCF ENERGY
----------------

Total Energy       :       -124.63249025755623 Eh           -3391.42248 eV

Components:
Nuclear Repulsion  :         18.79625414278949 Eh             511.47208 eV
Electronic Energy  :       -143.42874440034569 Eh           -3902.89455 eV
One Electron Energy:       -208.60964592671027 Eh           -5676.55706 eV
Two Electron Energy:         65.18090152636456 Eh            1773.66250 eV

Virial components:
Potential Energy   :       -248.71197930152698 Eh           -6767.79702 eV
Kinetic Energy     :        124.07948904397075 Eh            3376.37455 eV
Virial Ratio       :          2.00445683019689

DFT components:
N(Alpha)           :        6.999947117757 electrons
N(Beta)            :        6.999947117757 electrons
N(Total)           :       13.999894235514 electrons
E(XC)              :      -11.696078153531 Eh       

---------------
SCF CONVERGENCE
---------------

  Last Energy change         ...    2.0814e-09  Tolerance :   1.0000e-08
  Last MAX-Density change    ...    6.2783e-06  Tolerance :   1.0000e-07
  Last RMS-Density change    ...    1.2022e-06  Tolerance :   5.0000e-09
  Last DIIS Error            ...    1.2854e-03  Tolerance :   5.0000e-07
  Last Orbital Gradient      ...    1.9101e-06  Tolerance :   1.0000e-05
  Last Orbital Rotation      ...    2.3439e-06  Tolerance :   1.0000e-05


----------------
ORBITAL ENERGIES
----------------

  NO   OCC          E(Eh)            E(eV) 
   0   2.0000     -24.772606      -674.0969 
   1   2.0000      -6.857620      -186.6053 
   2   2.0000      -1.310306       -35.6552 
   3   2.0000      -0.626536       -17.0489 
   4   2.0000      -0.531813       -14.4714 
   5   2.0000      -0.531813       -14.4714 
   6   2.0000      -0.285385        -7.7657 
   7   0.0000      -0.047901        -1.3035 
   8   0.0000      -0.047901        -1.3035 
   9   0.0000       0.016749         0.4558 
  10   0.0000       0.039180         1.0662 
  11   0.0000       0.048371         1.3162 
  12   0.0000       0.048371         1.3162 
  13   0.0000       0.151552         4.1239 
  14   0.0000       0.175148         4.7660 
  15   0.0000       0.189105         5.1458 
  16   0.0000       0.189105         5.1458 
  17   0.0000       0.190928         5.1954 
*Only the first 10 virtual orbitals were printed.

                    ********************************
                    * MULLIKEN POPULATION ANALYSIS *
                    ********************************

-----------------------
MULLIKEN ATOMIC CHARGES
-----------------------
   0 B :    0.090633
   1 F :   -0.090633
Sum of atomic charges:    0.0000000

--------------------------------
MULLIKEN REDUCED ORBITAL CHARGES
--------------------------------
  0 B s       :     3.863749  s :     3.863749
      pz      :     0.682400  p :     0.954002
      px      :     0.135801
      py      :     0.135801
      dz2     :     0.045193  d :     0.091616
      dxz     :     0.023212
      dyz     :     0.023212
      dx2y2   :     0.000000
      dxy     :     0.000000

  1 F s       :     3.905989  s :     3.905989
      pz      :     1.497768  p :     5.167330
      px      :     1.834781
      py      :     1.834781
      dz2     :     0.004901  d :     0.017314
      dxz     :     0.006206
      dyz     :     0.006206
      dx2y2   :    -0.000000
      dxy     :    -0.000000



                     *******************************
                     * LOEWDIN POPULATION ANALYSIS *
                     *******************************

----------------------
LOEWDIN ATOMIC CHARGES
----------------------
   0 B :    0.141562
   1 F :   -0.141562

-------------------------------
LOEWDIN REDUCED ORBITAL CHARGES
-------------------------------
  0 B s       :     3.332135  s :     3.332135
      pz      :     0.818725  p :     1.158533
      px      :     0.169904
      py      :     0.169904
      dz2     :     0.178535  d :     0.367769
      dxz     :     0.094617
      dyz     :     0.094617
      dx2y2   :     0.000000
      dxy     :     0.000000

  1 F s       :     3.738132  s :     3.738132
      pz      :     1.874020  p :     5.336079
      px      :     1.731029
      py      :     1.731029
      dz2     :     0.058451  d :     0.067351
      dxz     :     0.004450
      dyz     :     0.004450
      dx2y2   :     0.000000
      dxy     :     0.000000



                      *****************************
                      * MAYER POPULATION ANALYSIS *
                      *****************************

  NA   - Mulliken gross atomic population
  ZA   - Total nuclear charge
  QA   - Mulliken gross atomic charge
  VA   - Mayer's total valence
  BVA  - Mayer's bonded valence
  FA   - Mayer's free valence

  ATOM       NA         ZA         QA         VA         BVA        FA
  0 B      4.9094     5.0000     0.0906     1.2070     1.2070     0.0000
  1 F      9.0906     9.0000    -0.0906     1.2070     1.2070     0.0000

  Mayer bond orders larger than 0.100000
B(  0-B ,  1-F ) :   1.2070 

-------
TIMINGS
-------

Total SCF time: 0 days 0 hours 0 min 0 sec 

Total time                  ....       0.746 sec
Sum of individual times     ....       0.692 sec  ( 92.7%)

SCF preparation             ....       0.051 sec  (  6.8%)
Fock matrix formation       ....       0.421 sec  ( 56.4%)
  Startup                   ....       0.008 sec  (  1.8% of F)
  Coulomb+Exchange Fock     ....       0.054 sec  ( 12.9% of F)
  XC integration            ....       0.230 sec  ( 54.6% of F)
    XC Preparation          ....       0.000 sec  (  0.0% of XC)
    Basis function eval.    ....       0.012 sec  (  5.3% of XC)
    Density eval.           ....       0.004 sec  (  1.6% of XC)
    XC-Functional eval.     ....       0.013 sec  (  5.5% of XC)
    XC-Potential eval.      ....       0.007 sec  (  3.0% of XC)
Diagonalization             ....       0.000 sec  (  0.0%)
Density matrix formation    ....       0.040 sec  (  5.4%)
Total Energy calculation    ....       0.011 sec  (  1.5%)
Population analysis         ....       0.008 sec  (  1.1%)
Orbital Transformation      ....       0.010 sec  (  1.3%)
Orbital Orthonormalization  ....       0.000 sec  (  0.0%)
DIIS solution               ....       0.115 sec  ( 15.4%)
SOSCF solution              ....       0.035 sec  (  4.7%)
Finished LeanSCF after   0.8 sec

Maximum memory used throughout the entire LEANSCF-calculation: 5.8 MB


           ************************************************************
           *        Program running with 8 parallel MPI-processes     *
           *              working on a common directory               *
           ************************************************************

------------------------------------------------------------------------------
                         ORCA PROPERTY INTEGRAL CALCULATIONS
------------------------------------------------------------------------------

GBWName                                   ... /cluster/projects/nn14654k/ylvaos/basis_set_n_funcs/functionals/hyb_gga_xc_b97/BF/inp/BF_hyb_gga_xc_b97_augccpvdz.gbw
Number of atoms                           ...      2
Number of basis functions                 ...     58
Max core memory                           ...   4096 MB

Dipole integrals                          ... YES
Quadrupole integrals                      ... YES
Linear momentum integrals                 ...  NO
Angular momentum integrals                ...  NO
Higher moments length integrals           ...  NO
Higher moments velocity integrals         ...  NO
Kinetic energy integrals                  ...  NO
GIAO right hand sides                     ...  NO
GIAO dipole derivative integrals          ...  NO
SOC integrals                             ...  NO
EPR diamagnetic integrals (GIAO)          ...  NO
EPR gauge integrals                       ...  NO
Field gradient integrals                  ...  NO (   0 nuclei)
Spin-dipole/Fermi contact integrals       ...  NO (   0 nuclei)
Contact density integrals                 ...  NO (   0 nuclei)
Nucleus-orbit integrals                   ...  NO (   0 nuclei)
Geometric perturbations                   ...  NO (   2 nuclei)

Choice of electric origin   ... Center of mass
Position of electric origin ... (  0.0000,  0.0000,  0.3288) 
Choice of magnetic origin   ... GIAO
Position of magnetic origin ... (  0.0000,  0.0000,  0.0000) 

Calculating integrals                     ... Electric Dipole (Length)     done (  0.0 sec)
Calculating integrals                     ... Electric Quadrupole (Length) done (  0.0 sec)

Property integrals calculated in   0.0 sec

Maximum memory used throughout the entire PROPINT-calculation: 4.0 MB
------------------------------------------------------------------------------
                           ORCA ORBITAL LOCALIZATION
------------------------------------------------------------------------------

Input orbitals are from                  ... /cluster/projects/nn14654k/ylvaos/basis_set_n_funcs/functionals/hyb_gga_xc_b97/BF/inp/BF_hyb_gga_xc_b97_augccpvdz.gbw
Output orbitals are to                   ... /cluster/projects/nn14654k/ylvaos/basis_set_n_funcs/functionals/hyb_gga_xc_b97/BF/inp/BF_hyb_gga_xc_b97_augccpvdz.loc
Max. number of iterations                ... 128
Localizations seeded randomly            ... on
Convergence tolerance                    ... 1.000e-06
Threshold for strong local MOs           ... 9.500e-01
Threshold for bond MOs                   ... 8.500e-01
Operator                                 ... 0
Orbital range for localization           ... 2 to 6
Localization criterion                   ... NEW-BOYS
Doing the dipole integrals               ... o.k.
Initial value of the localization sum :     7.107024
ITERATION   0 : L=    8.3698920669 DL=  1.26e+00 (AVERGE_DL)=    0.3553685981 
ITERATION   1 : L=    8.5074365263 DL=  1.38e-01 (AVERGE_DL)=    0.1172793500 
ITERATION   2 : L=    8.5119793025 DL=  4.54e-03 (AVERGE_DL)=    0.0213137894 
ITERATION   3 : L=    8.5142846633 DL=  2.31e-03 (AVERGE_DL)=    0.0151834147 
ITERATION   4 : L=    8.5150192123 DL=  7.35e-04 (AVERGE_DL)=    0.0085705835 
ITERATION   5 : L=    8.5154374735 DL=  4.18e-04 (AVERGE_DL)=    0.0064673111 
ITERATION   6 : L=    8.5156391322 DL=  2.02e-04 (AVERGE_DL)=    0.0044906428 
ITERATION   7 : L=    8.5157404965 DL=  1.01e-04 (AVERGE_DL)=    0.0031837767 
ITERATION   8 : L=    8.5157904756 DL=  5.00e-05 (AVERGE_DL)=    0.0022355989 
ITERATION   9 : L=    8.5158151218 DL=  2.46e-05 (AVERGE_DL)=    0.0015699108 
ITERATION  10 : L=    8.5158272219 DL=  1.21e-05 (AVERGE_DL)=    0.0011000079 
ITERATION  11 : L=    8.5158331534 DL=  5.93e-06 (AVERGE_DL)=    0.0007701589 
ITERATION  12 : L=    8.5158360597 DL=  2.91e-06 (AVERGE_DL)=    0.0005390989 
ITERATION  13 : L=    8.5158374859 DL=  1.43e-06 (AVERGE_DL)=    0.0003776527 
ITERATION  14 : L=    8.5158381891 DL=  7.03e-07 (AVERGE_DL)=    0.0002651842 
LOCALIZATION SUM CONVERGED


--------------------------------------------------------------------------------
                    LOCALIZED MOLECULAR ORBITAL COMPOSITIONS
--------------------------------------------------------------------------------

The Mulliken populations for each LMO on each atom are computed
The LMO`s will be ordered according to atom index and type
  (A) Strongly localized MO`s have populations of >=0.950 on one atom
  (B) Two center bond orbitals have populations of >=0.850 on two atoms
  (C) Other MO`s are considered to be `delocalized`

FOUND  -   2 strongly local MO`s
       -   3 two center bond MO`s
       -   0 significantly delocalized MO`s

Rather strongly localized orbitals:
MO   3:   1F  -   1.010551
MO   2:   0B  -   1.016200
Bond-like localized orbitals:
MO   6:   1F  -   0.850207  and   0B  -   0.149793
MO   5:   1F  -   0.849519  and   0B  -   0.150481
MO   4:   1F  -   0.849506  and   0B  -   0.150494
Localized MO's were stored in: /cluster/projects/nn14654k/ylvaos/basis_set_n_funcs/functionals/hyb_gga_xc_b97/BF/inp/BF_hyb_gga_xc_b97_augccpvdz.loc

-------------------------   --------------------
FINAL SINGLE POINT ENERGY      -124.632490257556
-------------------------   --------------------



           ************************************************************
           *        Program running with 8 parallel MPI-processes     *
           *              working on a common directory               *
           ************************************************************

------------------------------------------------------------------------------
                              ORCA PROPERTY CALCULATIONS
------------------------------------------------------------------------------

GBWName                                 ... /cluster/projects/nn14654k/ylvaos/basis_set_n_funcs/functionals/hyb_gga_xc_b97/BF/inp/BF_hyb_gga_xc_b97_augccpvdz.gbw
Number of atoms                         ...      2
Number of basis functions               ...     58
Max core memory                         ...   4096 MB

Electric properties:
Dipole moment                           ... YES
Quadrupole moment                       ... YES
Static polarizability (Dipole/Dipole)   ...  NO
Static polarizability (Dipole/Quad.)    ...  NO
Static polarizability (Quad./Quad.)     ...  NO
Static polarizability (Velocity)        ...  NO
Static hyperpolarizability              ...  NO

Atomic electric properties:
Dipole moment                           ...  NO
Quadrupole moment                       ...  NO
Static polarizability                   ...  NO

Choice of electric origin               ... Center of mass
Position of electric origin             ...     0.000000     0.000000     0.328818

General magnetic properties:
Magnetizability                         ...  NO

EPR properties:
g-Tensor (aka g-matrix)                 ...  NO
Zero-Field splitting spin-orbit         ...  NO
Zero-field splitting spin-spin          ...  NO
Hyperfine couplings                     ...  NO (   0 nuclei)
Quadrupole couplings                    ...  NO (   0 nuclei)
Contact density                         ...  NO (   0 nuclei)

NMR properties:
Chemical shifts                         ...  NO (   0 nuclei)
Spin-rotation constants                 ...  NO (   0 nuclei)
Spin-spin couplings                     ...  NO (   0 nuclei,    0 pairs)

Choice of magnetic origin               ... GIAO
Position of magnetic origin             ...     0.000000     0.000000     0.000000

Properties with geometric perturbations:
SCF Hessian                             ...  NO
IR spectrum                             ...  NO
VCD spectrum                            ...  NO
X-ray spectroscopy properties:
SCF XES/XAS/RIXS spectra                ...  NO

SCF SOC stabilization energy            ...  NO
Diagonal Born-Oppenheimer correction    ...  NO

-------------
DIPOLE MOMENT
-------------

Method             : SCF
Type of density    : Electron Density
Multiplicity       :   1
Irrep              :   0
Energy             :  -124.6324902575562277 Eh
Basis              : AO
                                X                 Y                 Z
Electronic contribution:     -0.000000000      -0.000000000       0.206991770
Nuclear contribution   :      0.000000000       0.000000000       0.184729478
                        -----------------------------------------
Total Dipole Moment    :     -0.000000000      -0.000000000       0.391721248
                        -----------------------------------------
Magnitude (a.u.)       :      0.391721248
Magnitude (Debye)      :      0.995676285



--------------------
Rotational spectrum 
--------------------
 
Rotational constants in cm-1:             0.000000             1.524443             1.524443 
Rotational constants in MHz :             0.000000         45701.643062         45701.643062 

Dipole components along the rotational axes: 
x,y,z [a.u.] :     0.391721    -0.000000    -0.000000 
x,y,z [Debye]:     0.995676    -0.000000    -0.000000 

 

Dipole moment calculation done in   0.0 sec 

-----------------
QUADRUPOLE MOMENT
-----------------

Method             : SCF
Type of density    : Electron Density
Multiplicity       :   1
Irrep              :   0
Energy             :  -124.6324902575562277 Eh
Basis              : AO

                XX              YY              ZZ              XY              XZ              YZ
  NUC        0.000000000     0.000000000    18.425714788     0.000000000     0.000000000     0.000000000
  EL        -7.950449982    -7.950449981   -28.942182479     0.000000000    -0.000000000     0.000000000
  TOT       -7.950449982    -7.950449981   -10.516467691     0.000000000    -0.000000000     0.000000000 (a.u.)
           -10.693627131   -10.693627129   -14.145008708     0.000000001    -0.000000000     0.000000000 (Buckingham)

diagonalized tensor:
           -10.516467691    -7.950449982    -7.950449980 (a.u.)
           -14.145008708   -10.693627131   -10.693627129 (Buckingham)
            -6.902763156     3.451381575     3.451381581 (traceless form in Buckingham)

             0.000000000     0.923515362     0.383561437
            -0.000000000    -0.383561437     0.923515362
             1.000000000    -0.000000000     0.000000000
        
Isotropic quadrupole :    -8.805789218

Quadrupole moment calculation done in   0.0 sec (  0.0 sec for integrals)

Maximum memory used throughout the entire PROP-calculation: 1.8 MB

--------------------------------
SUGGESTED CITATIONS FOR THIS RUN
--------------------------------

Below you find a list of papers that are relevant to this ORCA run
We neither can nor want to force you to cite these papers, but we appreciate if you do
You receive ORCA, which is the product of decades of hard work by many enthusiastic individuals, for free
The only thing we kindly ask in return is that you cite our papers,
We deeply appreciate it, if you show your appreciation for ORCA by not just citing the generic ORCA reference.

Please note that relegating all ORCA citations to the supporting information does *not* help us.
SI sections are not indexed - citations you put there will not count into any citation statistics
But we need these citations in order to attract the funding resources that allow us to do what we are doing

Therefore, if you are a happy ORCA user, please consider citing a few of the papers listed below in the main body of your paper

In addition to the list printed below, the program has created the file /cluster/projects/nn14654k/ylvaos/basis_set_n_funcs/functionals/hyb_gga_xc_b97/BF/inp/BF_hyb_gga_xc_b97_augccpvdz.bibtex that contains the list in bibtex format
You can import this file easily into all common literature databanks and citation aid programs

It goes without saying that in many instances, there are alternative algorithms to achieve similar
results as the ones you have gotten from ORCA. It is, of course, also the case that in some instances
ORCA just re-implements algorithms worked out by others. We are fully aware of that and we are also
fully appreciative of our colleagues work. Hence this citation list should not be read as indicating
that the listed papers, which are focused on our own work, are the only ones worth citing. It simply
meant to make it easier for users to cite ORCA specific papers. It is not a substitute for doing your
own literature research and citing the relevant literature in a scientifically appropriate manner.

List of essential papers. We consider these as the minimum necessary citations

  1. Neese, F.
     Software update: the ORCA program system, version 6.0
     WIRES Comput. Molec. Sci. 2025 15(1), e70019
     doi.org/10.1002/wcms.70019

List of papers to cite with high priority. The work reported in these papers was absolutely
necessary for this run to complete.
Our perspective: the developers of density functionals and basis sets usually get cited in chemistry papers
Good! But without the algorithms to do something with them, the functionals or basis sets would not do anything.
Hence, in our opinion, the algorithm design and method developments papers are equally worthy of getting cited

  1. Lehtola, S.; Steigemann, C.; Oliveira, M.; Marques, M.
     Recent developments in Libxc - A comprehensive library of functionals for density functional theory
     Software X 2018 7 , 
     doi.org/10.1016/j.softx.2017.11.002
  2. Neese, F.
     The SHARK Integral Generation and Digestion System
     J. Comp. Chem. 2022 44(3), 381
     doi.org/10.1002/jcc.26942

List of suggested additional citations. These are papers that are important in the 'surrounding' of 
of this run, or papers that preceded the highly important papers. If you like your results we are grateful for a citation.

  1. Neese, F.
     The ORCA program system
     WIRES Comput. Molec. Sci. 2012 2(1), 73-78
     doi.org/10.1002/wcms.81
  2. Neese, F.
     Software update: the ORCA program system, version 4.0
     WIRES Comput. Molec. Sci. 2018 8(1), 1-6
     doi.org/10.1002/wcms.1327
  3. Neese, F.; Wennmohs, F.; Becker, U.; Riplinger, C.
     The ORCA quantum chemistry program package
     J. Chem. Phys. 2020 152(22), 224108
     doi.org/10.1063/5.0004608
  4. Neese, F.
     Software update: The ORCA program system—Version 5.0
     WIRES Comput. Molec. Sci. 2022 12(1), e1606
     doi.org/10.1002/wcms.1606

List of optional additional citations

  1. Neese, F.
     Approximate second-order SCF convergence for spin unrestricted wavefunctions
     Chem. Phys. Lett. 2000 325(1-3), 93-98
     doi.org/10.1016/s0009-2614(00)00662-x

Timings for individual modules:

Sum of individual times          ...        2.215 sec (=   0.037 min)
Startup calculation              ...        0.474 sec (=   0.008 min)  21.4 %
SCF iterations                   ...        1.256 sec (=   0.021 min)  56.7 %
Property integrals               ...        0.244 sec (=   0.004 min)  11.0 %
Property calculations            ...        0.238 sec (=   0.004 min)  10.8 %
Orbital localization             ...        0.003 sec (=   0.000 min)   0.1 %
                             ****ORCA TERMINATED NORMALLY****
TOTAL RUN TIME: 0 days 0 hours 0 minutes 3 seconds 250 msec
