
                                 *****************
                                 * O   R   C   A *
                                 *****************

                                            #,                                       
                                            ###                                      
                                            ####                                     
                                            #####                                    
                                            ######                                   
                                           ########,                                 
                                     ,,################,,,,,                         
                               ,,#################################,,                 
                          ,,##########################################,,             
                       ,#########################################, ''#####,          
                    ,#############################################,,   '####,        
                  ,##################################################,,,,####,       
                ,###########''''           ''''###############################       
              ,#####''   ,,,,##########,,,,          '''####'''          '####       
            ,##' ,,,,###########################,,,                        '##       
           ' ,,###''''                  '''############,,,                           
         ,,##''                                '''############,,,,        ,,,,,,###''
      ,#''                                            '''#######################'''  
     '                                                          ''''####''''         
             ,#######,   #######,   ,#######,      ##                                
            ,#'     '#,  ##    ##  ,#'     '#,    #''#        ,####,    ,#,          
            ##       ##  ##   ,#'  ##            #'  '#       #'       ,# #          
            ##       ##  #######   ##           ,######,      #####,      #          
            '#,     ,#'  ##    ##  '#,     ,#' ,#      #,     #,   #      #          
             '#######'   ##     ##  '#######'  #'      '#     '####' #    #          



                #########################################################
                #                        -***-                          #
                #          Department of theory and spectroscopy        #
                #                                                       #
                #                      Frank Neese                      #
                #                                                       #
                #     Directorship, Architecture, Infrastructure        #
                #                    SHARK, DRIVERS                     #
                #        Core code/Algorithms in most modules           #
                #                                                       #
                #        Max Planck Institute fuer Kohlenforschung      #
                #                Kaiser Wilhelm Platz 1                 #
                #                 D-45470 Muelheim/Ruhr                 #
                #                      Germany                          #
                #                                                       #
                #                  All rights reserved                  #
                #                        -***-                          #
                #########################################################


                         Program Version 6.1.1  -  RELEASE   -
                                (GIT: $487d211c$)
                          ($2025-11-21 10:33:24 +0100$)


 With contributions from (in alphabetic order):
[Max-Planck-Institut fuer Kohlenforschung]                               
  Daniel Aravena         : Magnetic Suceptibility                        
  Michael Atanasov       : Ab Initio Ligand Field Theory (pilot matlab implementation)
  Alexander A. Auer      : GIAO ZORA, VPT2 properties, NMR spectrum      
  Ute Becker             : All parallelization in ORCA, NUMFREQ, NUMCALC 
  Giovanni Bistoni       : ED, misc. LED, open-shell LED, HFLD           
  Dmytro Bykov           : pre 5.0 version of the SCF Hessian            
  Marcos Casanova-Páez   : Triplet and SCS-CIS(D). UHF-(DLPNO)-IP/EA/STEOM-CCSD. UHF-CVS-IP/STEOM-CCSD   
  Vijay G. Chilkuri      : MRCI spin determinant printing, contributions to CSF-ICE 
  Pauline Colinet        : FMM embedding                                 
  Dipayan Datta          : RHF DLPNO-CCSD density                        
  Achintya Kumar Dutta   : EOM-CC, STEOM-CC                              
  Nicolas Foglia         : Exact transition moments, OPA infrastructure, MCD improvements    
  Dmitry Ganyushin       : Spin-Orbit,Spin-Spin,Magnetic field MRCI      
  Miquel Garcia-Rates    : C-PCM and meta-GGA Hessian, CCSD/C-PCM, Gaussian charge scheme 
  Tiago L. C. Gouveia    : GS-ROHF, GS-ROCIS                             
  Yang Guo               : DLPNO-NEVPT2, F12-NEVPT2, CIM, IAO-localization        
  Andreas Hansen         : Spin unrestricted coupled pair/coupled cluster methods 
  Ingolf Harden          : AUTO-CI MPn and infrastructure                
  Benjamin Helmich-Paris : MC-RPA, TRAH-(SCF,CASSCF), AVAS, COSX integrals, SCF dyn. polar., MC-PDFT, srDFT 
  Lee Huntington         : MR-EOM, pCC                                   
  Robert Izsak           : Overlap fitted RIJCOSX, COSX-SCS-MP3, EOM     
  Riya Kayal             : Wick's Theorem for AUTO-CI, AUTO-CI UHF-CCSDT 
  Emily Kempfer          : AUTO-CI RHF CISDT and CCSDT, approximate NEVPT4
  Christian Kollmar      : KDIIS, OOCD, Brueckner-CCSD(T), CCSD density, CASPT2, CASPT2-K, improved NEVPT2 
  Axel Koslowski         : Symmetry handling                             
  Simone Kossmann        : meta-GGA functionals, TD-DFT gradient, OOMP2, (MP2 Hessian; deprecated post 5.0) 
  Lucas Lang             : DCDCAS, Hyperfine gauge corrections, ICE-SOC+SSC
  Marvin Lechner         : AUTO-CI (C++ implementation), FIC-MRCC        
  Spencer Leger          : CASSCF response                               
  Dagmar Lenk            : GEPOL surface, SMD, ORCA-2-JSON               
  Dimitrios Liakos       : Extrapolation schemes; Compound Job, Property file
  Dimitrios Manganas     : Further ROCIS development; embedding schemes. LFT, Crystal Embedding 
  Dimitrios Pantazis     : SARC Basis sets                               
  Anastasios Papadopoulos: AUTO-CI, single reference methods and gradients 
  Taras Petrenko         : pre 6.0 DFT Hessian and TD-DFT gradient,  ECA, NRVS 
  Petra Pikulova         : Analytic Raman intensities                    
  Peter Pinski           : DLPNO-MP2, DLPNO-MP2 Gradient                 
  Shashank Vittal Rao    : ES-AILFT, MagRelax                            
  Christoph Reimann      : Effective Core Potentials                     
  Marius Retegan         : Local ZFS, SOC                                
  Christoph Riplinger    : Optimizer, TS searches, QM/MM, DLPNO-CCSD(T), (RO)-DLPNO pert. Triples 
  Michael Roemelt        : Original ROCIS implementation, recursive CI coupling coefficients
  Masaaki Saitow         : Open-shell DLPNO-CCSD energy and density      
  Barbara Sandhoefer     : DKH picture change effects                    
  Yorick L. A. Schmerwitz: GMF and freeze-and-release deltaSCF, NEB S-IDPP initial path                    
  Kantharuban Sivalingam : CASSCF convergence/infrastructure, NEVPT2, NEVPT3, NEVPT4(SD), FIC-MRCI and CEPA variants
  Bernardo de Souza      : ESD, SOC TD-DFT                               
  Georgi L. Stoychev     : AutoAux, RI-MP2 NMR, DLPNO-MP2 response, X2C  
  Van Anh Tran           : RI-MP2 g-tensors                              
  Willem Van den Heuvel  : Paramagnetic NMR                              
  Zikuan Wang            : NOTCH, Electric field optimization            
  Frank Wennmohs         : Technical directorship and infrastructure     
  Hang Xu                : AUTO-CI-Response properties                   
                                                                         
[FACCTs GmbH]                                                            
  Markus Bursch, Nicolas Foglia, Miquel Garcia-Rates, Ingolf Harden, Hagen Neugebauer, Anastasios Papadopoulos, 
  Christoph Riplinger, Bernardo de Souza, Georgi L. Stoychev                                                    
                                                                 
  APM, various basis sets, CI-OPT, improved COSX, DLPNO-Multilevel,           
  DOCKER, DRACO, updates on ESD, Fragmentator, GOAT, IRC, LR-CPCM, L-BFGS, MBIS, meta-GGA TD-DFT gradient, ML-optimized integration grids, 
  MM, NACMEs, nearIR, NEB, NEB-TS, NL-DFT gradient (VV10), 2- and 3-layer-ONIOM, interface openCOSMO-RS, QMMM,   
  Crystal-QMMM, RESP, rigid body optimization, SF, symmetry and pop. for TD-DFT, various functionals, SOLVATOR                                   
                                                                         
[Other institutions]                                                     
  V. Asgeirsson          : NEB                                           
  Christoph Bannwarth    : sTDA-DFT, sTD-DFT, PBEh-3c, B97-3c, D3        
  Giovanni Bistoni       : ETS/NOCV, ADLD/ADEX, COVALED                  
  Martin Brehm           : Molecular dynamics                            
  Ronald Cardenas        : ETS/NOCV                                      
  Martina Colucci        : COVALED                                       
  Sebastian Ehlert       : rSCAN, r2SCAN, r2SCAN-3c, D4, dhf basis sets  
  Marvin Friede          : D4 for Fr, Ra, Ac-Lr                          
  Lars Goerigk           : TD-DFT with DH, B97 family of functionals     
  Stefan Grimme          : VdW corrections, initial TS optimization, DFT functionals, gCP, sTDA/sTD-DF 
  Waldemar Hujo          : DFT-NL                                        
  H. Jonsson             : NEB                                           
  Holger Kruse           : gCP                                           
  Marcel Mueller         : wB97X-3c, vDZP basis set                      
  Hagen Neugebauer       : wr2SCAN, Native XTB                           
  Gianluca Regni         : ADLD/ADEX                                     
  Tobias Risthaus        : pre 6.0 range-separated hybrid DFT and stability analysis
  Lukas Wittmann         : regularized MP2, r2SCAN double-hybrids, wr2SCAN        
                                                                         
We gratefully acknowledge several colleagues who have allowed us to      
interface, adapt or use parts of their codes:                            
  Ed Valeev, F. Pavosevic, A. Kumar             : LibInt (2-el integral package), F12 methods 
  Garnet Chan, S. Sharma, J. Yang, R. Olivares  : DMRG                   
  Ulf Ekstrom                                   : XCFun DFT Library      
  Mihaly Kallay                                 : mrcc  (arbitrary order and MRCC methods)
  Frank Weinhold                                : gennbo (NPA and NBO analysis)           
  Simon Mueller                                 : openCOSMO-RS                            
  Christopher J. Cramer and Donald G. Truhlar   : smd solvation model                     
  S Lehtola, MJT Oliveira, MAL Marques          : LibXC Library                           
  Liviu Ungur et al                             : ANISO software                          


 Your calculation uses the libint2 library for the computation of 2-el integrals
 For citations please refer to: http://libint.valeyev.net

 Your ORCA version has been built with support for libXC version: 7.0.0
 For citations please refer to: https://libxc.gitlab.io

 This ORCA versions uses:
   CBLAS   interface :  Fast vector & matrix operations
   LAPACKE interface :  Fast linear algebra routines
   SCALAPACK package :  Parallel linear algebra routines
   Shared memory     :  Shared parallel matrices
   BLAS/LAPACK       :  OpenBLAS 0.3.29  USE64BITINT DYNAMIC_ARCH NO_AFFINITY Cooperlake SINGLE_THREADED
        Core in use  :  Cooperlake
   Copyright (c) 2011-2014, The OpenBLAS Project


  ***********************************
  * Starting time: Fri May 15 14:02:16 2026
  * Host name:     c1-40
  * Process ID:    2700865
  * Working dir.:  /cluster/projects/nn14654k/ylvaos/basis_set_n_funcs/functionals/pw91/C4H6/out
  ***********************************

Using LibXC functional ID 109 : Perdew & Wang 91
[ 1]  J. P. Perdew. In P. Ziesche and H. Eschrig, editors, Proceedings of the 75. WE-Heraeus-Seminar and 21st Annual International Symposium on Electronic Structure of Solids, 11. Berlin, 1991. Akademie Verlag.
[ 2]  J. P. Perdew, J. A. Chevary, S. H. Vosko, K. A. Jackson, M. R. Pederson, D. J. Singh, and C. Fiolhais.,  Phys. Rev. B 46, 6671 (1992)
[ 3]  J. P. Perdew, J. A. Chevary, S. H. Vosko, K. A. Jackson, M. R. Pederson, D. J. Singh, and C. Fiolhais.,  Phys. Rev. B 48, 4978 (1993)
Using LibXC functional ID 134 : Perdew & Wang 91
[ 1]  J. P. Perdew. In P. Ziesche and H. Eschrig, editors, Proceedings of the 75. WE-Heraeus-Seminar and 21st Annual International Symposium on Electronic Structure of Solids, 11. Berlin, 1991. Akademie Verlag.
[ 2]  J. P. Perdew, J. A. Chevary, S. H. Vosko, K. A. Jackson, M. R. Pederson, D. J. Singh, and C. Fiolhais.,  Phys. Rev. B 46, 6671 (1992)
[ 3]  J. P. Perdew, J. A. Chevary, S. H. Vosko, K. A. Jackson, M. R. Pederson, D. J. Singh, and C. Fiolhais.,  Phys. Rev. B 48, 4978 (1993)
Using LibXC functional ID 109 : Perdew & Wang 91
[ 1]  J. P. Perdew. In P. Ziesche and H. Eschrig, editors, Proceedings of the 75. WE-Heraeus-Seminar and 21st Annual International Symposium on Electronic Structure of Solids, 11. Berlin, 1991. Akademie Verlag.
[ 2]  J. P. Perdew, J. A. Chevary, S. H. Vosko, K. A. Jackson, M. R. Pederson, D. J. Singh, and C. Fiolhais.,  Phys. Rev. B 46, 6671 (1992)
[ 3]  J. P. Perdew, J. A. Chevary, S. H. Vosko, K. A. Jackson, M. R. Pederson, D. J. Singh, and C. Fiolhais.,  Phys. Rev. B 48, 4978 (1993)
Using LibXC functional ID 134 : Perdew & Wang 91
[ 1]  J. P. Perdew. In P. Ziesche and H. Eschrig, editors, Proceedings of the 75. WE-Heraeus-Seminar and 21st Annual International Symposium on Electronic Structure of Solids, 11. Berlin, 1991. Akademie Verlag.
[ 2]  J. P. Perdew, J. A. Chevary, S. H. Vosko, K. A. Jackson, M. R. Pederson, D. J. Singh, and C. Fiolhais.,  Phys. Rev. B 46, 6671 (1992)
[ 3]  J. P. Perdew, J. A. Chevary, S. H. Vosko, K. A. Jackson, M. R. Pederson, D. J. Singh, and C. Fiolhais.,  Phys. Rev. B 48, 4978 (1993)
Your calculation utilizes LibXC
by S. Lehtola, C. Steigemann, M. J. T. Oliveira & M. A. L. Marques
Please cite in your paper:
Lehtola, S.; Steigemann, C.; Oliveira, M.J.T.; Marques, M. A. L. Software X, 7, (2018), 1.
   

================================================================================

----- Orbital basis set information -----
Your calculation utilizes the basis: def2-QZVP
   F. Weigend and R. Ahlrichs, Phys. Chem. Chem. Phys. 7, 3297 (2005).

================================================================================
                                        WARNINGS
                       Please study these warnings very carefully!
================================================================================


================================================================================
                                       INPUT FILE
================================================================================
NAME = /cluster/projects/nn14654k/ylvaos/basis_set_n_funcs/functionals/pw91/C4H6/inp/C4H6_pw91_def2qzvp.inp
|  1> ! dft def2-QZVP TightSCF
|  2> %pal nprocs 8 end
|  3> 
|  4> %loc
|  5>   LocMet NewBoys
|  6>   Occ true
|  7> end
|  8> 
|  9> %method
| 10>   exchange gga_x_pw91
| 11>   correlation gga_c_pw91
| 12> end
| 13> 
| 14> %elprop
| 15>   Dipole true
| 16>   Quadrupole true
| 17> end
| 18> 
| 19> * xyz 0 1
| 20> C    0.000000000000   0.000000000000   1.632000000000
| 21> C    0.000000000000   0.000000000000   0.300000000000
| 22> C    0.000000000000   0.771000000000  -0.936300000000
| 23> C    0.000000000000  -0.771000000000  -0.936300000000
| 24> H    0.000000000000   0.914000000000   2.222200000000
| 25> H    0.000000000000  -0.914000000000   2.222200000000
| 26> H    0.912300000000   1.305900000000  -1.200300000000
| 27> H   -0.912300000000   1.305900000000  -1.200300000000
| 28> H   -0.912300000000  -1.305900000000  -1.200300000000
| 29> H    0.912300000000  -1.305900000000  -1.200300000000
| 30> *
| 31> 
| 32> 
| 33>                          ****END OF INPUT****
================================================================================

                       ****************************
                       * Single Point Calculation *
                       ****************************

---------------------------------
CARTESIAN COORDINATES (ANGSTROEM)
---------------------------------
  C      0.000000    0.000000    1.632000
  C      0.000000    0.000000    0.300000
  C      0.000000    0.771000   -0.936300
  C      0.000000   -0.771000   -0.936300
  H      0.000000    0.914000    2.222200
  H      0.000000   -0.914000    2.222200
  H      0.912300    1.305900   -1.200300
  H     -0.912300    1.305900   -1.200300
  H     -0.912300   -1.305900   -1.200300
  H      0.912300   -1.305900   -1.200300

----------------------------
CARTESIAN COORDINATES (A.U.)
----------------------------
  NO LB      ZA    FRAG     MASS         X           Y           Z
   0 C     6.0000    0    12.011    0.000000    0.000000    3.084033
   1 C     6.0000    0    12.011    0.000000    0.000000    0.566918
   2 C     6.0000    0    12.011    0.000000    1.456979   -1.769351
   3 C     6.0000    0    12.011    0.000000   -1.456979   -1.769351
   4 H     1.0000    0     1.008    0.000000    1.727210    4.199349
   5 H     1.0000    0     1.008    0.000000   -1.727210    4.199349
   6 H     1.0000    0     1.008    1.723997    2.467793   -2.268238
   7 H     1.0000    0     1.008   -1.723997    2.467793   -2.268238
   8 H     1.0000    0     1.008   -1.723997   -2.467793   -2.268238
   9 H     1.0000    0     1.008    1.723997   -2.467793   -2.268238

--------------------------------
INTERNAL COORDINATES (ANGSTROEM)
--------------------------------
 C      0   0   0     0.000000000000     0.00000000     0.00000000
 C      1   0   0     1.332000000000     0.00000000     0.00000000
 C      2   1   0     1.457010188708   148.05088964     0.00000000
 C      2   1   3     1.457010188708   148.05088964   180.00000000
 H      1   2   3     1.087994503663   122.85166680     0.00000000
 H      1   2   3     1.087994503663   122.85166680   180.00000000
 H      3   2   1     1.090002431190   117.72260444    70.99760541
 H      3   2   1     1.090002431190   117.72260444   289.00239459
 H      4   2   1     1.090002431190   117.72260444    70.99760541
 H      4   2   1     1.090002431190   117.72260444   289.00239459

---------------------------
INTERNAL COORDINATES (A.U.)
---------------------------
 C      0   0   0     0.000000000000     0.00000000     0.00000000
 C      1   0   0     2.517115210383     0.00000000     0.00000000
 C      2   1   0     2.753350230992   148.05088964     0.00000000
 C      2   1   3     2.753350230992   148.05088964   180.00000000
 H      1   2   3     2.056011647134   122.85166680     0.00000000
 H      1   2   3     2.056011647134   122.85166680   180.00000000
 H      3   2   1     2.059806080257   117.72260444    70.99760541
 H      3   2   1     2.059806080257   117.72260444   289.00239459
 H      4   2   1     2.059806080257   117.72260444    70.99760541
 H      4   2   1     2.059806080257   117.72260444   289.00239459

---------------------
BASIS SET INFORMATION
---------------------
There are 2 groups of distinct atoms

 Group   1 Type C   : 15s8p3d2f1g contracted to 7s4p3d2f1g pattern {8211111/5111/111/11/1}
 Group   2 Type H   : 7s3p2d1f contracted to 4s3p2d1f pattern {4111/111/11/1}

Atom   0C    basis set group =>   1
Atom   1C    basis set group =>   1
Atom   2C    basis set group =>   1
Atom   3C    basis set group =>   1
Atom   4H    basis set group =>   2
Atom   5H    basis set group =>   2
Atom   6H    basis set group =>   2
Atom   7H    basis set group =>   2
Atom   8H    basis set group =>   2
Atom   9H    basis set group =>   2


           ************************************************************
           *        Program running with 8 parallel MPI-processes     *
           *              working on a common directory               *
           ************************************************************
------------------------------------------------------------------------------
                             ORCA STARTUP CALCULATIONS
------------------------------------------------------------------------------
------------------------------------------------------------------------------
                   ___                                                        
                  /   \      - P O W E R E D   B Y -                         
                 /     \                                                     
                 |  |  |   _    _      __       _____    __    __             
                 |  |  |  | |  | |    /  \     |  _  \  |  |  /  |          
                  \  \/   | |  | |   /    \    | | | |  |  | /  /          
                 / \  \   | |__| |  /  /\  \   | |_| |  |  |/  /          
                |  |  |   |  __  | /  /__\  \  |    /   |      \           
                |  |  |   | |  | | |   __   |  |    \   |  |\   \          
                \     /   | |  | | |  |  |  |  | |\  \  |  | \   \       
                 \___/    |_|  |_| |__|  |__|  |_| \__\ |__|  \__/        
                                                                              
                      - O R C A' S   B I G   F R I E N D -                    
                                      &                                       
                       - I N T E G R A L  F E E D E R -                       
                                                                              
 v1 FN, 2020, v2 2021, v3 2022-2024                                           
------------------------------------------------------------------------------


----------------------
SHARK INTEGRAL PACKAGE
----------------------

Number of atoms                             ...     10
Number of basis functions                   ...    408
Number of shells                            ...    128
Maximum angular momentum                    ...      4
Integral batch strategy                     ... SHARK/LIBINT Hybrid
RI-J (if used) integral strategy            ... SPLIT-RIJ (Revised 2003 algorithm where possible)
Printlevel                                  ...      1
Contraction scheme used                     ... SEGMENTED contraction
Prescreening option                         ... SCHWARTZ
   Thresh                                   ... 2.500e-11
   Tcut                                     ... 2.500e-12
   Tpresel                                  ... 2.500e-12 
Coulomb Range Separation                    ... NOT USED
Exchange Range Separation                   ... NOT USED
Multipole approximations                    ... NOT USED
Finite Nucleus Model                        ... NOT USED
CABS basis                                  ... NOT available
Auxiliary Coulomb fitting basis             ... NOT available
Auxiliary J/K fitting basis                 ... NOT available
Auxiliary Correlation fitting basis         ... NOT available
Auxiliary 'external' fitting basis          ... NOT available

Checking pre-screening integrals            ... done (  0.0 sec) Dimension = 128
   => SHARK Basis and OBASIS are compatible. Storing Pre-screening
Shell pair information
Shell pair cut-off parameter TPreSel        ...   2.5e-12
Total number of shell pairs                 ...      8256
Shell pairs after pre-screening             ...      7738
Total number of primitive shell pairs       ...     19107
Primitive shell pairs kept                  ...     14829
          la=0 lb=0:   1246 shell pairs
          la=1 lb=0:   1660 shell pairs
          la=1 lb=1:    575 shell pairs
          la=2 lb=0:   1152 shell pairs
          la=2 lb=1:    770 shell pairs
          la=2 lb=2:    282 shell pairs
          la=3 lb=0:    672 shell pairs
          la=3 lb=1:    458 shell pairs
          la=3 lb=2:    316 shell pairs
          la=3 lb=3:    101 shell pairs
          la=4 lb=0:    208 shell pairs
          la=4 lb=1:    136 shell pairs
          la=4 lb=2:     96 shell pairs
          la=4 lb=3:     56 shell pairs
          la=4 lb=4:     10 shell pairs

Checking whether 4 symmetric matrices of dimension 408 fit in memory
:Max Core in MB      =   4096.00
 MB in use           =     12.97
 MB left             =   4083.03
 MB needed           =      2.55
 Data fit in memory  = YES
Calculating Nuclear repulsion               ... done (  0.0 sec) ENN=    109.249345578353 Eh

Diagonalization of the overlap matrix:
Smallest eigenvalue                        ... 5.265e-05
Time for diagonalization                   ...    0.012 sec
Threshold for overlap eigenvalues          ... 1.000e-07
Number of eigenvalues below threshold      ... 0
Time for construction of square roots      ...    0.009 sec
Total time needed                          ...    0.024 sec

-------------------
DFT GRID GENERATION
-------------------

General Integration Accuracy     IntAcc      ... 4.388
Radial Grid Type                 RadialGrid  ... OptM3 with GC (2021)
Angular Grid (max. ang.)         AngularGrid ... 4 (Lebedev-302)
Angular grid pruning method      GridPruning ... 4 (adaptive)
Weight generation scheme         WeightScheme... mBecke (2022)
Basis function cutoff            BFCut       ... 1.0000e-11
Integration weight cutoff        WCut        ... 1.0000e-14
Partially contracted basis set               ... off
Rotationally invariant grid construction     ... off
Angular grids for H and He will be reduced by one unit
Diffuse basis detected: some atoms will have their outermost
                        angular grid increased by 1.

Total number of grid points                  ...    44804
Total number of batches                      ...      705
Average number of points per batch           ...       63
Average number of grid points per atom       ...     4480
Grids setup in   0.2 sec
Initializing property integral containers    ... done (  0.0 sec)

SHARK setup successfully completed in   0.4 seconds

Maximum memory used throughout the entire STARTUP-calculation: 26.1 MB


           ************************************************************
           *        Program running with 8 parallel MPI-processes     *
           *              working on a common directory               *
           ************************************************************
-------------------------------------------------------------------------------
                                 ORCA GUESS
                   Start orbitals & Density for SCF / CASSCF
-------------------------------------------------------------------------------

------------
SCF SETTINGS
------------
Hamiltonian:
 Density Functional     Method          .... DFT(GTOs)
  Functional kind                       .... Exchange
  Functional name                       .... Perdew & Wang 91
  Functional family                     .... GGA
  Functional refs                              
    [ 0] J. P. Perdew. In P. Ziesche and H. Eschrig, editors, Proceedings of the 75. WE-Heraeus-Seminar and 21st Annual International Symposium on Electronic Structure of Solids, 11. Berlin, 1991. Akademie Verlag.
    [ 1] J. P. Perdew, J. A. Chevary, S. H. Vosko, K. A. Jackson, M. R. Pederson, D. J. Singh, and C. Fiolhais.,  Phys. Rev. B 46, 6671 (1992), doi: 10.1103/PhysRevB.46.6671
    [ 2] J. P. Perdew, J. A. Chevary, S. H. Vosko, K. A. Jackson, M. R. Pederson, D. J. Singh, and C. Fiolhais.,  Phys. Rev. B 48, 4978 (1993), doi: 10.1103/PhysRevB.48.4978.2
  Functional external parameters        .... 7
    Parameter  0 _a         =  1.964500e-01 : a parameter         
    Parameter  1 _b         =  7.795600e+00 : b parameter         
    Parameter  2 _c         =  2.743000e-01 : c parameter         
    Parameter  3 _d         = -1.508000e-01 : d parameter         
    Parameter  4 _f         =  4.000000e-03 : f parameter         
    Parameter  5 _alpha     =  1.000000e+02 : alpha parameter     
    Parameter  6 _expo      =  4.000000e+00 : exponent            
  Functional kind                       .... Correlation
  Functional name                       .... Perdew & Wang 91
  Functional family                     .... GGA
  Functional refs                              
    [ 0] J. P. Perdew. In P. Ziesche and H. Eschrig, editors, Proceedings of the 75. WE-Heraeus-Seminar and 21st Annual International Symposium on Electronic Structure of Solids, 11. Berlin, 1991. Akademie Verlag.
    [ 1] J. P. Perdew, J. A. Chevary, S. H. Vosko, K. A. Jackson, M. R. Pederson, D. J. Singh, and C. Fiolhais.,  Phys. Rev. B 46, 6671 (1992), doi: 10.1103/PhysRevB.46.6671
    [ 2] J. P. Perdew, J. A. Chevary, S. H. Vosko, K. A. Jackson, M. R. Pederson, D. J. Singh, and C. Fiolhais.,  Phys. Rev. B 48, 4978 (1993), doi: 10.1103/PhysRevB.48.4978.2
  Functional external parameters        .... 0
 Gradients option       PostSCFGGA      .... off


General Settings:
 Integral files         IntName         .... /cluster/projects/nn14654k/ylvaos/basis_set_n_funcs/functionals/pw91/C4H6/inp/C4H6_pw91_def2qzvp
 Hartree-Fock type      HFTyp           .... RHF
 Total Charge           Charge          ....    0
 Multiplicity           Mult            ....    1
 Number of Electrons    NEL             ....   30
 Basis Dimension        Dim             ....  408
 Nuclear Repulsion      ENuc            ....    109.2493455784 Eh

Convergence Acceleration:
 AO-DIIS                CNVDIIS         .... on
   Start iteration      DIISMaxIt       ....    12
   Startup error        DIISStart       ....  0.200000
   # of expansion vecs  DIISMaxEq       ....     5
   Bias factor          DIISBfac        ....   1.050
   Max. coefficient     DIISMaxC        ....  10.000
 MO-DIIS                CNVKDIIS        .... off
 Trust-Rad. Augm. Hess. CNVTRAH         .... auto
   Auto Start mean grad. ratio tolernc. ....  1.125000
   Auto Start start iteration           ....    50
   Auto Start num. interpolation iter.  ....    10
   Max. Number of Micro iterations      ....    24
   Max. Number of Macro iterations      .... Maxiter - #DIIS iter
   Number of Davidson start vectors     ....     2
   Converg. threshold    (grad. norm)   ....   1.000e-05
   Grad. Scal. Fac. for Micro threshold ....   0.100
   Minimum threshold for Micro iter.    ....   1.000e-02
   NR start threshold (gradient norm)   ....   1.000e-04
   Initial trust radius                 ....   0.400
   Minimum AH scaling param. (alpha)    ....   1.000
   Maximum AH scaling param. (alpha)    .... 1000.000
   Quad. conv. algorithm                .... NR
   White noise on init. David. guess    .... on
   Maximum white noise                  ....   0.010
   Pseudo random numbers                .... off
   Inactive MOs                         .... canonical
   Orbital update algorithm             .... Taylor
   Preconditioner                       .... Diag
   Full preconditioner red. dimension   ....   250
 SOSCF                 CNVSOSCF           .... on
   Start iteration     SOSCFMaxIt         ....   150
   Startup grad/error  SOSCFStart         ....  0.003300
   Hessian update      SOSCFHessUp        .... L-BFGS
   Autom. constraints  SOSCFAutoConstrain .... off
 Level Shifting         CNVShift        .... on
   Level shift para.    LevelShift      ....    0.2500
   Turn off err/grad.   ShiftErr        ....    0.0010
 Zerner damping         CNVZerner       .... off
 Static damping         CNVDamp         .... on
   Fraction old density DampFac         ....    0.7000
   Max. Damping (<1)    DampMax         ....    0.9800
   Min. Damping (>=0)   DampMin         ....    0.0000
   Turn off err/grad.   DampErr         ....    0.1000

SCF Procedure:
 Maximum # iterations   MaxIter         ....   125
 SCF integral mode      SCFMode         .... Direct
   Integral package                     .... SHARK and LIBINT hybrid scheme
 Reset frequency        DirectResetFreq ....    20
 Integral Threshold     Thresh          ....  2.500e-11 Eh
 Primitive CutOff       TCut            ....  2.500e-12 Eh

Convergence Tolerance:
 Convergence Check Mode ConvCheckMode   .... Total+1el-Energy
 Convergence forced     ConvForced      .... 0
 Energy Change          TolE            ....  1.000e-08 Eh
 1-El. energy change                    ....  1.000e-05 Eh
 Orbital Gradient       TolG            ....  1.000e-05
 Orbital Rotation angle TolX            ....  1.000e-05
 DIIS Error             TolErr          ....  5.000e-07

------------------------------
INITIAL GUESS: MODEL POTENTIAL
------------------------------
Loading Hartree-Fock densities                     ... done
Calculating cut-offs                               ... done
Initializing the effective Hamiltonian             ... done
Setting up the integral package (SHARK)            ... done
Starting the Coulomb interaction                   ... done (   0.0 sec)
Making the grid                                    ... done (   0.1 sec)
Mapping shells                                     ... done
Starting the XC term evaluation                    ... done (   0.0 sec)
  promolecular density results
     # of electrons  =     29.996285088
     EX              =    -22.277376921
     EC              =     -1.018168343
     EX+EC           =    -23.295545264
Transforming the Hamiltonian                       ... done (   0.0 sec)
Diagonalizing the Hamiltonian                      ... done (   0.0 sec)
Back transforming the eigenvectors                 ... done (   0.0 sec)
Now organizing SCF variables                       ... done
                      ------------------
                      INITIAL GUESS DONE (   0.2 sec)
                      ------------------
             **** ENERGY FILE WAS UPDATED (/cluster/projects/nn14654k/ylvaos/basis_set_n_funcs/functionals/pw91/C4H6/inp/C4H6_pw91_def2qzvp.en.tmp) ****
Finished Guess after   0.3 sec
Maximum memory used throughout the entire GUESS-calculation: 24.0 MB


           ************************************************************
           *        Program running with 8 parallel MPI-processes     *
           *              working on a common directory               *
           ************************************************************

-------------------------------------------------------------------------------------------
                                      ORCA LEAN-SCF
                              memory conserving SCF solver
-------------------------------------------------------------------------------------------

----------------------------------------D-I-I-S--------------------------------------------
Iteration    Energy (Eh)           Delta-E    RMSDP     MaxDP     DIISErr   Damp  Time(sec)
-------------------------------------------------------------------------------------------
               ***  Starting incremental Fock matrix formation  ***
    1    -155.8359097338235983     0.00e+00  1.65e-03  2.78e-02  1.84e-01  0.700   5.8
    2    -155.8966212415691643    -6.07e-02  1.08e-03  1.31e-02  8.75e-02  0.700   5.4
                               ***Turning on AO-DIIS***
    3    -155.9184715458795836    -2.19e-02  5.84e-04  6.48e-03  2.44e-02  0.700   5.2
    4    -155.9308952221853133    -1.24e-02  1.41e-03  1.67e-02  9.79e-03  0.000   5.1
    5    -155.9589552952147073    -2.81e-02  2.17e-04  2.52e-03  7.38e-03  0.000   5.3
                              *** Initializing SOSCF ***
---------------------------------------S-O-S-C-F--------------------------------------
Iteration    Energy (Eh)           Delta-E    RMSDP     MaxDP     MaxGrad    Time(sec)
--------------------------------------------------------------------------------------
    6    -155.9592967249234903    -3.41e-04  1.37e-04  1.74e-03  1.73e-03     4.9
               *** Restarting incremental Fock matrix formation ***
    7    -155.9593195568972988    -2.28e-05  1.40e-04  1.87e-03  3.48e-04     5.5
    8    -155.9593170440333552     2.51e-06  3.83e-05  6.41e-04  7.80e-04     4.7
    9    -155.9593219170306497    -4.87e-06  3.08e-05  3.89e-04  1.88e-04     4.4
   10    -155.9593212531006543     6.64e-07  1.08e-05  1.53e-04  2.46e-04     4.4
   11    -155.9593223764804293    -1.12e-06  5.27e-06  6.40e-05  2.85e-05     4.1
   12    -155.9593223712158192     5.26e-09  1.72e-06  1.83e-05  3.42e-05     3.9
                 **** Energy Check signals convergence ****

               *****************************************************
               *                     SUCCESS                       *
               *           SCF CONVERGED AFTER  12 CYCLES          *
               *****************************************************

             **** ENERGY FILE WAS UPDATED (/cluster/projects/nn14654k/ylvaos/basis_set_n_funcs/functionals/pw91/C4H6/inp/C4H6_pw91_def2qzvp.en.tmp) ****

----------------
TOTAL SCF ENERGY
----------------

Total Energy       :       -155.95932238730808 Eh           -4243.86892 eV

Components:
Nuclear Repulsion  :        109.24934557835338 Eh            2972.82583 eV
Electronic Energy  :       -265.20866796566145 Eh           -7216.69475 eV
One Electron Energy:       -424.47464363423722 Eh          -11550.54227 eV
Two Electron Energy:        159.26597566857581 Eh            4333.84753 eV

Virial components:
Potential Energy   :       -311.10241636818785 Eh           -8465.52713 eV
Kinetic Energy     :        155.14309398087980 Eh            4221.65821 eV
Virial Ratio       :          2.00526113270971

DFT components:
N(Alpha)           :       14.999994718819 electrons
N(Beta)            :       14.999994718819 electrons
N(Total)           :       29.999989437638 electrons
E(X)               :      -22.812835754832 Eh       
E(C)               :       -1.028098232384 Eh       
E(XC)              :      -23.840933987216 Eh       

---------------
SCF CONVERGENCE
---------------

  Last Energy change         ...   -5.2646e-09  Tolerance :   1.0000e-08
  Last MAX-Density change    ...    1.8256e-05  Tolerance :   1.0000e-07
  Last RMS-Density change    ...    1.7245e-06  Tolerance :   5.0000e-09
  Last DIIS Error            ...    1.7251e-03  Tolerance :   5.0000e-07
  Last Orbital Gradient      ...    3.4161e-05  Tolerance :   1.0000e-05
  Last Orbital Rotation      ...    4.0447e-05  Tolerance :   1.0000e-05


----------------
ORBITAL ENERGIES
----------------

  NO   OCC          E(Eh)            E(eV) 
   0   2.0000      -9.913420      -269.7579 
   1   2.0000      -9.909889      -269.6618 
   2   2.0000      -9.909784      -269.6589 
   3   2.0000      -9.892985      -269.2018 
   4   2.0000      -0.795093       -21.6356 
   5   2.0000      -0.647191       -17.6110 
   6   2.0000      -0.554887       -15.0992 
   7   2.0000      -0.482305       -13.1242 
   8   2.0000      -0.433792       -11.8041 
   9   2.0000      -0.423660       -11.5284 
  10   2.0000      -0.382271       -10.4021 
  11   2.0000      -0.332788        -9.0556 
  12   2.0000      -0.280036        -7.6202 
  13   2.0000      -0.258842        -7.0434 
  14   2.0000      -0.229880        -6.2554 
  15   0.0000      -0.039293        -1.0692 
  16   0.0000       0.003623         0.0986 
  17   0.0000       0.021733         0.5914 
  18   0.0000       0.030840         0.8392 
  19   0.0000       0.056531         1.5383 
  20   0.0000       0.056538         1.5385 
  21   0.0000       0.065198         1.7741 
  22   0.0000       0.088589         2.4106 
  23   0.0000       0.093439         2.5426 
  24   0.0000       0.104518         2.8441 
  25   0.0000       0.131064         3.5664 
*Only the first 10 virtual orbitals were printed.

                    ********************************
                    * MULLIKEN POPULATION ANALYSIS *
                    ********************************

-----------------------
MULLIKEN ATOMIC CHARGES
-----------------------
   0 C :   -0.196553
   1 C :    0.126015
   2 C :   -0.157909
   3 C :   -0.157911
   4 H :    0.061839
   5 H :    0.061840
   6 H :    0.065669
   7 H :    0.065669
   8 H :    0.065670
   9 H :    0.065670
Sum of atomic charges:   -0.0000000

--------------------------------
MULLIKEN REDUCED ORBITAL CHARGES
--------------------------------
  0 C s       :     3.357829  s :     3.357829
      pz      :     0.840099  p :     2.753857
      px      :     0.984155
      py      :     0.929602
      dz2     :    -0.000232  d :     0.076060
      dxz     :     0.011439
      dyz     :     0.061759
      dx2y2   :     0.003034
      dxy     :     0.000060
      f0      :     0.000747  f :     0.008375
      f+1     :     0.001941
      f-1     :     0.005648
      f+2     :     0.000426
      f-2     :     0.000072
      f+3     :    -0.000067
      f-3     :    -0.000393
      g0      :     0.000023  g :     0.000432
      g+1     :     0.000206
      g-1     :     0.000270
      g+2     :     0.000003
      g-2     :    -0.000002
      g+3     :    -0.000010
      g-3     :    -0.000072
      g+4     :     0.000013
      g-4     :    -0.000000

  1 C s       :     3.277618  s :     3.277618
      pz      :     0.618783  p :     2.406980
      px      :     0.910457
      py      :     0.877740
      dz2     :     0.039654  d :     0.171884
      dxz     :     0.051812
      dyz     :     0.059861
      dx2y2   :     0.009179
      dxy     :     0.011378
      f0      :     0.005804  f :     0.015793
      f+1     :     0.002550
      f-1     :     0.001843
      f+2     :     0.002445
      f-2     :     0.002921
      f+3     :     0.000270
      f-3     :    -0.000039
      g0      :     0.000510  g :     0.001710
      g+1     :     0.000312
      g-1     :     0.000395
      g+2     :     0.000192
      g-2     :     0.000197
      g+3     :     0.000063
      g-3     :     0.000031
      g+4     :     0.000007
      g-4     :     0.000002

  2 C s       :     3.300376  s :     3.300376
      pz      :     0.983760  p :     2.757391
      px      :     0.922298
      py      :     0.851333
      dz2     :     0.019307  d :     0.084744
      dxz     :     0.017246
      dyz     :     0.019433
      dx2y2   :     0.010641
      dxy     :     0.018117
      f0      :     0.003953  f :     0.014623
      f+1     :     0.001641
      f-1     :     0.000924
      f+2     :     0.002459
      f-2     :     0.001346
      f+3     :     0.002622
      f-3     :     0.001677
      g0      :     0.000086  g :     0.000775
      g+1     :     0.000011
      g-1     :     0.000206
      g+2     :     0.000064
      g-2     :     0.000085
      g+3     :     0.000045
      g-3     :     0.000148
      g+4     :     0.000073
      g-4     :     0.000057

  3 C s       :     3.300378  s :     3.300378
      pz      :     0.983760  p :     2.757391
      px      :     0.922298
      py      :     0.851333
      dz2     :     0.019307  d :     0.084745
      dxz     :     0.017246
      dyz     :     0.019433
      dx2y2   :     0.010641
      dxy     :     0.018117
      f0      :     0.003953  f :     0.014623
      f+1     :     0.001641
      f-1     :     0.000924
      f+2     :     0.002459
      f-2     :     0.001346
      f+3     :     0.002622
      f-3     :     0.001677
      g0      :     0.000086  g :     0.000775
      g+1     :     0.000011
      g-1     :     0.000206
      g+2     :     0.000064
      g-2     :     0.000085
      g+3     :     0.000045
      g-3     :     0.000148
      g+4     :     0.000073
      g-4     :     0.000057

  4 H s       :     0.894522  s :     0.894522
      pz      :     0.008629  p :     0.038084
      px      :     0.018977
      py      :     0.010477
      dz2     :     0.001532  d :     0.005245
      dxz     :     0.001033
      dyz     :     0.000384
      dx2y2   :     0.000534
      dxy     :     0.001763
      f0      :     0.000018  f :     0.000309
      f+1     :     0.000005
      f-1     :     0.000118
      f+2     :    -0.000001
      f-2     :     0.000080
      f+3     :     0.000070
      f-3     :     0.000019

  5 H s       :     0.894521  s :     0.894521
      pz      :     0.008629  p :     0.038084
      px      :     0.018977
      py      :     0.010477
      dz2     :     0.001532  d :     0.005245
      dxz     :     0.001033
      dyz     :     0.000384
      dx2y2   :     0.000534
      dxy     :     0.001763
      f0      :     0.000018  f :     0.000309
      f+1     :     0.000005
      f-1     :     0.000118
      f+2     :    -0.000001
      f-2     :     0.000080
      f+3     :     0.000070
      f-3     :     0.000019

  6 H s       :     0.885102  s :     0.885102
      pz      :     0.017532  p :     0.043096
      px      :     0.008653
      py      :     0.016911
      dz2     :     0.000788  d :     0.005824
      dxz     :     0.001539
      dyz     :     0.000837
      dx2y2   :     0.001768
      dxy     :     0.000892
      f0      :     0.000024  f :     0.000310
      f+1     :     0.000057
      f-1     :     0.000037
      f+2     :     0.000025
      f-2     :     0.000049
      f+3     :     0.000112
      f-3     :     0.000006

  7 H s       :     0.885101  s :     0.885101
      pz      :     0.017532  p :     0.043096
      px      :     0.008653
      py      :     0.016911
      dz2     :     0.000788  d :     0.005824
      dxz     :     0.001539
      dyz     :     0.000837
      dx2y2   :     0.001768
      dxy     :     0.000892
      f0      :     0.000024  f :     0.000310
      f+1     :     0.000057
      f-1     :     0.000037
      f+2     :     0.000025
      f-2     :     0.000049
      f+3     :     0.000112
      f-3     :     0.000006

  8 H s       :     0.885101  s :     0.885101
      pz      :     0.017532  p :     0.043096
      px      :     0.008653
      py      :     0.016911
      dz2     :     0.000788  d :     0.005824
      dxz     :     0.001539
      dyz     :     0.000837
      dx2y2   :     0.001768
      dxy     :     0.000892
      f0      :     0.000024  f :     0.000310
      f+1     :     0.000057
      f-1     :     0.000037
      f+2     :     0.000025
      f-2     :     0.000049
      f+3     :     0.000112
      f-3     :     0.000006

  9 H s       :     0.885101  s :     0.885101
      pz      :     0.017532  p :     0.043096
      px      :     0.008653
      py      :     0.016911
      dz2     :     0.000788  d :     0.005824
      dxz     :     0.001539
      dyz     :     0.000837
      dx2y2   :     0.001768
      dxy     :     0.000892
      f0      :     0.000024  f :     0.000310
      f+1     :     0.000057
      f-1     :     0.000037
      f+2     :     0.000025
      f-2     :     0.000049
      f+3     :     0.000112
      f-3     :     0.000006



                     *******************************
                     * LOEWDIN POPULATION ANALYSIS *
                     *******************************

----------------------
LOEWDIN ATOMIC CHARGES
----------------------
   0 C :    0.190901
   1 C :   -0.112409
   2 C :    0.163799
   3 C :    0.163799
   4 H :   -0.086320
   5 H :   -0.086320
   6 H :   -0.058363
   7 H :   -0.058363
   8 H :   -0.058363
   9 H :   -0.058363

-------------------------------
LOEWDIN REDUCED ORBITAL CHARGES
-------------------------------
  0 C s       :     2.628730  s :     2.628730
      pz      :     1.012491  p :     2.790641
      px      :     0.816787
      py      :     0.961363
      dz2     :     0.076728  d :     0.316885
      dxz     :     0.042541
      dyz     :     0.176780
      dx2y2   :     0.020633
      dxy     :     0.000203
      f0      :     0.014193  f :     0.064102
      f+1     :     0.013710
      f-1     :     0.026777
      f+2     :     0.005717
      f-2     :     0.000145
      f+3     :     0.000903
      f-3     :     0.002658
      g0      :     0.002358  g :     0.008741
      g+1     :     0.001892
      g-1     :     0.003155
      g+2     :     0.000094
      g-2     :     0.000005
      g+3     :     0.000165
      g-3     :     0.000787
      g+4     :     0.000286
      g-4     :     0.000000

  1 C s       :     2.595346  s :     2.595346
      pz      :     1.051644  p :     2.685560
      px      :     0.758260
      py      :     0.875656
      dz2     :     0.205451  d :     0.669519
      dxz     :     0.166891
      dyz     :     0.214997
      dx2y2   :     0.035785
      dxy     :     0.046396
      f0      :     0.049097  f :     0.143443
      f+1     :     0.018151
      f-1     :     0.035056
      f+2     :     0.014706
      f-2     :     0.022134
      f+3     :     0.003522
      f-3     :     0.000777
      g0      :     0.006035  g :     0.018541
      g+1     :     0.002967
      g-1     :     0.004672
      g+2     :     0.001455
      g-2     :     0.001965
      g+3     :     0.000909
      g-3     :     0.000389
      g+4     :     0.000064
      g-4     :     0.000086

  2 C s       :     2.554123  s :     2.554123
      pz      :     0.889367  p :     2.696405
      px      :     0.943767
      py      :     0.863271
      dz2     :     0.085204  d :     0.466442
      dxz     :     0.059810
      dyz     :     0.114473
      dx2y2   :     0.071580
      dxy     :     0.135374
      f0      :     0.026688  f :     0.110493
      f+1     :     0.010574
      f-1     :     0.010674
      f+2     :     0.025194
      f-2     :     0.009033
      f+3     :     0.014390
      f-3     :     0.013940
      g0      :     0.000883  g :     0.008739
      g+1     :     0.000542
      g-1     :     0.002525
      g+2     :     0.000811
      g-2     :     0.000909
      g+3     :     0.000297
      g-3     :     0.001374
      g+4     :     0.000409
      g-4     :     0.000988

  3 C s       :     2.554123  s :     2.554123
      pz      :     0.889367  p :     2.696405
      px      :     0.943767
      py      :     0.863271
      dz2     :     0.085204  d :     0.466442
      dxz     :     0.059810
      dyz     :     0.114473
      dx2y2   :     0.071580
      dxy     :     0.135374
      f0      :     0.026688  f :     0.110493
      f+1     :     0.010574
      f-1     :     0.010674
      f+2     :     0.025194
      f-2     :     0.009033
      f+3     :     0.014390
      f-3     :     0.013940
      g0      :     0.000883  g :     0.008739
      g+1     :     0.000542
      g-1     :     0.002525
      g+2     :     0.000811
      g-2     :     0.000909
      g+3     :     0.000297
      g-3     :     0.001374
      g+4     :     0.000409
      g-4     :     0.000988

  4 H s       :     0.812240  s :     0.812240
      pz      :     0.058286  p :     0.200939
      px      :     0.058580
      py      :     0.084073
      dz2     :     0.014947  d :     0.063890
      dxz     :     0.007563
      dyz     :     0.015884
      dx2y2   :     0.011670
      dxy     :     0.013826
      f0      :     0.000782  f :     0.009250
      f+1     :     0.000085
      f-1     :     0.002912
      f+2     :     0.001592
      f-2     :     0.001635
      f+3     :     0.001203
      f-3     :     0.001041

  5 H s       :     0.812240  s :     0.812240
      pz      :     0.058286  p :     0.200939
      px      :     0.058580
      py      :     0.084073
      dz2     :     0.014947  d :     0.063890
      dxz     :     0.007563
      dyz     :     0.015884
      dx2y2   :     0.011670
      dxy     :     0.013826
      f0      :     0.000782  f :     0.009250
      f+1     :     0.000085
      f-1     :     0.002912
      f+2     :     0.001592
      f-2     :     0.001635
      f+3     :     0.001203
      f-3     :     0.001041

  6 H s       :     0.789881  s :     0.789881
      pz      :     0.060351  p :     0.194137
      px      :     0.079919
      py      :     0.053868
      dz2     :     0.008649  d :     0.064889
      dxz     :     0.015494
      dyz     :     0.006778
      dx2y2   :     0.019045
      dxy     :     0.014924
      f0      :     0.000813  f :     0.009455
      f+1     :     0.001460
      f-1     :     0.000679
      f+2     :     0.000658
      f-2     :     0.001578
      f+3     :     0.002625
      f-3     :     0.001642

  7 H s       :     0.789881  s :     0.789881
      pz      :     0.060351  p :     0.194137
      px      :     0.079919
      py      :     0.053868
      dz2     :     0.008649  d :     0.064889
      dxz     :     0.015494
      dyz     :     0.006778
      dx2y2   :     0.019045
      dxy     :     0.014924
      f0      :     0.000813  f :     0.009455
      f+1     :     0.001460
      f-1     :     0.000679
      f+2     :     0.000658
      f-2     :     0.001578
      f+3     :     0.002625
      f-3     :     0.001642

  8 H s       :     0.789881  s :     0.789881
      pz      :     0.060351  p :     0.194137
      px      :     0.079919
      py      :     0.053868
      dz2     :     0.008649  d :     0.064889
      dxz     :     0.015494
      dyz     :     0.006778
      dx2y2   :     0.019045
      dxy     :     0.014924
      f0      :     0.000813  f :     0.009455
      f+1     :     0.001460
      f-1     :     0.000679
      f+2     :     0.000658
      f-2     :     0.001578
      f+3     :     0.002625
      f-3     :     0.001642

  9 H s       :     0.789881  s :     0.789881
      pz      :     0.060351  p :     0.194137
      px      :     0.079919
      py      :     0.053868
      dz2     :     0.008649  d :     0.064889
      dxz     :     0.015494
      dyz     :     0.006778
      dx2y2   :     0.019045
      dxy     :     0.014924
      f0      :     0.000813  f :     0.009455
      f+1     :     0.001460
      f-1     :     0.000679
      f+2     :     0.000658
      f-2     :     0.001578
      f+3     :     0.002625
      f-3     :     0.001642



                      *****************************
                      * MAYER POPULATION ANALYSIS *
                      *****************************

  NA   - Mulliken gross atomic population
  ZA   - Total nuclear charge
  QA   - Mulliken gross atomic charge
  VA   - Mayer's total valence
  BVA  - Mayer's bonded valence
  FA   - Mayer's free valence

  ATOM       NA         ZA         QA         VA         BVA        FA
  0 C      6.1966     6.0000    -0.1966     3.8423     3.8423    -0.0000
  1 C      5.8740     6.0000     0.1260     3.7265     3.7265    -0.0000
  2 C      6.1579     6.0000    -0.1579     3.8645     3.8645    -0.0000
  3 C      6.1579     6.0000    -0.1579     3.8645     3.8645     0.0000
  4 H      0.9382     1.0000     0.0618     1.0114     1.0114    -0.0000
  5 H      0.9382     1.0000     0.0618     1.0114     1.0114    -0.0000
  6 H      0.9343     1.0000     0.0657     1.0219     1.0219    -0.0000
  7 H      0.9343     1.0000     0.0657     1.0219     1.0219     0.0000
  8 H      0.9343     1.0000     0.0657     1.0219     1.0219    -0.0000
  9 H      0.9343     1.0000     0.0657     1.0219     1.0219     0.0000

  Mayer bond orders larger than 0.100000
B(  0-C ,  1-C ) :   1.7663 B(  0-C ,  4-H ) :   0.9525 B(  0-C ,  5-H ) :   0.9525 
B(  1-C ,  2-C ) :   0.9260 B(  1-C ,  3-C ) :   0.9261 B(  2-C ,  3-C ) :   0.9115 
B(  2-C ,  6-H ) :   0.9585 B(  2-C ,  7-H ) :   0.9585 B(  3-C ,  8-H ) :   0.9585 
B(  3-C ,  9-H ) :   0.9585 

-------
TIMINGS
-------

Total SCF time: 0 days 0 hours 1 min 2 sec 

Total time                  ....      62.518 sec
Sum of individual times     ....      58.926 sec  ( 94.3%)

SCF preparation             ....       0.104 sec  (  0.2%)
Fock matrix formation       ....      58.113 sec  ( 93.0%)
  Startup                   ....       0.014 sec  (  0.0% of F)
  Coulomb formation         ....      59.880 sec  (103.0% of F)
  XC integration            ....       1.608 sec  (  2.8% of F)
    Basis function eval.    ....       0.222 sec  ( 13.8% of XC)
    Density eval.           ....       0.294 sec  ( 18.3% of XC)
    XC-Functional eval.     ....       0.066 sec  (  4.1% of XC)
    XC-Potential eval.      ....       0.742 sec  ( 46.2% of XC)
Diagonalization             ....       0.000 sec  (  0.0%)
Density matrix formation    ....       0.092 sec  (  0.1%)
Total Energy calculation    ....       0.029 sec  (  0.0%)
Population analysis         ....       0.035 sec  (  0.1%)
Orbital Transformation      ....       0.067 sec  (  0.1%)
Orbital Orthonormalization  ....       0.000 sec  (  0.0%)
DIIS solution               ....       0.308 sec  (  0.5%)
SOSCF solution              ....       0.178 sec  (  0.3%)
Finished LeanSCF after  62.6 sec

Maximum memory used throughout the entire LEANSCF-calculation: 39.2 MB


           ************************************************************
           *        Program running with 8 parallel MPI-processes     *
           *              working on a common directory               *
           ************************************************************

------------------------------------------------------------------------------
                         ORCA PROPERTY INTEGRAL CALCULATIONS
------------------------------------------------------------------------------

GBWName                                   ... /cluster/projects/nn14654k/ylvaos/basis_set_n_funcs/functionals/pw91/C4H6/inp/C4H6_pw91_def2qzvp.gbw
Number of atoms                           ...     10
Number of basis functions                 ...    408
Max core memory                           ...   4096 MB

Dipole integrals                          ... YES
Quadrupole integrals                      ... YES
Linear momentum integrals                 ...  NO
Angular momentum integrals                ...  NO
Higher moments length integrals           ...  NO
Higher moments velocity integrals         ...  NO
Kinetic energy integrals                  ...  NO
GIAO right hand sides                     ...  NO
GIAO dipole derivative integrals          ...  NO
SOC integrals                             ...  NO
EPR diamagnetic integrals (GIAO)          ...  NO
EPR gauge integrals                       ...  NO
Field gradient integrals                  ...  NO (   0 nuclei)
Spin-dipole/Fermi contact integrals       ...  NO (   0 nuclei)
Contact density integrals                 ...  NO (   0 nuclei)
Nucleus-orbit integrals                   ...  NO (   0 nuclei)
Geometric perturbations                   ...  NO (  10 nuclei)

Choice of electric origin   ... Center of mass
Position of electric origin ... (  0.0000,  0.0000,  0.0124) 
Choice of magnetic origin   ... GIAO
Position of magnetic origin ... (  0.0000,  0.0000,  0.0000) 

Calculating integrals                     ... Electric Dipole (Length)     done (  0.0 sec)
Calculating integrals                     ... Electric Quadrupole (Length) done (  0.0 sec)

Property integrals calculated in   0.0 sec

Maximum memory used throughout the entire PROPINT-calculation: 27.1 MB
------------------------------------------------------------------------------
                           ORCA ORBITAL LOCALIZATION
------------------------------------------------------------------------------

Input orbitals are from                  ... /cluster/projects/nn14654k/ylvaos/basis_set_n_funcs/functionals/pw91/C4H6/inp/C4H6_pw91_def2qzvp.gbw
Output orbitals are to                   ... /cluster/projects/nn14654k/ylvaos/basis_set_n_funcs/functionals/pw91/C4H6/inp/C4H6_pw91_def2qzvp.loc
Max. number of iterations                ... 128
Localizations seeded randomly            ... on
Convergence tolerance                    ... 1.000e-06
Threshold for strong local MOs           ... 9.500e-01
Threshold for bond MOs                   ... 8.500e-01
Operator                                 ... 0
Orbital range for localization           ... 4 to 14
Localization criterion                   ... NEW-BOYS
Doing the dipole integrals               ... o.k.
Initial value of the localization sum :    56.250744
ITERATION   0 : L=   81.1055722282 DL=  2.49e+01 (AVERGE_DL)=    0.6722395207 
ITERATION   1 : L=   86.1256236523 DL=  5.02e+00 (AVERGE_DL)=    0.3021153128 
ITERATION   2 : L=   86.2216071812 DL=  9.60e-02 (AVERGE_DL)=    0.0417750532 
ITERATION   3 : L=   86.2221160050 DL=  5.09e-04 (AVERGE_DL)=    0.0030416017 
ITERATION   4 : L=   86.2221237892 DL=  7.78e-06 (AVERGE_DL)=    0.0003762057 
ITERATION   5 : L=   86.2221238612 DL=  7.21e-08 (AVERGE_DL)=    0.0000361954 
LOCALIZATION SUM CONVERGED


--------------------------------------------------------------------------------
                    LOCALIZED MOLECULAR ORBITAL COMPOSITIONS
--------------------------------------------------------------------------------

The Mulliken populations for each LMO on each atom are computed
The LMO`s will be ordered according to atom index and type
  (A) Strongly localized MO`s have populations of >=0.950 on one atom
  (B) Two center bond orbitals have populations of >=0.850 on two atoms
  (C) Other MO`s are considered to be `delocalized`

FOUND  -   0 strongly local MO`s
       -  11 two center bond MO`s
       -   0 significantly delocalized MO`s

Bond-like localized orbitals:
MO  14:   9H  -   0.476801  and   3C  -   0.541285
MO  13:   8H  -   0.476801  and   3C  -   0.541286
MO  12:   7H  -   0.476801  and   2C  -   0.541285
MO  11:   6H  -   0.476801  and   2C  -   0.541285
MO  10:   5H  -   0.481775  and   0C  -   0.535306
MO   9:   4H  -   0.481775  and   0C  -   0.535306
MO   8:   3C  -   0.504062  and   2C  -   0.504062
MO   7:   3C  -   0.536357  and   1C  -   0.500838
MO   6:   2C  -   0.536358  and   1C  -   0.500838
MO   5:   1C  -   0.495596  and   0C  -   0.516677
MO   4:   1C  -   0.495596  and   0C  -   0.516677
Localized MO's were stored in: /cluster/projects/nn14654k/ylvaos/basis_set_n_funcs/functionals/pw91/C4H6/inp/C4H6_pw91_def2qzvp.loc

-------------------------   --------------------
FINAL SINGLE POINT ENERGY      -155.959322387308
-------------------------   --------------------



           ************************************************************
           *        Program running with 8 parallel MPI-processes     *
           *              working on a common directory               *
           ************************************************************

------------------------------------------------------------------------------
                              ORCA PROPERTY CALCULATIONS
------------------------------------------------------------------------------

GBWName                                 ... /cluster/projects/nn14654k/ylvaos/basis_set_n_funcs/functionals/pw91/C4H6/inp/C4H6_pw91_def2qzvp.gbw
Number of atoms                         ...     10
Number of basis functions               ...    408
Max core memory                         ...   4096 MB

Electric properties:
Dipole moment                           ... YES
Quadrupole moment                       ... YES
Static polarizability (Dipole/Dipole)   ...  NO
Static polarizability (Dipole/Quad.)    ...  NO
Static polarizability (Quad./Quad.)     ...  NO
Static polarizability (Velocity)        ...  NO
Static hyperpolarizability              ...  NO

Atomic electric properties:
Dipole moment                           ...  NO
Quadrupole moment                       ...  NO
Static polarizability                   ...  NO

Choice of electric origin               ... Center of mass
Position of electric origin             ...     0.000000     0.000000     0.012360

General magnetic properties:
Magnetizability                         ...  NO

EPR properties:
g-Tensor (aka g-matrix)                 ...  NO
Zero-Field splitting spin-orbit         ...  NO
Zero-field splitting spin-spin          ...  NO
Hyperfine couplings                     ...  NO (   0 nuclei)
Quadrupole couplings                    ...  NO (   0 nuclei)
Contact density                         ...  NO (   0 nuclei)

NMR properties:
Chemical shifts                         ...  NO (   0 nuclei)
Spin-rotation constants                 ...  NO (   0 nuclei)
Spin-spin couplings                     ...  NO (   0 nuclei,    0 pairs)

Choice of magnetic origin               ... GIAO
Position of magnetic origin             ...     0.000000     0.000000     0.000000

Properties with geometric perturbations:
SCF Hessian                             ...  NO
IR spectrum                             ...  NO
VCD spectrum                            ...  NO
X-ray spectroscopy properties:
SCF XES/XAS/RIXS spectra                ...  NO

SCF SOC stabilization energy            ...  NO
Diagonal Born-Oppenheimer correction    ...  NO

-------------
DIPOLE MOMENT
-------------

Method             : SCF
Type of density    : Electron Density
Multiplicity       :   1
Irrep              :   0
Energy             :  -155.9593223873080774 Eh
Basis              : AO
                                X                 Y                 Z
Electronic contribution:      0.000000008      -0.000000012       0.205531179
Nuclear contribution   :      0.000000000       0.000000000      -0.371559272
                        -----------------------------------------
Total Dipole Moment    :      0.000000008      -0.000000012      -0.166028093
                        -----------------------------------------
Magnitude (a.u.)       :      0.166028093
Magnitude (Debye)      :      0.422009874



--------------------
Rotational spectrum 
--------------------
 
Rotational constants in cm-1:             0.643527             0.230144             0.181788 
Rotational constants in MHz :         19292.450199          6899.535423          5449.866904 

Dipole components along the rotational axes: 
x,y,z [a.u.] :    -0.166028    -0.000000     0.000000 
x,y,z [Debye]:    -0.422010    -0.000000     0.000000 

 

Dipole moment calculation done in   0.0 sec 

-----------------
QUADRUPOLE MOMENT
-----------------

Method             : SCF
Type of density    : Electron Density
Multiplicity       :   1
Irrep              :   0
Energy             :  -155.9593223873080774 Eh
Basis              : AO

                XX              YY              ZZ              XY              XZ              YZ
  NUC       11.888664720    55.799971245   152.416444257     0.000000000     0.000000000     0.000000000
  EL       -30.970700942   -73.915150933  -171.202097809     0.000000017     0.000000014     0.000000039
  TOT      -19.082036222   -18.115179689   -18.785653552     0.000000017     0.000000014     0.000000039 (a.u.)
           -25.665991324   -24.365536220   -25.267346497     0.000000023     0.000000019     0.000000052 (Buckingham)

diagonalized tensor:
           -19.082036222   -18.785653552   -18.115179689 (a.u.)
           -25.665991324   -25.267346497   -24.365536220 (Buckingham)
            -1.699099930    -0.503165450     2.202265380 (traceless form in Buckingham)

            -1.000000000     0.000000049     0.000000018
             0.000000018    -0.000000058     1.000000000
             0.000000049     1.000000000     0.000000058
        
Isotropic quadrupole :   -18.660956487

Quadrupole moment calculation done in   0.0 sec (  0.0 sec for integrals)

Maximum memory used throughout the entire PROP-calculation: 23.6 MB

--------------------------------
SUGGESTED CITATIONS FOR THIS RUN
--------------------------------

Below you find a list of papers that are relevant to this ORCA run
We neither can nor want to force you to cite these papers, but we appreciate if you do
You receive ORCA, which is the product of decades of hard work by many enthusiastic individuals, for free
The only thing we kindly ask in return is that you cite our papers,
We deeply appreciate it, if you show your appreciation for ORCA by not just citing the generic ORCA reference.

Please note that relegating all ORCA citations to the supporting information does *not* help us.
SI sections are not indexed - citations you put there will not count into any citation statistics
But we need these citations in order to attract the funding resources that allow us to do what we are doing

Therefore, if you are a happy ORCA user, please consider citing a few of the papers listed below in the main body of your paper

In addition to the list printed below, the program has created the file /cluster/projects/nn14654k/ylvaos/basis_set_n_funcs/functionals/pw91/C4H6/inp/C4H6_pw91_def2qzvp.bibtex that contains the list in bibtex format
You can import this file easily into all common literature databanks and citation aid programs

It goes without saying that in many instances, there are alternative algorithms to achieve similar
results as the ones you have gotten from ORCA. It is, of course, also the case that in some instances
ORCA just re-implements algorithms worked out by others. We are fully aware of that and we are also
fully appreciative of our colleagues work. Hence this citation list should not be read as indicating
that the listed papers, which are focused on our own work, are the only ones worth citing. It simply
meant to make it easier for users to cite ORCA specific papers. It is not a substitute for doing your
own literature research and citing the relevant literature in a scientifically appropriate manner.

List of essential papers. We consider these as the minimum necessary citations

  1. Neese, F.
     Software update: the ORCA program system, version 6.0
     WIRES Comput. Molec. Sci. 2025 15(1), e70019
     doi.org/10.1002/wcms.70019

List of papers to cite with high priority. The work reported in these papers was absolutely
necessary for this run to complete.
Our perspective: the developers of density functionals and basis sets usually get cited in chemistry papers
Good! But without the algorithms to do something with them, the functionals or basis sets would not do anything.
Hence, in our opinion, the algorithm design and method developments papers are equally worthy of getting cited

  1. Lehtola, S.; Steigemann, C.; Oliveira, M.; Marques, M.
     Recent developments in Libxc - A comprehensive library of functionals for density functional theory
     Software X 2018 7 , 
     doi.org/10.1016/j.softx.2017.11.002
  2. Neese, F.
     The SHARK Integral Generation and Digestion System
     J. Comp. Chem. 2022 44(3), 381
     doi.org/10.1002/jcc.26942

List of suggested additional citations. These are papers that are important in the 'surrounding' of 
of this run, or papers that preceded the highly important papers. If you like your results we are grateful for a citation.

  1. Neese, F.
     The ORCA program system
     WIRES Comput. Molec. Sci. 2012 2(1), 73-78
     doi.org/10.1002/wcms.81
  2. Neese, F.
     Software update: the ORCA program system, version 4.0
     WIRES Comput. Molec. Sci. 2018 8(1), 1-6
     doi.org/10.1002/wcms.1327
  3. Neese, F.; Wennmohs, F.; Becker, U.; Riplinger, C.
     The ORCA quantum chemistry program package
     J. Chem. Phys. 2020 152(22), 224108
     doi.org/10.1063/5.0004608
  4. Neese, F.
     Software update: The ORCA program system—Version 5.0
     WIRES Comput. Molec. Sci. 2022 12(1), e1606
     doi.org/10.1002/wcms.1606

List of optional additional citations

  1. Neese, F.
     Approximate second-order SCF convergence for spin unrestricted wavefunctions
     Chem. Phys. Lett. 2000 325(1-3), 93-98
     doi.org/10.1016/s0009-2614(00)00662-x

Timings for individual modules:

Sum of individual times          ...       64.700 sec (=   1.078 min)
Startup calculation              ...        0.774 sec (=   0.013 min)   1.2 %
SCF iterations                   ...       63.323 sec (=   1.055 min)  97.9 %
Property integrals               ...        0.300 sec (=   0.005 min)   0.5 %
Property calculations            ...        0.290 sec (=   0.005 min)   0.4 %
Orbital localization             ...        0.013 sec (=   0.000 min)   0.0 %
                             ****ORCA TERMINATED NORMALLY****
TOTAL RUN TIME: 0 days 0 hours 1 minutes 5 seconds 265 msec
